/*--------------------------------*- C++ -*----------------------------------*\
| =========                 |                                                 |
| \\      /  F ield         | OpenFOAM: The Open Source CFD Toolbox           |
|  \\    /   O peration     | Version:  v2012                                 |
|   \\  /    A nd           | Website:  www.openfoam.com                      |
|    \\/     M anipulation  |                                                 |
\*---------------------------------------------------------------------------*/
FoamFile
{
    version     2.0;
    format      ascii;
    class       surfaceVectorField;
    location    "1";
    object      Uf;
}
// * * * * * * * * * * * * * * * * * * * * * * * * * * * * * * * * * * * * * //

dimensions      [0 1 -1 0 0 0 0];


internalField   nonuniform List<vector> 
5975
(
(103.7450081 -30.72406402 -2.530938939e-19)
(103.0087624 -30.97819576 -1.331927252e-19)
(103.0341947 -30.31200225 -3.704702742e-19)
(103.7554439 -30.18847689 -1.11708527e-20)
(102.8044456 -30.79492017 -2.842389083e-20)
(107.5291701 -21.05000358 -2.134259399e-19)
(108.278045 -20.5189657 -2.526621032e-19)
(106.6351091 -19.47019125 -2.399469154e-19)
(107.5395999 -19.07784932 -5.975453579e-20)
(106.9422796 -20.68587854 8.185793473e-19)
(108.3476655 -19.81687588 -2.419689285e-19)
(107.8748162 -13.90088056 3.006999869e-19)
(107.417744 -14.52650211 -1.983352871e-19)
(106.7647514 -13.73168529 1.270430034e-19)
(107.1529318 -13.22882803 2.059883745e-19)
(106.1792701 -9.445862093 -2.150540921e-19)
(106.0269114 -9.957431897 6.643475847e-20)
(105.4524288 -9.480552049 1.956664809e-19)
(105.5893471 -9.057028027 1.384062373e-19)
(104.2952299 -6.481084917 2.73121362e-19)
(104.2665644 -6.853860559 -3.243675211e-19)
(103.8173177 -6.592514736 1.822300049e-19)
(103.8525407 -6.269874007 0)
(102.7462781 -4.878440284 -6.893047603e-20)
(102.7458334 -4.622114125 2.231568558e-19)
(102.4160469 -4.741980304 -1.391336524e-19)
(102.4276583 -4.513574498 -1.06893249e-19)
(101.4852346 -3.300288313 -1.493315387e-20)
(101.4864487 -3.67138027 1.061778012e-20)
(101.0249769 -3.489797207 -3.169291731e-20)
(101.0716822 -3.17916982 -3.218436981e-20)
(100.7426231 -2.452959666 2.459535547e-22)
(100.7251478 -2.745103578 0)
(100.3819166 -2.60650408 -1.080251052e-20)
(100.4293676 -2.359703722 0)
(99.58506295 -1.474444423 5.783853164e-21)
(99.45826487 -1.838016848 -9.40773286e-21)
(99.88976729 -2.104185338 0)
(100.1129608 -2.035223197 0)
(99.30483562 -0.9501080506 6.853486416e-21)
(99.14592898 -1.251774435 1.413884435e-20)
(99.14230654 -0.465415361 -2.386844248e-21)
(98.95157201 -0.7330911585 1.064073713e-21)
(98.85164172 -0.2416260928 6.146247931e-21)
(96.54539155 -20.61609931 2.296660245e-20)
(95.58230725 -20.13924581 -8.233653688e-20)
(96.49442744 -19.2743098 -6.035010464e-20)
(97.13480644 -19.84756911 2.331423413e-20)
(95.59710225 -19.6555167 -2.509052557e-19)
(101.9479809 -16.78339416 -1.117042908e-19)
(102.7919329 -16.81099174 7.578487452e-20)
(101.9421217 -15.79406721 -2.813787314e-20)
(102.5880274 -15.85667533 2.574727791e-19)
(103.9473323 -12.73802689 1.065710768e-19)
(103.4980192 -13.00200307 1.35045225e-21)
(103.1925652 -12.29529185 4.98455921e-22)
(103.5500811 -12.08815182 -4.362294428e-20)
(103.4672912 -9.264158978 1.230243313e-19)
(103.2545831 -9.575401954 9.909863611e-20)
(102.8814398 -9.108285978 3.477216231e-20)
(103.0567118 -8.843238717 2.153244595e-19)
(102.4363129 -6.705377194 0)
(102.3403136 -6.969594223 -3.11098476e-19)
(102.0049259 -6.684151451 -2.429549465e-19)
(102.0916225 -6.454059152 1.650584445e-19)
(101.3765072 -5.175413045 8.905131555e-20)
(101.4276868 -4.9683849 -2.057635211e-20)
(101.1039478 -5.005819877 -6.903347586e-20)
(101.1574806 -4.827046172 2.165344271e-20)
(100.5524688 -3.624945408 -4.446875254e-20)
(100.4746933 -3.955127332 -2.282547257e-20)
(100.0766075 -3.709895522 -4.154948766e-20)
(100.1795509 -3.445807066 -1.723862704e-20)
(100.0080823 -2.724464822 -2.775205436e-20)
(99.93131344 -2.992393816 1.009015565e-20)
(99.62626285 -2.809977308 -2.951336894e-20)
(99.71350957 -2.584452389 -1.529737149e-20)
(99.02881557 -1.607880729 -5.487002028e-22)
(98.85456837 -1.948659803 -2.697765597e-20)
(99.2285982 -2.276190846 -6.950041287e-21)
(99.46126928 -2.227384926 -4.132640716e-21)
(98.80195109 -1.036703358 9.272342047e-21)
(98.60823449 -1.333800636 1.748733515e-20)
(98.66886499 -0.5081732284 9.268203255e-21)
(98.45315185 -0.7829452066 3.623087135e-22)
(98.3724007 -0.2580443149 2.253169331e-21)
(97.80102147 -13.49093806 1.547252288e-19)
(97.42025931 -12.66716768 -1.038312178e-19)
(98.0948572 -12.49690001 2.2201422e-19)
(98.36249129 -12.97542114 1.518869919e-19)
(100.4062518 -12.96028097 -2.430605725e-20)
(100.0224965 -12.68708095 -8.514667887e-20)
(100.125694 -12.15001073 -4.396381777e-20)
(100.4216292 -12.34375494 -1.506868301e-19)
(101.4194924 -10.84660146 -1.358197508e-19)
(101.1178318 -10.88464832 1.235857026e-21)
(100.972094 -10.36623583 -2.957299638e-19)
(101.2105233 -10.32426726 -1.197161401e-19)
(101.3635727 -8.47474788 -1.621170455e-19)
(101.1768342 -8.630583366 6.694094315e-20)
(100.9331532 -8.232151313 1.317821648e-19)
(101.0877515 -8.094573351 1.539248338e-19)
(100.8155218 -6.484966464 1.790651781e-19)
(100.7017931 -6.651530243 9.283929523e-21)
(100.4551131 -6.383458738 2.716464167e-21)
(100.5549313 -6.235145979 8.75037622e-20)
(100.1087455 -5.165240476 -1.064262101e-20)
(100.184646 -5.01466316 1.455628103e-22)
(99.89132193 -4.987160366 -1.20851591e-20)
(99.96692557 -4.850886474 -1.053615147e-20)
(99.60791453 -3.748506726 3.344551298e-21)
(99.48406614 -4.016394588 6.267181822e-21)
(99.15442331 -3.747053497 0)
(99.29019669 -3.531343907 2.721700965e-21)
(99.2482275 -2.863200391 -1.259640064e-20)
(99.13056391 -3.09345488 2.719289479e-21)
(98.86898194 -2.887353946 4.278106897e-21)
(98.98335055 -2.688113169 0)
(98.44382399 -1.674457012 -8.128105889e-21)
(98.23957002 -1.984434645 -1.168226042e-20)
(98.55917128 -2.343792538 -8.910810458e-22)
(98.7899343 -2.318973699 -1.168174659e-20)
(98.26808371 -1.082868741 9.006982394e-21)
(98.05235048 -1.368519695 1.797164006e-20)
(98.16410249 -0.5318377659 -6.019450332e-21)
(97.93372633 -0.8052504444 -1.022059306e-20)
(97.87090235 -0.2654351995 -6.386104671e-21)
(98.80538245 -10.21159757 2.067768691e-20)
(98.67508571 -9.747624241 -5.16724694e-20)
(98.99725493 -9.619398331 -1.223900993e-19)
(99.01903609 -9.912707657 -8.303929444e-20)
(99.62228868 -10.1237551 3.984488478e-20)
(99.49327232 -9.889629896 3.23961922e-20)
(99.51634895 -9.563731851 -4.479155578e-20)
(99.61654412 -9.737729634 -4.76001797e-20)
(99.94502326 -9.00947116 -4.846556547e-19)
(99.79542905 -8.957304728 -1.494794933e-19)
(99.68094455 -8.593978038 -3.168177128e-19)
(99.80446273 -8.625076657 -1.405826358e-19)
(99.84171225 -7.469902655 -5.486790712e-20)
(99.71024823 -7.529079043 -2.557529114e-19)
(99.53508498 -7.216295504 5.229855356e-20)
(99.64562906 -7.157873383 -1.78453619e-19)
(99.4903508 -6.015894731 3.235719646e-20)
(99.38989307 -6.110129954 1.145503809e-19)
(99.20514487 -5.879792336 1.457661381e-19)
(99.29407205 -5.792426569 1.779821546e-19)
(99.00393934 -4.933502742 0)
(99.08581416 -4.833014141 0)
(98.83496478 -4.763335877 0)
(98.91452919 -4.666499031 0)
(98.72337761 -3.712275363 -1.487443582e-20)
(98.57928614 -3.915824109 -1.486021983e-20)
(98.31523259 -3.650125665 5.484223597e-21)
(98.46278363 -3.479262826 -4.135951511e-20)
(98.50471419 -2.88462378 2.683257236e-20)
(98.36712909 -3.073590796 -3.752706003e-21)
(98.14461725 -2.859206634 2.556048664e-21)
(98.2730397 -2.689386041 1.273586427e-20)
(97.85607163 -1.682814062 1.478367921e-20)
(97.63714121 -1.959049772 2.441326071e-20)
(97.90757846 -2.324436786 3.023211712e-20)
(98.12803195 -2.328434506 -1.285684196e-20)
(97.72511982 -1.093607906 -1.86641385e-21)
(97.49956788 -1.36261375 -8.296612554e-21)
(97.64668625 -0.538058022 -1.057453714e-20)
(97.41131393 -0.8033946658 -1.178459647e-20)
(97.36354071 -0.2650311004 1.20009096e-21)
(99.37572606 -8.190698632 9.448814784e-20)
(99.46931296 -7.94204689 -1.37130025e-20)
(99.44209372 -7.804209351 1.177074689e-20)
(99.39178808 -8.01918792 -1.391905441e-20)
(99.27453638 -8.146436459 -9.742460393e-20)
(99.2265888 -7.982757801 -9.284413251e-20)
(99.18798524 -7.750045373 -1.916553363e-19)
(99.16705026 -7.884840911 1.476585551e-19)
(99.031347 -7.479060692 5.597076151e-23)
(98.97165075 -7.410452488 1.968824999e-19)
(98.85000749 -7.149923591 2.982383465e-20)
(98.90131404 -7.200383616 1.564390466e-20)
(98.75611005 -6.482006861 2.307156868e-19)
(98.67958074 -6.488436943 -3.576977612e-20)
(98.53626206 -6.251996382 -1.514709666e-20)
(98.60296017 -6.239016301 1.785621638e-19)
(98.44832857 -5.457119836 -3.697303343e-21)
(98.37249085 -5.504347053 3.384412645e-21)
(98.22722163 -5.314245692 -3.696465023e-21)
(98.29677302 -5.268842182 -3.695157293e-21)
(98.08521015 -4.585241909 0)
(98.15895729 -4.520351073 0)
(97.95185831 -4.430779307 0)
(98.02431472 -4.364754859 0)
(97.93249597 -3.56546315 2.026293406e-20)
(97.78608345 -3.712674712 0)
(97.57293364 -3.461391697 0)
(97.71786192 -3.329895956 0)
(97.80557891 -2.813557986 -2.003062744e-20)
(97.66243002 -2.964237217 0)
(97.47320378 -2.750619136 0)
(97.60529765 -2.610401092 0)
(97.28604528 -1.645258426 -1.779299459e-21)
(97.06475374 -1.886375125 1.895405535e-20)
(97.29327612 -2.241251263 1.260996007e-20)
(97.49782918 -2.271828608 1.26307861e-20)
(97.1908026 -1.07519038 -1.893668128e-20)
(96.96514035 -1.323328835 -1.77371223e-20)
(97.1327158 -0.5295656302 1.951802214e-23)
(96.90001115 -0.7821124968 -1.196040633e-21)
(96.86430641 -0.2586983948 1.199999948e-21)
(99.51887471 -6.813928102 0)
(99.64055633 -6.632332933 -6.010052681e-21)
(99.51718198 -6.523814736 3.699909833e-20)
(99.43836249 -6.667341562 1.515366698e-21)
(98.9359396 -6.72781272 -6.04966984e-20)
(98.94909255 -6.605317837 9.484275069e-20)
(98.85353666 -6.431697696 9.6799693e-20)
(98.7947358 -6.534993291 1.175730397e-19)
(98.38485308 -6.277199577 -1.045489953e-19)
(98.37837883 -6.210742554 -9.133844234e-20)
(98.25367465 -6.0215857 -9.729725335e-20)
(98.2570533 -6.073674221 8.476334992e-20)
(97.97399774 -5.618419249 6.229457789e-20)
(97.93919629 -5.602812799 8.123997145e-22)
(97.81569685 -5.425023856 1.954103854e-20)
(97.84624775 -5.433826389 1.907581641e-20)
(97.64581259 -4.885522077 0)
(97.59623941 -4.904782735 0)
(97.47623805 -4.744594411 0)
(97.52267087 -4.72424199 0)
(97.33706567 -4.183224501 0)
(97.3977101 -4.144686281 0)
(97.22864566 -4.045972607 0)
(97.28843326 -4.003230767 0)
(97.23782693 -3.342821904 0)
(97.10206003 -3.445552581 0)
(96.92678373 -3.214057824 0)
(97.0591812 -3.114425772 0)
(97.16492564 -2.674364035 0)
(97.02681057 -2.791473747 0)
(96.86626532 -2.588108311 0)
(96.99338796 -2.473529356 0)
(96.74621327 -1.57216137 0)
(96.53125471 -1.780469645 0)
(96.72727432 -2.114722649 0)
(96.91279988 -2.165430746 0)
(96.67750084 -1.032793441 0)
(96.45845872 -1.258987069 0)
(96.63494465 -0.510684032 0)
(96.41077756 -0.7462496344 0)
(96.38418839 -0.2476135949 0)
(99.48331703 -5.744452111 1.406749104e-21)
(99.60550652 -5.611974735 4.061754266e-20)
(99.47448005 -5.512362513 0)
(99.36174615 -5.622166186 -2.726057762e-21)
(98.62869286 -5.648886617 1.55820675e-20)
(98.70352016 -5.553815362 7.102336951e-21)
(98.5753703 -5.421923824 1.530280241e-20)
(98.50105985 -5.504080378 1.500456118e-20)
(97.92991327 -5.34398535 0)
(97.96452348 -5.284944377 0)
(97.84202315 -5.142150741 0)
(97.80965993 -5.191394274 0)
(97.40938717 -4.88539136 0)
(97.40847525 -4.86060411 0)
(97.29304147 -4.717837099 0)
(97.29401496 -4.73676592 0)
(97.02845505 -4.33431049 0)
(97.00286992 -4.337163618 0)
(96.89708651 -4.20277078 0)
(96.9225892 -4.197332094 0)
(96.73238227 -3.767573157 0)
(96.77793846 -3.746524359 0)
(96.63960725 -3.6472708 0)
(96.68580549 -3.620333623 0)
(96.63882449 -3.07866863 0)
(96.52101585 -3.148564788 0)
(96.37298146 -2.939625493 0)
(96.48790844 -2.865556655 0)
(96.59198534 -2.494494416 0)
(96.46559375 -2.584250861 0)
(96.32767321 -2.395972857 0)
(96.44449902 -2.302872467 0)
(96.24467359 -1.475641754 0)
(96.04323121 -1.655249922 0)
(96.21480953 -1.964099049 0)
(96.38071107 -2.026196754 0)
(96.19349682 -0.9738994644 0)
(95.98712256 -1.17883074 0)
(96.16185681 -0.4835424257 0)
(95.95016183 -0.7004073489 0)
(95.92994916 -0.2328926545 0)
(99.47956096 -4.887697853 0)
(99.62253828 -4.787555048 0)
(99.48160034 -4.700757778 0)
(99.34266677 -4.789725773 0)
(98.45382347 -4.813551295 0)
(98.55883395 -4.735933401 0)
(98.41920848 -4.630794998 0)
(98.31891142 -4.699088447 0)
(97.6160171 -4.591210811 0)
(97.67864226 -4.538274024 0)
(97.55116281 -4.423812898 0)
(97.4929317 -4.469243223 0)
(96.98971183 -4.250431698 0)
(97.01450496 -4.22237017 0)
(96.90160479 -4.105803064 0)
(96.87962677 -4.128589177 0)
(96.54792684 -3.826543581 0)
(96.54274567 -3.820432412 0)
(96.44469741 -3.707547738 0)
(96.45201561 -3.710552768 0)
(96.24155762 -3.365874521 0)
(96.27226551 -3.355363894 0)
(96.15829882 -3.260972296 0)
(96.19084051 -3.244568541 0)
(96.12762944 -2.79946974 0)
(96.03087892 -2.84703097 0)
(95.90135123 -2.660246597 0)
(95.99685249 -2.606142301 0)
(96.08637278 -2.294366243 0)
(95.97527011 -2.362792783 0)
(95.85430891 -2.191537874 0)
(95.95793875 -2.115744886 0)
(95.78570252 -1.366331581 0)
(95.60211835 -1.521176513 0)
(95.75585539 -1.802676582 0)
(95.90310232 -1.869125123 0)
(95.74445217 -0.9056908174 0)
(95.55439714 -1.090137448 0)
(95.71921978 -0.4508042531 0)
(95.5228652 -0.6490593614 0)
(95.50646415 -0.2162395624 0)
(99.48293164 -4.195054495 -1.429041409e-35)
(99.63526718 -4.115898147 -7.953405379e-37)
(99.48185708 -4.042525068 -2.784494696e-35)
(99.32882416 -4.114754384 -1.429208943e-35)
(98.3279485 -4.134020965 0)
(98.45169636 -4.069737384 0)
(98.30099599 -3.983691683 0)
(98.18317406 -4.041048549 0)
(97.38138806 -3.964397898 0)
(97.46429352 -3.917742012 0)
(97.33179663 -3.824203773 0)
(97.2547352 -3.864956972 0)
(96.66896646 -3.703130257 0)
(96.71337739 -3.675034498 0)
(96.60054099 -3.578673958 0)
(96.56065836 -3.602202531 0)
(96.16824436 -3.370399993 0)
(96.17999288 -3.359749876 0)
(96.08587295 -3.264566376 0)
(96.07778463 -3.272071971 0)
(95.84035426 -2.992589542 0)
(95.85727487 -2.988405843 0)
(95.76284293 -2.901568242 0)
(95.78254789 -2.892076322 0)
(95.69250759 -2.523572784 0)
(95.61769356 -2.556548889 0)
(95.49964347 -2.390660928 0)
(95.57579971 -2.351255645 0)
(95.64328037 -2.088704437 0)
(95.54895442 -2.141156942 0)
(95.44028388 -1.987125543 0)
(95.52931781 -1.925078349 0)
(95.36999731 -1.252086129 0)
(95.20655055 -1.3858255 0)
(95.3476241 -1.639947511 0)
(95.47770851 -1.706344159 0)
(95.33261888 -0.8331313205 0)
(95.1608086 -0.9985154848 0)
(95.31027906 -0.4156033059 0)
(95.13063846 -0.5955855566 0)
(95.11602419 -0.1988258979 0)
(99.47504435 -3.625636099 -1.219601355e-35)
(99.63289979 -3.561605391 0)
(99.47177095 -3.498836663 0)
(99.30931125 -3.558120356 0)
(98.22834128 -3.572145102 0)
(98.36553217 -3.518496378 0)
(98.20646777 -3.44683502 0)
(98.07588712 -3.495208322 0)
(97.19993817 -3.43793002 0)
(97.29776549 -3.397254355 0)
(97.16085245 -3.319657348 0)
(97.06970113 -3.355641904 0)
(96.41784666 -3.232253311 0)
(96.4774431 -3.205695327 0)
(96.36354247 -3.125214123 0)
(96.30955437 -3.147880593 0)
(95.86367642 -2.966249779 0)
(95.88938915 -2.9536461 0)
(95.79700957 -2.873021084 0)
(95.77599586 -2.882667975 0)
(95.51014395 -2.653698123 0)
(95.51467285 -2.653630518 0)
(95.43630983 -2.575167277 0)
(95.44440593 -2.570269271 0)
(95.32127238 -2.262346976 0)
(95.26764767 -2.285405421 0)
(95.15633296 -2.139063097 0)
(95.21425004 -2.109816096 0)
(95.25613634 -1.887547095 0)
(95.17875416 -1.928272578 0)
(95.07880379 -1.790742176 0)
(95.15295782 -1.739489924 0)
(94.99611056 -1.138547986 0)
(94.85361678 -1.254468095 0)
(94.98604867 -1.482334061 0)
(95.10066285 -1.546165323 0)
(94.95812119 -0.7600796422 0)
(94.80527585 -0.9080726601 0)
(94.93601732 -0.379902458 0)
(94.77351991 -0.5424807631 0)
(94.75914424 -0.1814735771 0)
(99.45966079 -3.149955418 -1.885791888e-35)
(99.62100012 -3.097335462 -6.406146635e-37)
(99.45500033 -3.043253155 -1.885791888e-35)
(99.28604973 -3.092373706 -1.885574972e-35)
(98.1466098 -3.101871914 0)
(98.29378869 -3.056758597 0)
(98.12835413 -2.996333713 0)
(97.98819347 -3.037322352 0)
(97.05556969 -2.99267475 0)
(97.16463706 -2.957394032 0)
(97.02398457 -2.892264727 0)
(96.92207086 -2.92376707 0)
(96.21712668 -2.827119406 0)
(96.2886287 -2.802781194 0)
(96.1732009 -2.734979812 0)
(96.10798614 -2.756015798 0)
(95.61590791 -2.610958318 0)
(95.6531263 -2.597889551 0)
(95.56120203 -2.52927108 0)
(95.52939057 -2.539645902 0)
(95.23596314 -2.349939565 0)
(95.22980797 -2.35230571 0)
(95.16413141 -2.282167187 0)
(95.16218272 -2.280017298 0)
(95.00361041 -2.021104518 0)
(94.96939399 -2.036979652 0)
(94.86216065 -1.908659062 0)
(94.90308451 -1.886396682 0)
(94.91811146 -1.697094438 0)
(94.85705031 -1.729211108 0)
(94.76311757 -1.607070157 0)
(94.82285011 -1.564209483 0)
(94.66134789 -1.029527584 0)
(94.53963767 -1.130537216 0)
(94.66641678 -1.333910247 0)
(94.7673329 -1.393613057 0)
(94.61965267 -0.689233647 0)
(94.4856041 -0.8215964071 0)
(94.595902 -0.3450872759 0)
(94.45024683 -0.491464135 0)
(94.43496963 -0.1647476532 0)
(99.4396129 -2.748465636 1.619884846e-35)
(99.603135 -2.704804971 0)
(99.43410391 -2.657976125 0)
(99.26065985 -2.698941161 0)
(98.07789023 -2.704721862 0)
(98.23268852 -2.666580297 0)
(98.06235642 -2.615201102 0)
(97.91481483 -2.650045773 0)
(96.93804566 -2.614018192 0)
(97.05578301 -2.58351012 0)
(96.9120144 -2.528382257 0)
(96.80170866 -2.555802483 0)
(96.05380291 -2.478301699 0)
(96.13477078 -2.45642927 0)
(96.01769358 -2.398929006 0)
(95.94343382 -2.417994561 0)
(95.4116823 -2.300129987 0)
(95.45843737 -2.287457062 0)
(95.36623537 -2.228826538 0)
(95.3253645 -2.239082375 0)
(95.00608972 -2.080278292 0)
(94.99068782 -2.083880385 0)
(94.93515882 -2.021724023 0)
(94.92440489 -2.02117331 0)
(94.73091971 -1.801830291 0)
(94.71418332 -1.812858048 0)
(94.60909768 -1.700634697 0)
(94.63449065 -1.683170147 0)
(94.62273882 -1.520832079 0)
(94.57698213 -1.546670217 0)
(94.4870701 -1.438623534 0)
(94.5332114 -1.402241567 0)
(94.36242088 -0.9274443069 0)
(94.26069295 -1.016090497 0)
(94.38400148 -1.197048074 0)
(94.47290378 -1.251719694 0)
(94.31501655 -0.622373727 0)
(94.19902114 -0.7408623522 0)
(94.28835072 -0.3120844295 0)
(94.1587773 -0.4436600322 0)
(94.14179787 -0.1490231956 0)
(99.41673789 -2.407440948 6.298434333e-36)
(99.58152466 -2.371050296 5.590731443e-38)
(99.41072465 -2.330376877 6.298434333e-36)
(99.23421445 -2.364649769 6.29917273e-36)
(98.01911172 -2.367350057 0)
(98.17982716 -2.335025966 0)
(98.00570861 -2.291116153 0)
(97.85237021 -2.320759406 0)
(96.84064621 -2.290809158 0)
(96.9652143 -2.264519981 0)
(96.81886571 -2.217606134 0)
(96.70189128 -2.241336843 0)
(95.91890054 -2.177884995 0)
(96.0075038 -2.158520607 0)
(95.8888238 -2.109539185 0)
(95.80718358 -2.126506968 0)
(95.24139354 -2.029224603 0)
(95.29612093 -2.017447205 0)
(95.2032456 -1.967217644 0)
(95.1547195 -1.976841723 0)
(94.81167027 -1.842667818 0)
(94.78824113 -1.846715692 0)
(94.74093712 -1.792043047 0)
(94.72246249 -1.792317504 0)
(94.49579946 -1.605035325 0)
(94.49464002 -1.612954735 0)
(94.3903781 -1.514942646 0)
(94.40171637 -1.50072647 0)
(94.36418552 -1.360463865 0)
(94.33251648 -1.381773405 0)
(94.24515988 -1.286450678 0)
(94.27873168 -1.25506245 0)
(94.09583323 -0.8337040725 0)
(94.01285435 -0.9121747206 0)
(94.13430666 -1.072905313 0)
(94.2127465 -1.122128644 0)
(94.04152321 -0.5605918012 0)
(93.94244487 -0.6668933907 0)
(94.01113847 -0.2814773113 0)
(93.89657654 -0.399742668 0)
(93.87736304 -0.13453069 0)
(99.39221394 -2.116736403 5.41955803e-36)
(99.55759202 -2.086373535 0)
(99.38592618 -2.050993328 0)
(99.20739438 -2.079679253 0)
(97.9681792 -2.079801861 0)
(98.13353987 -2.052411062 0)
(97.95648891 -2.014784227 0)
(97.79853679 -2.039964774 0)
(96.75876691 -2.014405496 0)
(96.88880806 -1.991851376 0)
(96.74032067 -1.951805314 0)
(96.61796534 -1.972212663 0)
(95.80605344 -1.919285995 0)
(95.9008924 -1.902360756 0)
(95.78072162 -1.860524844 0)
(95.69299409 -1.875391332 0)
(95.09795077 -1.793936527 0)
(95.15939213 -1.783326883 0)
(95.06563621 -1.740226798 0)
(95.010601 -1.748922584 0)
(94.64591437 -1.634608222 0)
(94.61550346 -1.638596133 0)
(94.57492889 -1.590826858 0)
(94.54968965 -1.591410675 0)
(94.29207518 -1.430229763 0)
(94.3047463 -1.436293265 0)
(94.20038527 -1.350768755 0)
(94.19909822 -1.338683068 0)
(94.13727852 -1.216509096 0)
(94.11842439 -1.234606372 0)
(94.03253834 -1.150661368 0)
(94.05463643 -1.123103266 0)
(93.85808459 -0.7489849803 0)
(93.79240899 -0.8191703068 0)
(93.91318546 -0.9618272145 0)
(93.98255131 -1.005475547 0)
(93.79624985 -0.5044769218 0)
(93.71275427 -0.6001916488 0)
(93.76168695 -0.2535960564 0)
(93.66091218 -0.3600658368 0)
(93.63913518 -0.1213963171 0)
(99.3668377 -1.868696864 0)
(99.53230692 -1.843410873 0)
(99.36042725 -1.81263019 0)
(99.18065331 -1.836585977 0)
(97.92359346 -1.834527567 0)
(98.09261962 -1.81137021 0)
(97.9132997 -1.779097018 0)
(97.75164554 -1.800410762 0)
(96.68913962 -1.778074239 0)
(96.82362191 -1.758831809 0)
(96.67334962 -1.724601275 0)
(96.54660179 -1.742021049 0)
(95.71064184 -1.697106063 0)
(95.81062333 -1.682491714 0)
(95.6890878 -1.646711073 0)
(95.59629749 -1.659544298 0)
(94.97603833 -1.590414021 0)
(95.04316579 -1.581101034 0)
(94.94842295 -1.544089328 0)
(94.88782766 -1.551699802 0)
(94.50355611 -1.453541395 0)
(94.46706773 -1.457152728 0)
(94.43202046 -1.415676701 0)
(94.40085776 -1.416228467 0)
(94.11466992 -1.276391913 0)
(94.1396003 -1.281496838 0)
(94.03449434 -1.206926144 0)
(94.02191562 -1.196144441 0)
(93.93752051 -1.088784397 0)
(93.93023105 -1.104668642 0)
(93.84500193 -1.030830771 0)
(93.85672386 -1.006176268 0)
(93.64578038 -0.6734720207 0)
(93.59584498 -0.737000651 0)
(93.7168537 -0.8636500493 0)
(93.77840264 -0.9017829073 0)
(93.57619844 -0.4542622523 0)
(93.50682886 -0.5408817842 0)
(93.53724316 -0.2285875477 0)
(93.44892518 -0.3247455604 0)
(93.42440029 -0.1096677945 0)
(99.34113325 -1.657364523 0)
(99.50632054 -1.636425346 0)
(99.33469734 -1.609690844 0)
(99.15427072 -1.62957493 0)
(97.88420895 -1.625614045 0)
(98.05613171 -1.606144155 0)
(97.87506379 -1.578493266 0)
(97.71042459 -1.596409851 0)
(96.6293312 -1.57642669 0)
(96.76745646 -1.560146305 0)
(96.61568349 -1.530904042 0)
(96.48531316 -1.545619699 0)
(95.62918403 -1.506844783 0)
(95.73344633 -1.494405387 0)
(95.61066965 -1.463812323 0)
(95.51363377 -1.474698711 0)
(94.87154012 -1.415227296 0)
(94.94351364 -1.407270185 0)
(94.84773844 -1.37549721 0)
(94.78236792 -1.381935168 0)
(94.38040116 -1.296997465 0)
(94.33860827 -1.300023126 0)
(94.30812094 -1.264266783 0)
(94.27176159 -1.264546795 0)
(93.95932853 -1.142198619 0)
(93.9951222 -1.146996931 0)
(93.88881082 -1.082031101 0)
(93.86615656 -1.071925997 0)
(93.76095029 -0.9766626741 0)
(93.76404245 -0.9911046832 0)
(93.67884817 -0.9262045365 0)
(93.68124568 -0.9037013489 0)
(93.45569254 -0.6070290322 0)
(93.41993216 -0.6653344231 0)
(93.54187823 -0.7779022599 0)
(93.59672763 -0.8106778811 0)
(93.37839686 -0.4099417487 0)
(93.32168528 -0.4888585924 0)
(93.33499812 -0.2064729573 0)
(93.25779724 -0.2937497746 0)
(93.23043982 -0.09934342547 0)
(99.31542957 -1.478062844 0)
(99.4800554 -1.460912806 0)
(99.30902661 -1.437781791 0)
(99.12839602 -1.454097466 0)
(97.84911421 -1.448401737 0)
(98.02332127 -1.432199075 0)
(97.84091862 -1.408593247 0)
(97.6738672 -1.423475509 0)
(96.57747488 -1.405151377 0)
(96.71861614 -1.391556842 0)
(96.56557147 -1.366649787 0)
(96.43218651 -1.378886865 0)
(95.55899628 -1.344794928 0)
(95.66685388 -1.334412575 0)
(95.54294903 -1.30831491 0)
(95.44232411 -1.317331903 0)
(94.78121559 -1.265418931 0)
(94.85734688 -1.258850173 0)
(94.76052831 -1.231623592 0)
(94.69103257 -1.236830193 0)
(94.27306443 -1.162728185 0)
(94.22662453 -1.165015136 0)
(94.19991296 -1.134471333 0)
(94.15898287 -1.134296422 0)
(93.82248867 -1.026252048 0)
(93.86791436 -1.031230075 0)
(93.76005926 -0.9746917262 0)
(93.72842131 -0.9647696908 0)
(93.60411478 -0.8793121391 0)
(93.61649411 -0.89292374 0)
(93.53084102 -0.8358998732 0)
(93.52489989 -0.8149188002 0)
(93.28482249 -0.5493408768 0)
(93.26170641 -0.6037006756 0)
(93.38516842 -0.7039641254 0)
(93.43432 -0.73158359 0)
(93.19999926 -0.3713675548 0)
(93.15449734 -0.4438794125 0)
(93.15220806 -0.1871971595 0)
(93.08479722 -0.2669551242 0)
(93.05458702 -0.09039028278 0)
(99.28990922 -1.327043376 0)
(99.45376356 -1.313232921 0)
(99.28357031 -1.293333522 0)
(99.10307694 -1.306485745 0)
(97.81755493 -1.299160275 0)
(97.99355105 -1.285885149 0)
(97.81014001 -1.265850285 0)
(97.64114177 -1.277992543 0)
(96.53208721 -1.26076139 0)
(96.67574076 -1.249623565 0)
(96.52160289 -1.228516742 0)
(96.38569306 -1.238464068 0)
(95.4979476 -1.207893224 0)
(95.60884385 -1.199459663 0)
(95.48390157 -1.177287048 0)
(95.38022479 -1.184509089 0)
(94.70244631 -1.138466727 0)
(94.78216205 -1.133297803 0)
(94.68429682 -1.110040609 0)
(94.61122067 -1.113979096 0)
(94.17870558 -1.048727658 0)
(94.12818805 -1.050151696 0)
(94.10456209 -1.024381168 0)
(94.05961776 -1.023580221 0)
(93.70113482 -0.9271946598 0)
(93.75513867 -0.9327339056 0)
(93.64544457 -0.8836268506 0)
(93.60578717 -0.8734547023 0)
(93.46397561 -0.7958285763 0)
(93.48463922 -0.8091127417 0)
(93.39811704 -0.7590043948 0)
(93.38474804 -0.7390099215 0)
(93.13034504 -0.4999944046 0)
(93.11841807 -0.5515889587 0)
(93.24392007 -0.6411710095 0)
(93.28826833 -0.6638626478 0)
(93.03826071 -0.3383100463 0)
(93.00260241 -0.4056282915 0)
(92.98618126 -0.1706586456 0)
(92.92730512 -0.2441919045 0)
(92.89426116 -0.0827598851 0)
(99.26467633 -1.201257204 -8.846672645e-37)
(99.42761523 -1.190427752 8.115623905e-40)
(99.25842281 -1.173461624 -1.716356755e-36)
(99.07831871 -1.18376993 -8.845655045e-37)
(97.78889435 -1.174873944 0)
(97.96627918 -1.164259552 0)
(97.78211809 -1.147412557 0)
(97.61155071 -1.157045078 0)
(96.49195263 -1.140418186 0)
(96.63771184 -1.131557775 0)
(96.48261871 -1.113815989 0)
(96.34458036 -1.121620451 0)
(95.44430129 -1.093604065 0)
(95.55778285 -1.087033324 0)
(95.43187425 -1.068317272 0)
(95.32558669 -1.073802924 0)
(94.63308797 -1.032244232 0)
(94.7159132 -1.028480676 0)
(94.61700862 -1.008714189 0)
(94.54080618 -1.011361498 0)
(94.09501238 -0.953400845 0)
(94.04082391 -0.953937849 0)
(94.01989998 -0.9326048287 0)
(93.97127638 -0.9311242726 0)
(93.59260698 -0.8438842141 0)
(93.65431389 -0.850347885 0)
(93.54237778 -0.807821546 0)
(93.49564713 -0.7968754612 0)
(93.3378212 -0.725300263 0)
(93.36585525 -0.7387081359 0)
(93.2781067 -0.6946330455 0)
(93.25816007 -0.6751379591 0)
(92.98978799 -0.4585515798 0)
(92.98762636 -0.5084479431 0)
(93.11560889 -0.5888124827 0)
(93.15598981 -0.606748956 0)
(92.89074349 -0.3105131415 0)
(92.86353526 -0.3737694632 0)
(92.83451378 -0.1567435842 0)
(92.78286205 -0.2252689395 0)
(92.74701641 -0.07639311823 0)
(99.23979761 -1.098279972 0)
(99.40173164 -1.090143469 0)
(99.23363671 -1.075865454 0)
(99.05410609 -1.083584247 0)
(97.76258967 -1.073136665 0)
(97.94103689 -1.064968815 0)
(97.75632381 -1.050991503 0)
(97.58449633 -1.058297749 0)
(96.45605333 -1.041838733 0)
(96.60358431 -1.03511183 0)
(96.44763414 -1.020370473 0)
(96.30779351 -1.026148369 0)
(95.3966124 -0.9998530928 0)
(95.51230126 -0.9950751926 0)
(95.38547052 -0.9794180628 0)
(95.27694371 -0.9832130305 0)
(94.57137008 -0.9449457372 0)
(94.65689191 -0.9425872555 0)
(94.55694623 -0.9258910772 0)
(94.47802308 -0.9272306391 0)
(94.02016448 -0.8751742377 0)
(93.962729 -0.8748611714 0)
(93.94408159 -0.8575528048 0)
(93.89220458 -0.85532135 0)
(93.49444644 -0.7752850449 0)
(93.56293365 -0.7827349952 0)
(93.44862154 -0.7460897834 0)
(93.39564325 -0.7339512541 0)
(93.22321363 -0.6668848739 0)
(93.25778576 -0.6807985436 0)
(93.16852774 -0.6419520439 0)
(93.1427424 -0.6225816685 0)
(92.86033071 -0.42455143 0)
(92.86684052 -0.4739520651 0)
(92.9978693 -0.5464053977 0)
(93.03493503 -0.559853053 0)
(92.75459967 -0.2876990033 0)
(92.73497624 -0.3479862109 0)
(92.69431722 -0.1453096599 0)
(92.64910895 -0.2100332202 0)
(92.61051268 -0.07125059965 0)
(99.2152885 -1.016177997 0)
(99.37617551 -1.010512842 0)
(99.20921636 -0.9987268824 0)
(99.03038666 -1.004049623 0)
(97.73814925 -0.9920141406 0)
(97.91739386 -0.9861329598 0)
(97.73227562 -0.9747672185 0)
(97.5594397 -0.9798809374 0)
(96.42349543 -0.9631701802 0)
(96.57252512 -0.958474385 0)
(96.41578177 -0.9464339144 0)
(96.27440591 -0.9502639837 0)
(95.35361406 -0.9249307142 0)
(95.47119695 -0.9219045697 0)
(95.34346146 -0.9089753826 0)
(95.23300483 -0.9110981545 0)
(94.51569174 -0.8750232282 0)
(94.60355383 -0.8740940111 0)
(94.50253875 -0.860110663 0)
(94.42124641 -0.8600936937 0)
(93.952256 -0.8125040226 0)
(93.89208109 -0.8111393346 0)
(93.87493903 -0.7974979672 0)
(93.82039263 -0.7942580346 0)
(93.40470027 -0.7200700133 0)
(93.4790589 -0.7286325882 0)
(93.36249212 -0.6971503016 0)
(93.30383446 -0.6836991259 0)
(93.117948 -0.6196898756 0)
(93.15829129 -0.6345039167 0)
(93.06705746 -0.6001800814 0)
(93.03630527 -0.5803274551 0)
(92.74142758 -0.3976948591 0)
(92.75470934 -0.4469157902 0)
(92.8886351 -0.5128344688 0)
(92.92347735 -0.5212848974 0)
(92.62932217 -0.2696982564 0)
(92.61473637 -0.3279413042 0)
(92.56518765 -0.1363176476 0)
(92.52381819 -0.1982420992 0)
(92.48245603 -0.06723236669 0)
(99.1911285 -0.9534368587 -3.166928807e-36)
(99.35097408 -0.9500760319 0)
(99.18513793 -0.9406318264 -2.587140251e-36)
(99.00708324 -0.9436996463 0)
(97.71511648 -0.9299932857 0)
(97.89494728 -0.92628772 0)
(97.70952662 -0.9173283144 0)
(97.53588466 -0.920337747 0)
(96.39347934 -0.902957201 0)
(96.54378663 -0.900230498 0)
(96.38628474 -0.8906486411 0)
(96.24358967 -0.8925725727 0)
(95.31418044 -0.8674916227 0)
(95.43340233 -0.8662067576 0)
(95.30475752 -0.8557350786 0)
(95.19262312 -0.8561770175 0)
(94.46460016 -0.8212997882 0)
(94.55451464 -0.8218464651 0)
(94.45239287 -0.8102884383 0)
(94.36900817 -0.8088527628 0)
(93.88949047 -0.7646192151 0)
(93.82683427 -0.7619859051 0)
(93.81086977 -0.7519026672 0)