/*--------------------------------*- C++ -*----------------------------------*\
| =========                 |                                                 |
| \\      /  F ield         | OpenFOAM: The Open Source CFD Toolbox           |
|  \\    /   O peration     | Version:  v2012                                 |
|   \\  /    A nd           | Website:  www.openfoam.com                      |
|    \\/     M anipulation  |                                                 |
\*---------------------------------------------------------------------------*/
FoamFile
{
    version     2.0;
    format      ascii;
    class       surfaceScalarField;
    location    "2.53";
    object      phi;
}
// * * * * * * * * * * * * * * * * * * * * * * * * * * * * * * * * * * * * * //

dimensions      [0 3 -1 0 0 0 0];
oriented        oriented;


internalField   nonuniform List<scalar> 
6464
(
0.4582830809
0.002147433506
-0.002150452569
0.4583773602
0.002108092331
-0.00202677219
0.4584488394
0.001907932755
-0.001772412829
0.4584839647
0.001623448166
-0.001459249759
0.458486769
0.001307480725
-0.001157699203
0.458487826
0.0009848731976
-0.0009112773543
0.4584576406
0.0008036367205
-0.0006627515714
0.4584649623
0.0005477892586
-0.001668618255
0.9186694181
0.0001460774414
-0.0004968772607
-0.001043289026
0.9187246708
1.558641979e-05
0.9157911246
0.9138155864
-0.003773192925
-0.2290447833
0.2288898283
0.003928289856
-0.004317874526
-0.2292361226
0.2292306215
0.004323375656
-0.004060544728
-0.2293598283
0.2294631519
0.003957221159
-0.003510217831
-0.2294302915
0.2295995004
0.003341008992
-0.002827577575
-0.2294347765
0.2296181794
0.00264417472
-0.002170417116
-0.2293961085
0.2295593563
0.002007169329
-0.4588839228
-0.003057552057
0.4603239435
0.001617531342
-0.0003030594788
0.4609537658
-0.001387651596
-0.4592630547
-0.001577784037
0.9182265438
0.0004017362493
0.001618922091
-0.0009664664567
0.9181133532
0.0003652975214
0.9144593606
0.9141808839
-0.2279876788
0.01666142086
0.2276679263
-0.01633639769
-0.2244401135
0.01343667483
0.222906461
-0.01186780296
-0.2255719781
0.00535453296
0.2228907065
-0.002637289282
-0.2303622928
-0.005998653837
0.2301233959
0.006239259598
-0.2304055088
-0.005197237545
0.2307565032
0.004846243183
-0.003579217961
-0.2303004891
0.2309816926
0.002898014517
-0.462961288
-5.654502127e-05
0.4618113411
0.00120649192
-0.4600610441
-0.001328919533
0.460066447
0.001323516669
0.0002553118323
0.9200463856
-0.001204417387
-0.0008707362658
0.001669585986
0.916699079
0.00077689037
0.9153520562
0.9149577743
-0.2266496827
0.01730121721
0.2263264251
-0.01696434609
-0.2195963536
0.015716017
0.2191018865
-0.01514517616
-0.2164815421
0.0123150292
0.2151458778
-0.0108692049
-0.221103894
0.004813561449
0.2186650806
-0.002289106142
-0.2343914852
-0.001527135361
0.2373421225
-0.001419762584
-0.003794483945
-0.2318829006
0.2319122182
0.003765166414
-0.4618304513
-0.00571071586
0.4630762835
0.004464883676
-0.4608126398
-0.003225128786
0.4618271661
0.002210602505
0.003087587749
0.9200994328
-0.001664721921
-0.001475913027
0.00214118506
0.9176454817
0.0009884052629
0.916504836
0.9159461796
-0.2253443651
-0.00355234647
0.2249270896
0.003985612353
-0.2200273613
-0.002360235621
0.2214104459
0.001067754795
-0.2143724865
0.003505485034
0.2154355037
-0.004409355881
-0.2235817546
0.01458223073
0.217935388
-0.008766422609
-0.2236322499
0.0006494728312
0.2217882737
0.001288691204
-0.00550712582
-0.2333418786
0.2339073818
0.004941622665
-0.4647742891
-0.006617477765
0.4664023051
0.004989461802
-0.46278911
-0.003815162076
0.4637796624
0.002824609639
0.003838765817
0.9220618539
-0.003263182115
-0.002538004815
0.002109808314
0.9193744392
0.0009560444465
0.9176585999
0.916902224
-0.2234182868
-0.03548896158
0.2228054484
0.0361049711
-0.230478616
-0.02790234597
0.2334504511
0.0249820444
-0.2285040389
-0.008518094207
0.2290362075
0.008145376193
-0.2157517956
-0.004633608365
0.2173010312
0.003301136054
-0.2190970921
-0.001680829266
0.2191572841
0.001795368841
-0.003793374871
-0.2340757419
0.2334713116
0.004421448294
-0.467826684
-0.006761535551
0.4692550354
0.005333184095
-0.4643761603
-0.004271269907
0.4649230062
0.003724424025
0.003139614152
0.9243904275
-0.002624157595
-0.002844030153
0.00170732857
0.9208067248
0.000703008874
0.9186629196
0.9176052329
-0.02864171941
-0.1087734949
0.1081938195
0.02922139476
-0.02323258878
-0.2495110502
0.04409581017
-0.02363780597
0.1257228754
0.1265627595
-0.03002844714
-0.238279922
0.243245208
0.02516824599
-0.2245570177
-0.01429521488
0.2281329329
0.01094751189
-0.2218466158
-0.004743728391
0.2228963535
0.003916379451
-0.003084917243
-0.2310883208
0.230985201
0.003273483757
-0.4706712283
-0.00563556812
0.4715406201
0.004766176299
-0.465907572
-0.003591537521
0.4668690216
0.002630087969
0.001705334377
0.9260067088
-0.001525698776
-0.001795916891
0.0007664306756
0.9217456285
0.0002692921575
0.9191600581
0.9178745251
-0.03044461977
-0.1387176131
0.1415180305
0.02764420236
-0.03143664041
-0.2588166454
0.2633268939
0.0269820002
-0.2366104996
-0.01715907009
0.2393467244
0.01464275102
-0.2276845219
-0.008642373598
0.2295097025
0.007065205548
-0.002462545746
-0.232194918
0.2326775573
0.002104327938
-0.4727587396
-0.003184828127
0.4737352123
0.002208355452
-0.4676181616
-0.001541783699
0.4682244613
0.0009354840119
-0.0005558509769
0.9266838194
0.0002386357519
-0.0003598953443
-0.0006122021799
0.9218019797
-0.0003628818965
0.9189107378
0.9175116432
-0.01357176018
-0.1545814241
0.1551723104
0.01298087387
-0.0174319992
-0.2733331517
0.2750869353
0.01570990074
-0.2467307404
-0.0107349812
0.2485111434
0.009169617001
-0.2344414702
-0.004843217913
0.2358494815
0.003697495605
-0.001083923001
-0.2347762331
0.2354275245
0.0005750248238
-0.4749156586
0.0002349622838
0.4758212213
-0.001140524905
-0.4684940297
0.001513053057
0.4685991725
-0.001618195896
-0.003258472973
0.9259332493
0.002273850156
0.001735192842
-0.002282676501
0.9208261833
-0.001180740809
0.9178088021
0.9163309024
0.004289964062
-0.1529226811
0.1519658589
-0.003333141897
0.0001069187942
-0.2753966747
0.2742455837
0.001078468018
-0.251457543
-0.002110728363
0.2519058357
0.001881250404
-0.2394265022
-0.0003891166576
0.2403026189
-0.0002214638054
0.001763864115
-0.2373749564
0.2378656868
-0.002111366492
-0.4757038014
0.004909104349
0.4750783276
-0.004283630549
-0.4683184857
0.004028418653
0.4685307387
-0.004240671669
-0.006215717756
0.9237003194
0.004563896043
0.003884751692
-0.004076121417
0.9186865869
-0.002056479774
0.9157891605
0.9142744226
0.01402346972
-0.143506381
0.142169075
-0.01268616374
0.01285905645
-0.2683223334
0.265775218
-0.01025234503
-0.2516285501
0.005609983811
0.2514898133
-0.005244363506
-0.2421490327
0.004856801704
0.2424803539
-0.00492316939
0.005264397414
-0.2389755887
0.2391423306
-0.005303176028
-0.4740712828
0.009300895364
0.4727314299
-0.007961042447
-0.4685821255
0.006774690452
0.4675058398
-0.005698404752
-0.008938079991
0.9202305097
0.006442203371
0.005965686254
-0.005802161187
0.9155506681
-0.002852989302
0.9128399886
0.9114214333
0.01743952957
-0.1331183344
0.1318171393
-0.01613833454
0.01916949379
-0.2582570414
0.255910101
-0.01672203056
-0.2496510985
0.01196002118
0.2488899608
-0.01095119521
-0.242693121
0.009340690208
0.2424968665
-0.008890390229
0.00824982177
-0.2388131221
0.2384757172
-0.007812762418
-0.4711176542
0.01287562232
-0.01100770385
-0.4663484276
0.009380232266
-0.007976275866
-0.01134021756
0.006844444522
-0.007296047913
-0.003544444536
0.1577078138
0.01619599801
-0.1568014275
-0.008269783426
-0.00883260091
-0.1397208072
-0.03371177506
0.1429879625
0.1551179918
-0.002445787875
-0.1561541923
0.001925754764
0.001556233646
0.1582469734
-0.006789017339
-0.007321902458
0.1446301351
-0.01330263328
-0.1460429038
0.007427813801
0.007287588222
0.1540027409
0.002885011186
0.002520203801
0.1335683146
-0.01722005429
-0.1348497941
0.01850153384
0.01544941022
0.1432041946
0.01896199924
0.1320458449
-0.1054226394
0.1041104674
0.03081860031
-0.1362684157
-0.03427099184
-0.1228112971
-0.02481596535
0.1243946737
0.0422027185
0.009287077923
-0.04188733812
-0.009602458305
0.02492895944
-0.07077892666
-0.02710419692
0.07295416415
0.01531974213
-0.1537051682
0.2811221407
0.02182233586
-0.2785796542
-0.02436412829
-0.265724414
-0.03636855972
0.2706659398
0.04842592491
0.0008208374409
-0.04851680159
-0.0007299607648
-0.04523607095
0.003543814295
-0.002930613741
0.04462287039
-0.00162170792
-0.153746761
0.282333431
0.004075513519
-0.2832562247
-0.003152578491
-0.01904640445
0.2827367881
0.0390317004
-0.004240604783
-0.03938581399
0.004594718373
-0.0421129369
-0.001681898038
0.001229193467
0.04256564147
-0.01196484353
-0.1448441708
0.2731920532
-0.01017166623
-0.2761122862
0.01309713377
0.001667610005
0.2807732028
0.07029900779
-0.01101490901
-0.07079682705
0.01151272827
-0.07401320254
-0.01010953324
0.07354685696
0.005359293436
0.005216585388
0.008109705384
0.03074757197
-0.007823891011
-0.03103338635
0.06381923246
-0.01138335034
-0.06425132527
0.01181544316
-0.06696027192
-0.01161250459
0.01198477537
0.06658800114
0.004102223314
-0.04560375609
-0.003734538174
0.008914162974
-0.009128965569
0.0424175211
-0.1517274394
0.02377776119
0.1538363299
-0.0127060771
-0.01318057467
-0.08252148304
-0.008523186077
0.08325114459
0.0167076875
0.0440876433
0.004266262587
-0.04425168257
-0.001499382333
-0.0416453224
0.001031767825
0.0001658807328
-2.00083803e-05
0.04828005256
-0.07870011042
0.002091596386
-0.002052162613
0.07866067665
-0.04700074743
0.04681382243
0.0003528057316
0.0415143306
-0.001735531774
-0.04127818116
0.04376478116
0.003866676434
0.000828989415
-0.04700889941
0.002803066023
-0.07883459682
-0.002668579621
-0.009920279854
-0.07450925183
0.005228306839
0.005188022303
-0.004109425591
0.004288923649
0.03885220234
-0.1502106367
-0.0101777424
0.1488267163
0.0058985362
0.005663126688
-0.07764317524
0.00409461984
0.07712272018
-0.007683590366
0.07380046788
-0.009462746763
-0.07425800097
0.04173458691
-0.001902154348
0.004083262637
-0.007412896674
-0.0393990325
-0.03915511349
-0.008957297153
-0.151476873
0.005230176979
0.004993356433
-0.01152542865
-0.06741426247
0.0119794192
-0.01124952167
0.0116438115
0.06990471796
-0.02934698539
-0.007442107197
0.006994919091
-0.0296913043
0.008454024296
0.01162967607
-0.007428832672
0.0307915198
0.01300610797
-0.04376108914
-3.653862753e-05
0.01954861411
-0.03587248952
-0.02157001726
0.03789389267
0.04536607937
-0.007704947587
-0.03749050086
-0.0001706309217
-0.01600553864
-0.13433285
0.2605218839
-0.01812662678
-0.2637504451
0.02138946118
0.01592949308
0.2701312412
0.03867058507
-0.007404791681
-0.03106825557
-0.0001975378141
0.06491134463
-0.01324489176
-0.06549986152
0.006948979084
0.006884429568
-0.03337144186
-0.006632198716
0.006724636933
0.03327900365
-0.07076285822
0.07253119687
0.0231606208
-0.009573443982
0.01787496717
-0.08153592831
0.02598551495
-0.149150015
-0.01409910944
-0.0144638299
-0.006678949668
-0.0335163936
0.006823901406
-0.03549868797
-0.006854632127
0.007307272601
0.0350460475
-0.1390221448
-0.01637540007
0.01778527747
0.1376122674
-0.07033626686
0.06986322161
-0.01077647643
0.06700094693
-0.01109658303
-0.06742979255
0.07336287198
-0.009671937336
-0.01063760982
-0.07071356605
-0.01591731076
-0.1404355219
0.01733068789
0.02009737604
-0.05224635051
-0.01882013641
0.05096911086
0.02489112738
-0.06871017958
-0.02695987447
0.03762045773
-0.1221479575
-0.01956273574
-0.02081276742
0.0618727432
0.06303025969
-0.05591089199
0.05493324525
0.02107502278
0.03133463976
-0.000543119962
-0.07892154401
0.02243140908
0.08073212866
-0.0119967296
-0.01224526415
-0.04200006549
0.05731166734
0.0160230379
-0.03567024224
0.03729587647
0.01792297987
0.01483229758
-0.0438262551
0.02341596719
-0.07705052366
-0.01253369276
-0.01275329478
-0.04077604405
0.002575896535
-0.002565249372
0.04076539689
0.002261864268
-0.04108498794
-0.001952920375
-0.03968824353
-0.003216187291
0.003128747322
0.0397756835
-0.003451138529
-0.03999347934
0.003756374344
-0.006171692693
0.03643062213
-0.03548166911
0.00522273968
-0.009693583388
0.02203846648
0.03302119627
-0.07212957849
-0.01074022078
0.01112945265
0.07174034662
-0.03831503841
0.03647240078
-0.007850945757
0.03640847727
-0.006378300837
-0.03620186913
-0.03411687112
0.03815396519
-0.003807517493
-0.0002295765735
-0.006887557831
-0.03913242816
-0.01058557245
-0.07255965175
0.005541959561
0.005473686156
0.06295245395
-0.01293660958
-0.06345329208
0.01343744771
-0.01320581283
0.06436903158
0.006882814553
0.006865311328
0.01890077421
0.02877852106
-0.009008710209
-0.04351236612
0.006203151415
-0.005981886597
0.0432911013
0.00662150983
-0.04354507904
-0.006588796907
-0.03939908316
-0.0009658557417
0.0008556693809
0.03950926952
-0.001319028285
-0.03957835409
0.001498299216
0.04023860858
-0.001038076549
-0.04051956031
0.08078199632
-0.0003231064271
-0.0810706991
0.0006118092129
-0.08177614051
0.001625609167
-0.001433155715
0.08158368706
0.07956586224
-0.002580461194
-0.07989136835
0.002905967309
-0.0009200208138
0.001206302874
0.08049571425
0.04022423021
-0.0009514773709
0.04149974668
0.002406857068
-0.04164473948
0.0821343209
0.005286267026
-0.0821631136
-0.005257474324
-0.08200517327
0.007688114037
-0.007792780827
0.08210984006
0.002321865215
-0.08193207524
-0.002165930481
0.004525687156
-0.004485522168
0.08209415591
0.04162203943
0.002453603781
-0.03808248257
-0.004639997751
0.00482075386
0.03790172646
-0.00187366565
-0.0321712626
-7.194287303e-05
-0.004667380662
-0.03830444681
0.004889344897
0.006163878397
0.036570066
-0.006325467118
0.006948475201
0.03497784431
-0.006636377813
-0.0352899417
0.06862868924
-0.01140872998
-0.0690544743
0.01183451505
-0.03599508035
0.00744486758
0.005492210866
0.03710228966
0.01913116106
-0.0002303868432
-0.01284725207
0.01320454137
0.03589547475
-0.03862631813
0.002730843368
0.03447685886
-0.007001285056
-0.03454204872
0.007066474914
-0.0321019744
-0.006965563115
0.006625808207
0.03244172931
-0.004699908018
-0.0119833646
0.01254420833
0.004139064318
-0.007675082319
-0.03305156315
0.008624671062
-0.03024439389
-0.007683045051
0.006409108849
0.03151833009
0.02639211755
-0.04783503155
-0.02467390075
0.02267006318
0.02344675158
0.01893035768
-0.03410296452
-0.02069988269
0.02762083089
-0.05815412572
-0.02930377747
0.05983707231
-0.05233320156
0.02901190842
0.02411682234
0.02559658837
-0.04563581396
0.003870213845
-0.005778310648
0.04754391076
-0.04096126474
0.04022272121
0.0008865743185
-0.000148030792
0.03913164888
0.0005994142046
-0.03937572055
-0.0003553425402
0.04264768179
0.002667293553
-0.04327069768
-0.002044277659
-0.04044523255
-0.003685010062
0.003827108693
0.04030313392
-0.04245482168
0.003514113212
0.04283990832
-0.003899199855
0.03771588083
0.006926556163
-0.005986617368
-0.03865581962
-0.0373345203
0.03745869546
3.068642904e-07
-0.0001244820279
0.0430932269
-0.00353644851
-0.03933629877
-0.000220479619
0.04275275827
-0.002966775416
-0.04308305166
0.003297068805
-0.04385631389
0.00599080303
-0.006913987798
0.04477949866
-0.0397892782
-0.02780156618
0.05614778211
0.01144306227
0.001855411576
-0.04262249062
-0.0001941856899
0.04280815749
0.006548811796
-0.04273545946
0.08093592821
0.01200103438
-0.08051241838
-0.01242454421
-0.07872381612
0.01454573531
-0.01522564247
0.07940372327
0.008533094433
-0.08183934809
-0.00869891961
0.01111764757
-0.01148150681
0.08129978746
0.04278227494
0.006229033968
-0.04040139293
-0.001125395656
0.0007415912101
0.04078519738
-0.03688216891
0.03697052108
0.0001679743278
-0.0002563264999
0.0001338074159
-0.03719229052
-0.0002760371888
0.0449016912
-0.002717129226
-0.04693521808
0.004750656102
0.003665006176
0.03838719173
-0.004336317075
0.002567962853
0.04161116767
-0.003502982493
-0.04067614803
0.03891307248
-0.004235634312
-0.03887112396
0.0041936858
0.0756606692
0.004557248671
-0.008595176147
-0.07629012239
-0.007271786907
0.07475358827
-0.07516901446
0.007687213095
-0.07640873031
-0.006386027816
0.006795495645
0.07599926248
0.03976046493
-0.00319516632
-0.04001643713
0.07804537004
-0.00451162149
-0.07847148741
0.004937738855
-0.003099649704
0.00343589528
0.07922961666
-0.006025806915
-0.07683635474
0.006453431343
-0.004923189427
0.005310438684
0.07765812079
0.039719019
-0.003174741363
-0.01145088181
0.01181522405
0.068264347
0.0347135337
-0.006590321516
0.06670407298
0.006673363841
-0.01287898198
-0.06717740451
-0.03795522454
-0.009442977415
0.01901848815
0.0283797138
-0.04133094515
0.0191497653
-0.01957838156
0.04175956141
-0.03159791009
0.04139088505
0.02610249979
0.01942913175
-0.04053954769
-0.02022052921
-0.02894772467
-0.002281297503
0.03141106014
-0.0001820379713
-0.006141918417
-0.02258220021
-0.00022360604
0.03352709059
-0.007311028317
-0.03369821537
0.007482153097
-0.007497371362
0.008044396962
0.03392983327
0.01964068937
-0.01937759856
-0.0002630908083
0.01409028063
-0.01689312187
0.002575625602
-0.01341622861
0.01272694872
0.002160516629
0.00663736052
-0.03150744016
0.03280717467
-0.007937095028
0.009305922982
0.03328704189
-0.008166107698
-0.03442685718
0.03416775129
-0.00677577099
-0.03448832362
0.007096343316
-0.04116508717
0.02022661626
-0.02106720102
0.0278746224
-0.0001700608572
0.03141184648
-0.03079603692
-0.0006158095519
0.04553334314
0.01273634392
-0.04446444203
-0.01380524503
-0.04209823002
0.01351539407
-0.01429798562
0.04288082157
0.04721014297
0.01171119321
-0.04522253808
-0.0136987981
0.01192746966
-0.01222171851
0.04582759198
0.01373573484
-0.04142112327
-0.01441284159
-0.03884376595
0.01461505959
-0.01547832624
0.03970703261
-0.04158209062
0.04282740755
0.01790444836
-0.03774222394
0.03687571096
0.001181542395
-0.0003150294232
0.02630444645
-0.02621688033
-8.75661103e-05
0.004397193464
-0.04323591488
-0.006797092535
0.002482427255
-0.001900124068
0.0420653786
0.03882929047
0.0005293408844
-0.0002269824687
0.0006469550649
-0.03821816706
-0.0001710119415
0.000420694735
-0.03767863186
0.03907146904
-0.001813531914
0.001062437791
-0.002189588201
-0.04132767127
-0.003441083643
-0.04029867182
0.00329452291
0.03770045631
-0.03628706759
-0.0003509509223
-0.03426124704
0.03523805875
-0.0005561169759
0.03565187999
-0.03524169397
0.00651637014
0.04160541641
-0.0003908468892
-0.002162441649
-0.03196498341
-0.0001338219804
-0.003519701313
0.004391011724
0.04188144786
0.05096386178
-0.007657562291
-0.0002130725856
-0.003577643392
-0.03626343012
-0.03770873723
-0.007027018936
0.007602429328
0.03713332684
-0.005466086382
-0.03627381492
0.004031164068
0.0377282805
-0.006075885205
-0.03711848168
0.03602189539
-0.005984421712
-0.03612474416
0.006087270481
-0.0370098871
-0.005857026451
0.006286576216
0.03658033734
0.03399495566
-0.006918504061
-0.03321837001
0.03710524695
-0.005857568364
-0.03745223304
0.006204554451
-0.03819962142
-0.005354759087
0.00521336154
0.03834101897
-0.005808498537
-0.03724636458
0.006044976012
-0.0056584473
0.005653530832
0.03711016342
0.03606430521
-0.004350647053
0.007383190852
0.03238426161
-0.007600373934
-0.03216707853
0.03247174249
-0.007119508529
-0.03272122633
0.007368992372
-0.007353864121
0.007704747582
0.03317620713
-0.002252686118
-0.04618524444
0.04430555759
0.004132372963
-0.008286841595
0.008736615126
-0.04023905173
0.006094803109
-0.04323546533
-0.006715651663
0.02775252895
-0.03579658374
-0.0002427868066
-0.04230535517
0.0402093663
-0.0001566972444
-4.903722934e-05
0.04119549873
0.006180000688
-0.04387013951
-0.003505359905
0.01007791109
-0.01086964489
0.04800187676
0.005076478146
-0.04718064971
-0.0002011836117
0.009168082705
-0.008235101004
0.04026251703
-0.04264074868
0.007722642653
-0.00799903919
0.04291714521
-0.042899445
0.04325680366
0.008810724045
0.005958978458
-0.04706774475
-0.03628371958
0.03658592253
1.716011603e-05
-0.0003193630667
0.0002399116271
-0.03670463457
-0.0004174459622
-0.001006800348
-0.04005486708
0.0006602745016
-0.003214256654
0.005751247867
0.04236469999
0.02554855749
-0.02523298627
-0.0003155712179
-0.0005676481199
-0.03565167226
-6.439919355e-05
0.03929614783
-0.005882694854
-0.04002093727
0.006607484293
-0.03793001298
-0.005152364903
0.004363653516
0.03871872437
-0.005186395396
-0.03778853801
0.004775311983
-0.006266499644
0.007415743205
0.03814690427
0.02308190896
-0.02269906986
-0.0003828391049
0.04168312437
-0.04031277054
0.001197609021
0.001971449717
0.03734543645
-0.006569137769
-0.03861978661
0.007258911391
-0.004267068581
0.00365300498
0.04229718797
-0.02078526648
-0.0002819345386
-0.0357794934
-0.006541975995
0.006289367251
0.03603210215
-0.02740321443
0.03054059074
-0.003020596238
-0.0001167800696
-0.009632866306
-0.04265984034
-0.00602068606
-0.02123064337
-0.0001518850039
-0.006936805741
-0.03606500699
0.007222319324
-0.03034976583
-0.0002222678551
0.02791196246
-0.1358109752
0.03229448491
-0.2599010615
-0.03809801349
-0.2421869902
-0.035481415
0.2477041832
-0.0253619555
0.02828524651
-0.002697747361
-0.0002255436515
-0.01975772144
-0.005425485252
-0.0001787488
0.02222966594
0.2575076605
-0.01945315725
-0.000304564189
0.06662956854
-0.0112411262
-0.02131943488
-0.1294606831
0.01138070171
-0.01737539004
-0.1294543427
0.0186400979
0.01793158274
-0.02017455681
-0.01698808539
0.01923105947
-0.01986480815
-0.01016760966
0.01810152604
0.01193089178
-0.007087085466
0.008070768188
-0.0129670473
0.02488793544
-0.02939699728
-0.03411725631
0.01963567228
-0.02688926813
-0.02045257858
0.02770617444
-0.0227876764
0.0213797452
0.01933951396
-0.1283985574
0.02978184788
-0.03185947166
0.1304761812
-0.1250494955
0.1266870437
0.03598290953
0.02308225934
-0.06895399018
0.01018225545
-0.04095111286
-0.01048024368
0.04124910109
-0.04404796168
0.04452858008
0.01144685126
0.04628044817
0.01066606905
-0.04523532402
0.03133058774
-0.007011598142
-0.03154628066
0.007227291065
-0.007062318883
0.007457081821
0.03207697955
0.03146385008
-0.008522565884
0.006607330332
0.06622175023
-0.0127572063
0.0649708252
-0.01276527735
-0.06545043961
0.06538659172
-0.01155110853
-0.06581110312
0.01197561994
0.04670854417
0.009649815087
0.007511375479
-0.04423081979
0.007949364475
-0.0425557408
-0.008034372355
-0.02641988392
0.005495689641
0.007941627271
-0.02940363109
-0.008229300474
0.03564060573
-0.02743048935
-0.0002684891073
0.01767474611
-0.006933085804
0.007062454484
-0.05810249325
0.01495618129
-0.0006147771878
-0.03344070908
-0.003815148666
-0.0002346431105
-0.0328136924
0.03295456207
-0.007545661342
0.004827946361
-0.03101324984
-0.006628388919
-0.02598696649
-0.0002533427212
-0.0333010499
0.03331067093
-0.006975184146
0.03408278883
-0.006932735534
-0.03415133835
0.03299060704
-0.006608018671
-0.03309087754
0.006708289173
0.0153555726
-0.07794363274
-0.01613575599
-0.07508277639
0.01749599371
-0.01854357573
0.07613035842
-0.07766629702
0.07914796004
0.02094974607
-0.006686536853
0.00699933413
0.03385495401
0.0333082206
-0.007704223756
-0.007271793062
-0.03370433915
-0.06416830211
0.0231898075
-0.02420405706
0.06518255168
-0.06060217987
0.06151081694
0.02671219382
0.01758251296
-0.03432239753
0.01410293639
0.04376995394
-0.0005612229906
-0.04441712579
0.04412439841
0.01439566377
-0.0434769695
0.01508288161
-0.02953013913
0.02969321869
-0.0001630795555
0.009767397917
-0.03908609669
-0.0002114403641
0.007184961945
-0.03553192157
-0.007134709486
0.03329661665
-0.03221866176
0.006107007045
0.002986957933
0.0355323984
0.02217494075
-0.0001364742671
-0.006402042593
0.02863812413
-6.114078556e-05
0.03403276169
-0.007413608012
-0.006038740919
0.03532254521
-0.03544851693
0.006164712637
-0.005937900522
0.006137924131
0.03582187178
0.03733980282
-0.00663854125
-0.007558172487
0.04605817495
-0.0003460372734
-0.03934456806
0.03839219922
-0.006605803648
-0.03839615045
-0.004755935099
-0.007436189827
0.005905749118
0.03030896177
-0.03211797043
0.03241042919
-0.007728648591
-0.00817211857
-0.03311462834
0.03514644254
-0.00180201247
-0.0002298017291
-0.03046189083
-0.002340445648
-0.000312291869
-0.03655218991
-0.003717626192
0.002383649619
-0.03455885525
-0.004376984281
-0.02963921215
-0.0001484008252
-0.02360906452
-0.006566963278
-0.0002858630262
-0.02340613145
-0.0002029330747
-0.004283269448
0.004427320531
0.03876902139
0.04182040026
-0.004476301165
0.03885202416
-0.005858329946
-0.03956283198
0.0253469193
-0.0003100091251
-0.03238074822
0.03982855852
-0.00720915019
-0.0002386601138
-0.00378979617
-0.0003057055403
0.03028550104
-0.02908517808
-0.00496086124
0.03254861491
0.03364629679
-0.006165428717
0.009728054844
-0.001900678303
0.004716831816
-0.009190144181
0.0133292085
0.003595331269
0.00613272358
0.007420197748
-0.03314955479
-0.007322206108
0.03991366427
-0.03220858188
-0.0002848846469
0.02705264313
-0.0204863071
-0.0001572271761
-0.004996947587
-0.0001589911629
-0.006628172281
-0.03086110418
0.01680543594
-0.0175121259
0.03156779414
-0.02902678717
0.02979554683
0.01886691262
0.02428158558
-0.03099156023
-0.04604876283
0.04227183684
0.003958763719
-0.0001818377325
-0.05394610428
0.008222497112
-0.0003251556582
-0.04103882328
0.04067084172
0.0004471594413
-7.917787595e-05
0.001411194731
-0.0001781811725
0.0006394948117
0.0397889752
-0.0002057487975
-0.0451370518
0.04422523484
0.001551311768
-0.04624731482
0.001996837338
-0.04341823287
0.04275180717
0.001265839901
-0.0005394675773
0.001346469554
-0.0001262129286
-9.010814647e-05
0.03800245555
-0.0004536519413
-0.04276340043
0.04359553635
-0.0009222440624
-0.04217561719
-0.000587476377
-0.04445022183
0.04451073129
-0.003596957975
0.0009694275957
-0.001824113076
-0.0003644156244
0.009154878115
0.04701049518
-1.759118514e-05
-0.04602934309
0.04777271497
0.007411506232
-0.04314356488
0.008557284065
-0.04741827381
0.003026370573
-0.00463853199
0.004992973149
-0.0002505274323
9.310990693e-05
0.03697221839
-9.480722077e-05
-0.04069688158
0.04109429187
-0.0003043003886
-0.040286384
-0.0002425232509
-0.04163364966
-0.0004081601101
-0.0002304298448
-0.0003089279457
-0.0004505019773
-0.04076761384
0.04189004446
-0.0007527914298
-0.0003696391876
2.499152763e-05
-0.0001217636515
-0.04530104942
0.05288720079
-0.007273770207
-0.0003123811632
-0.003263546146
-0.0001474588181
-0.01800395135
-0.0002171816818
0.01941155208
-0.0003930639223
-0.00772385523
-0.000295082045
-0.008747772522
-0.0003292052407
0.03456627532
-0.05367750357
-0.0004671533077
0.03547890843
-0.0009126331111
0.01913597658
0.0412728016
0.0001180834458
-0.03633349041
0.05373614228
0.02387014972
0.02393732681
-0.03416831743
-0.03416653634
0.03411717004
4.936628632e-05
0.01983316054
-0.0002635545971
-0.001774768905
-0.0002548800345
-0.02218436501
-0.0003978351943
-0.006098239631
-0.0002480374872
-0.02956934691
-0.007542142566
-0.00911838695
-0.01293574662
-0.03320703948
-0.007702172813
-0.0002558748729
-0.0002596908429
-0.005151897547
-0.0001805195317
-0.04278763271
0.05867335027
0.01552612891
-0.01311389929
0.01445066499
-0.0001399822713
-0.01153093044
-0.04515895091
0.01146734328
0.04246670395
-0.04423023648
0.05846112454
-0.04687977418
0.008159840247
-0.0003661627525
0.01230335615
-0.0005097800623
0.002866781478
0.03417895569
-0.0001700262041
-0.03915404949
0.03796548163
0.004055349337
-0.04012796708
0.00215545999
-0.03809205407
0.01045039624
-0.008169641971
0.008043069528
-0.0002075666116
0.0004834325956
0.03850494949
-0.0001590916179
-0.04210777561
0.04147771688
0.001113491325
0.001173372444
-0.04086681978
0.001385807763
-0.0005432245888
0.001154121685
-0.0002564421597
-0.00126305988
0.0001160706072
0.04021845832
-0.03950598988
-0.002275777336
0.04051870733
-0.03858999737
-0.002729524425
-0.035735194
-0.0002936856981
-0.0002581878943
-0.0003810646404
0.02384052972
-0.04950654322
-0.00957568047
0.02409069408
-0.0002501643602
0.03104419694
-0.000437132723
-0.007642518192
-0.0002586086211
-0.02485279671
-0.00699757791
-0.0001146087902
-0.02449026662
-0.0003625300948
-0.009668923485
0.03614251865
-0.04260497666
0.03962913124
-0.006693078059
-0.005751807661
-0.03823337265
-0.003934268106
0.007118489386
-0.005722730802
0.04420814776
-0.0363431242
-0.0002625942249
-0.00940346155
0.02139294755
-0.007802056282
0.0217020507
-0.0003091031445
-0.02799168319
0.03117809807
-0.0001994569468
-0.0001826254526
0.003029233407
-0.005270286632
0.03195356043
-0.0002862028961
-0.0003583997052
-0.03648125389
-0.006616532859
0.03617928269
0.009344560082
-0.007433614751
0.003805105959
0.04218267114
-0.001682219513
-0.04421008221
0.04284818148
0.005167006696
0.005362031482
-0.04543974073
-0.04206825105
0.007661301297
-0.005250417192
0.006030347615
-0.003306797784
-0.03853421269
-0.0005691688269
-7.065907594e-06
-0.003084907845
-0.04645866137
0.005673429697
0.03968611695
-0.04238198708
-0.0003890377167
0.03636150475
-0.00018074771
0.0478413179
-0.000249838253
0.005793904983
-0.0003345741559
0.007337120377
-0.05679309485
0.009907175012
-0.0002947298671
0.02819609098
-6.968723645e-05
0.02856670232
-0.0003706113372
0.0120361245
0.0001343006205
0.03671742907
-0.0002658071646
-0.03914525794
0.03953810499
-0.0002585464295
-0.03861927212
-0.0005088257028
-0.03985772443
-0.0001887479382
-0.0001015537535
-0.0002180656922
-8.875925237e-05
-0.007431734129
0.03318761312
-0.0002073215053
-0.03720215547
0.03690680482
-0.007136383482
-0.009547940945
-0.03788220822
-0.001304712018
0.00221879648
-0.003194199877
-0.0002452626627
-0.03917786187
0.04704098032
-0.007769234334
-9.388411067e-05
-0.003877765176
-0.0001536541541
-0.006355862908
-0.0002014402823
-0.03385225766
-0.007062460499
-0.009510347196
0.0005236813053
-0.03890362131
-0.001932830541
0.03507981902
-0.03434592692
-0.0002102107991
0.03661359889
-0.0003361708527
0.03340769074
-0.0003920440797
-0.0006456854857
-0.0002925506881
-0.002203870339
0.009860673801
-0.04099826115
-0.007482199258
0.03500834505
-0.04855380269
0.03570029316
0.04056740398
-0.0003008001071
-0.007774451926
-0.0002119467873
-0.0064755251
-0.004073078657
0.03482569103
-0.000212021636
-0.03506650662
0.03659400248
-0.005600574517
-0.0328009311
-0.005286171756
-0.03626121131
-0.008215226215
0.03484357122
0.007571424325
-0.007238633155
-0.0002627249828
-0.03550281566
0.04328715539
-0.007558404369
-0.0002259353581
-0.004024973239
-0.0002997443491
-0.03165711166
-0.007164505501