/*--------------------------------*- C++ -*----------------------------------*\
| =========                 |                                                 |
| \\      /  F ield         | OpenFOAM: The Open Source CFD Toolbox           |
|  \\    /   O peration     | Version:  v2012                                 |
|   \\  /    A nd           | Website:  www.openfoam.com                      |
|    \\/     M anipulation  |                                                 |
\*---------------------------------------------------------------------------*/
FoamFile
{
    version     2.0;
    format      ascii;
    class       volScalarField;
    location    "2";
    object      k;
}
// * * * * * * * * * * * * * * * * * * * * * * * * * * * * * * * * * * * * * //

dimensions      [0 2 -2 0 0 0 0];


internalField   nonuniform List<scalar> 
3019
(
43.37883831
54.35704224
47.35661271
42.68989462
39.79178599
38.08415021
36.89803016
36.1756929
35.47903021
35.17967901
35.03606984
34.97887665
54.32295302
54.3308781
47.48860469
42.7680744
39.88959559
38.1793228
36.94255756
36.17888257
35.43340983
35.10664744
34.94519678
34.88047984
55.28244696
53.61979084
47.15912527
42.65925986
39.89223563
38.23458195
36.96506551
36.17100939
35.38790523
35.03928347
34.86273238
34.79167392
53.67824538
52.04560752
46.37882627
42.3579255
39.82840236
38.2421923
36.96142283
36.14414103
35.33481519
34.97065239
34.78337323
34.70718171
52.75422479
50.02585118
45.27936974
41.94410398
39.75027114
38.21637294
36.93096599
36.09740079
35.27321017
34.89939346
34.70331104
34.62292711
51.40229068
48.10157
44.28039527
41.57762768
39.62799964
38.14067285
36.8592518
36.02509251
35.19646868
34.81784465
34.61795626
34.5345497
50.01754215
46.78408792
43.67238686
41.29200827
39.44729694
38.01587951
36.75720319
35.93180678
35.10675417
34.72739992
34.52571731
34.44073355
48.84382288
46.07070571
43.22411591
40.98916519
39.23556696
37.85905665
36.63201988
35.82037174
35.00384066
34.62630789
34.424387
34.33853316
47.7858905
45.42446842
42.79829512
40.68439209
39.00886449
37.68225909
36.4895677
35.69407665
34.89030737
34.5169606
34.31600375
34.2298586
46.80692411
44.82069459
42.39599112
40.38580373
38.7765306
37.4939256
36.33455181
35.55622935
34.76631296
34.39777866
34.19824996
34.11217691
45.89420213
44.25229281
42.01453236
40.09701423
38.54410172
37.2997902
36.17095555
35.40976947
34.63586657
34.27343775
34.07582677
33.9900938
45.03734041
43.71405873
41.6507894
39.81883193
38.31475277
37.10356309
36.00200151
35.25720426
34.4977055
34.14059609
33.94472233
33.859418
44.22796917
43.20175695
41.3023587
39.55076852
38.09013086
36.90764175
35.83011547
35.10049058
34.35732577
34.00667847
33.81279745
33.72801088
43.46236822
42.71180636
40.96731269
39.29193156
37.87089261
36.71348505
35.65701631
34.94124
34.21045805
33.86438635
33.67197396
33.58763992
42.7354487
42.24128966
40.64406623
39.04144881
37.65719235
36.521966
35.48393127
34.78057997
34.06574541
33.72601876
33.53537421
33.45150883
42.03984586
41.78773893
40.33120371
38.79848152
37.44889329
36.33354887
35.311684
34.61952045
33.91344233
33.57696177
33.3873539
33.30382208
41.37052435
41.34917952
40.0275244
38.56228826
37.24575497
36.14847888
35.14084826
34.45857294
33.76896737
33.43879124
33.25067032
33.1674726
40.72430371
40.9239289
39.73196567
38.33217585
37.04746283
35.96683832
34.97180807
34.29847161
33.61212375
33.28357127
33.09608962
33.01307067
40.09995819
40.51063938
39.44362032
38.10752268
36.85368432
35.78862763
34.80483582
34.13927642
33.47257427
33.15048366
32.96418722
32.88135472
39.49577097
40.10823031
39.16174859
37.88779767
36.66409883
35.61376834
34.64013108
33.98176632
33.30915982
32.98713483
32.80123549
32.7184356
38.91089476
39.7157879
38.8857106
37.67252033
36.47838698
35.44213371
34.47792242
33.82557864
33.18127942
32.86552516
32.68041229
32.59767563
38.34544162
39.33275918
38.61502831
37.46131727
36.29630273
35.27368763
34.31871039
33.67223728
33.00441719
32.68862461
32.50390499
32.42107686
37.79961903
38.95872596
38.34936217
37.25387715
36.11761556
35.10827762
34.16390778
33.52183057
32.90024449
32.58753967
32.40308701
32.32020394
37.27780394
38.59693194
38.08985913
37.05054943
35.94245654
34.94596099
34.01798158
33.38040242
32.67222917
32.36034281
32.1762082
32.09308718
39.97339767
42.47357126
55.79957916
48.87216148
40.19178149
53.79500786
56.25677257
55.82327788
51.43403029
49.29376858
58.16829496
45.32642362
44.63211825
49.12127112
58.45840107
58.26705042
39.30572632
41.60589479
39.36037302
39.30053409
53.41458561
42.3263361
55.73332655
55.55314544
56.15930636
55.17220758
53.93666396
39.42097436
58.58555641
58.51822518
49.79570496
49.58698992
75.31724045
40.66731213
40.75044532
47.41746663
58.87506131
46.1239645
39.25304256
61.53814548
75.19569047
46.52030875
58.15430808
82.11308183
40.99348934
44.47255536
39.63960688
40.46827868
74.05718047
78.23591163
40.13722289
74.89495346
65.70364875
54.982923
48.90839662
39.37132561
44.44013695
40.9462501
53.35580204
42.48689974
39.44281451
43.86886349
78.79416319
82.11224574
83.646323
71.39422897
80.5804299
39.65266119
39.63863885
71.95391921
64.83028687
73.31459989
68.52914818
78.64555733
78.20058061
76.54617101
49.46358018
69.27156152
62.28449717
76.73263927
78.74402289
53.87738033
59.26133734
64.8759312
80.69427652
67.97291197
51.22047517
54.69482527
73.57748798
54.52266863
58.17039912
46.86547614
50.76693371
75.48158492
47.32340418
43.57112232
42.60331354
40.34090291
39.75420113
38.39635777
46.01707442
56.40396058
55.59563199
54.40344316
49.04815284
48.96055231
47.47681599
43.72684538
43.65653259
42.76174424
40.47438087
40.3809804
39.87868948
38.50840646
38.43034014
55.03306326
58.24409839
58.56357172
53.89135096
48.78833787
49.04784707
47.27470312
43.64917636
43.73845021
42.70082316
40.46891919
40.47410097
39.89948043
38.57713234
38.52974812
48.6838597
48.00472565
53.93420974
53.95622709
55.22381696
52.49749627
47.960047
48.64402653
46.62200071
43.32279909
43.59397331
42.449297
40.38221397
40.45678256
39.84897441
38.59164243
38.58348744
51.05771778
49.35178314
53.01575494
51.83396186
53.462269
50.54517146
46.6683085
47.66122314
45.55954902
42.80110683
43.2061288
42.05227359
40.24350662
40.3479391
39.76802696
38.56991521
38.58955926
51.33880728
51.34170349
51.75131316
49.63710495
51.26865356
48.54205706
45.39165147
46.33068956
44.50203859
42.26686124
42.65794695
41.65264401
40.10952962
40.21258672
39.66545346
38.50166611
38.55912738
50.3067336
51.13546603
50.35182301
47.95836402
49.14855945
47.03961119
44.5051967
45.12153668
43.78822645
41.91320333
42.16193588
41.3657925
39.91975832
40.06692554
39.49621912
38.3768206
38.47467578
49.12274398
50.00209727
49.12252596
47.04437658
47.6614444
46.2402273
43.99595434
44.37148563
43.33425261
41.58114285
41.83091141
41.0655094
39.69462359
39.86583423
39.29038516
38.21601923
38.33925407
48.01059712
48.83841534
48.04239743
46.30511725
46.85465905
45.58168363
43.52166434
43.87454749
42.90249139
41.24936919
41.49771792
40.76022754
39.45345636
39.63530049
39.06634919
38.03325371
38.17193574
46.96325142
47.74284397
47.04499903
45.61389687
46.12805773
44.96808919
43.07585015
43.40768718
42.49447889
40.92653468
41.16761349
40.45961166
39.20711183
39.39205318
38.83478929
37.83787147
37.98531679
45.97577303
46.7110158
46.11677253
44.96474306
45.44788315
44.39137901
42.65434881
42.96835952
42.10812429
40.61611983
40.84771341
40.1682152
38.96175469
39.14550887
38.60201159
37.63623928
37.78785936
45.04163891
45.73749777
45.24679993
44.35206727
44.80836041
43.84602914
42.25336215
42.5522992
41.74020375
40.31840684
40.54052879
39.88739617
38.72071786
38.90100432
38.37168828
37.43267073
37.58541447
44.15456596
44.81568915
44.42627324
43.77083539
44.20399067
43.32760772
41.87010515
42.15597748
41.38814199
40.03237629
40.24585129
39.61688261
38.48556159
38.66134375
38.1457948
37.22987111
37.38183485
43.30798974
43.93950014
43.64972555
43.21665915
43.62990499
42.83236306
41.50230721
41.77678323
41.04990711
39.7567662
39.96254151
39.3558222
38.25675894
38.42775974
37.92518088
37.02940993
37.17950602
42.49616852
43.10180475
42.91403356
42.6859165
43.08190122
42.35723908
41.14808179
41.41254399
40.72385152
39.4904687
39.68935736
39.10333277
38.03428071
38.20055331
37.71010212
36.83216182
36.97978557
41.71742892
42.29845978
42.21110387
42.17560903
42.55652041
41.89966028
40.80576645
41.06144194
40.40852075
39.23248467
39.42522677
38.85856538
37.81784221
37.97961653
37.50047755
36.63854796
36.78341729
40.96814469
41.52747925
41.53569258
41.683327
42.05091307
41.45751129
40.47392519
40.72186324
40.10264402
38.98192101
39.16917171
38.6207405
37.60706193
37.76462525
37.29607223
36.44873193
36.59073912
40.24571116
40.78507017
40.88372449
41.20704366
41.56281978
41.02907178
40.15135741
40.39245455
39.80514527
38.73799942
38.92034498
38.38916832
37.40154418
37.55520393
37.09659885
36.26274356
36.4018855
39.54927143
40.06918947
40.2541136
40.74523782
41.09028248
40.61289636
39.83701209
40.0720347
39.51507073
38.50000291
38.67796893
38.16320251
37.20086957
37.35093629
36.90172175
36.08050926
36.21684402
38.87850927
39.37926763
39.64494852
40.29656055
40.63191533
40.20786899
39.53004488
39.75960649
39.23164626
38.26733021
38.44135609
37.94229411
37.00465582
37.15141173
36.71111995
35.9018985
36.0355274
38.2317641
38.71473992
39.05516344
39.8599659
40.18629184
39.81299026
39.22972879
39.45436523
38.95419915
38.039441
38.20992687
37.72594268
36.81252793
36.95625322
36.52446425
35.72673307
35.85779393
37.6077211
38.07406547
38.48442334
39.43491148
39.75266587
39.42762012
38.93551349
39.15562075
38.68221694
37.81591321
37.98316374
37.51375431
36.62418794
36.76509775
36.34149672
35.55492489
35.68347577
37.00479612
37.45659947
37.93142858
39.02102448
39.33047029
39.05092681
38.64691688
38.86286372
38.41525669
37.59638203
37.76066784
37.30538543
36.43936341
36.57766108
36.16197461
35.38631713
35.51248099
36.41899284
36.86289956
37.3922199
38.61580853
38.92031646
38.68085531
38.36283059
38.57576244
38.15243356
37.38033289
37.54211544
37.10038815
36.2577408
36.39368714
35.98562026
35.22072998
35.34464827
35.81266352
36.2974526
36.83163521
38.19135105
38.52516813
38.29266173
38.06422171
38.29584444
37.87629426
37.15415422
37.32797742
36.8861249
36.06882447
36.21333268
35.80243798
35.04922643
35.18007233
39.70331367
39.20739803
39.223376
47.54767449
46.62580289
41.64371832
55.70931116
58.09060501
58.23542222
47.78491486
40.81795453
40.35964333
39.47542453
40.34001629
57.26625594
57.07135159
51.77238784
55.83239652
58.38477212
58.34838578
58.27997727
58.3734135
55.84032512
50.0157853
48.51381181
58.08834663
56.26513494
56.94971349
55.98440518
58.13729221
39.78056847
39.39489305
41.44800912
41.99987942
46.11050708
43.84641236
40.42521882
40.89456798
57.37093901
56.65157905
46.91031193
58.39700359
57.95574474
58.10984292
57.15884055
57.79718561
58.3289567
40.19700092
39.74233837
39.16250564
47.08321563
49.01519372
65.16942649
40.94640473
39.39605446
39.34095909
39.5284887
41.69733502
40.77707676
43.7244414
42.74431845
39.34792399
52.86666131
48.24294761
49.12549552
47.29395521
52.23139483
39.70695862
40.01025255
43.07377759
43.84760377
45.28242689
39.87998394
39.67360031
57.47439461
57.9319964
55.00912819
55.82650037
57.39651393
57.04585646
58.25512289
57.67114894
56.03688207
54.83201418
51.4923815
52.12779668
49.98191714
50.74431623
54.37716507
40.88647339
45.6636251
44.70154298
58.58838826
58.34318849
58.37606315
58.20914685
58.28648193
58.55780609
51.18659407
56.96779568
56.66353278
49.20112994
43.33765851
43.72754818
41.46929119
49.71308116
46.22627475
40.18075896
40.04253271
40.74220497
40.49636634
40.65948799
46.64881034
42.66421496
43.15789442
53.24688735
42.75309585
44.42774503
40.72898848
41.55914973
48.83460386
39.20044734
39.48734422
39.34055451
41.81219261
48.34500979
45.98261863
56.80959679
51.5930602
42.91143424
39.87226008
42.14981651
41.43132407
44.30142229
42.99325466
40.05851451
44.14362394
42.7469666
39.75237302
52.42913126
52.32930951
54.72742716
48.79034857
50.5043399
50.61806561
39.27480362
39.21718294
39.50324343
43.00320436
39.8170969
40.20421141
39.39066715
39.58460524
41.85837227
39.43143011
39.42847887
39.57458782
42.70021425
40.51002283
40.29570358
40.03907639
42.30963496
41.97170029
42.78801323
39.63788778
40.21765135
40.05909935
40.85941174
40.47944612
39.63617814
38.05420816
37.32307124
36.86976917
36.49269496
36.17370582
35.88561216
44.24271413
49.2673913
48.43854068
54.39139199
52.54765892
52.48876928
47.440138
46.02912676
45.95829521
42.69727264
41.84979748
41.8220259
39.83897782
39.31456149
39.27695878
38.15942484
37.40458761
37.36762881
36.92227196
36.52093047
36.5072704
36.17943771
35.87134153
35.8811052
54.71336348
57.42642205
57.39451863
54.22376052
52.45795051
52.53534455
47.41552032
46.03868408
46.08191366
42.7699632
41.90387369
41.90574672
39.90042521
39.38588523
39.37764714
38.22514392
37.45469196
37.43320825
36.95622634
36.53603605
36.52966678
36.17747135
35.85113061
35.8644471
54.74827389
56.46239653
56.98260727
53.29269681
51.67704804
51.96150615
47.01244875
45.70994536
45.82838368
42.60247809
41.78962838
41.83146977
39.88207972
39.39444765
39.39681316
38.24344039
37.4722404
37.46842697
36.96569716
36.53443743
36.53676398
36.16251382
35.82094868
35.8388191
53.46155472
54.41010697
54.89534052
51.56518417
50.11887574
50.55523114
46.11598522
45.00141571
45.21294232
42.26067642
41.53090975
41.60481653
39.80681299
39.36068326
39.37135671
38.22639761
37.46111442
37.46907966
36.95234545
36.51410734
36.52742439
36.12935248
35.7770486
35.80163194
52.45640298
52.6128049
53.05736288
49.51282381
48.27276231
48.73152506
45.0061803
44.09703992
44.32011092
41.83909059
41.22632815
41.30175637
39.72718393
39.30460057
39.32412969
38.16576606
37.41235919
37.44350684
36.89941276
36.45762497
36.4888787
36.06772288
35.71483874
35.74921911
51.05201542
50.76991213
51.24364715
47.70044615
46.68709803
47.0324594
44.08497129
43.35343935
43.50936789
41.50860257
40.97937278
41.03897396
39.58698219
39.18083199
39.21752437
38.05112623
37.31900523
37.37034822
36.81157454
36.37316172
36.41799702
35.98391101
35.63351925
35.67687045
49.70099422
49.17415747
49.50159253
46.59138152
45.75987099
45.9227068
43.55850223
42.91585887
43.01819066
41.21716948
40.71862707
40.78626225
39.39649194
39.00772629
39.05423772
37.90081977
37.1938649
37.25976117
36.69712945
36.26520945
36.32134628
35.88051061
35.53531904
35.58695448
48.57110315
48.12884434
48.37838817
45.90460519
45.15332016
45.30066602
43.11541209
42.51364224
42.61283713
40.9127343
40.44009195
40.51045961
39.1798406
38.80736224
38.85917805
37.72795562
37.04645728
37.12244516
36.56265026
36.13855796
36.20356199
35.76068518
35.42215615
35.48107308
47.53426984
47.18820045
47.41560027
45.2698598
44.58864858
44.72637079
42.69557394
42.1282351
42.22279706
40.60895374
40.15808246
40.22842529
38.9510359
38.59298104
38.64739547
37.54180694
36.88402635
36.96674674
36.41337432
35.99779237
36.06940441
35.62777607
35.29666551
35.36149041
46.57297192
46.32234768
46.53275962
44.67549784
44.05823284
44.18794199
42.29880209
41.76206286
41.85184696
40.31261892
39.88010258
39.94897305
38.71827363
38.37262125
38.42796278
37.34866485
36.71194211
36.79892014
36.25361268
35.84690896
35.92320272
35.48494051
35.16127842
35.23083041
45.67511009
45.5157714
45.71249457
44.11508491
43.55681414
43.67968428
41.92204134
41.4136876
41.49924552
40.02648054
39.60973832
39.67652101
38.48638965
38.15128905
38.20652125
37.15266488
36.53411729
36.62354606
36.08698245
35.6890493
35.76853806
35.3348842
35.01861726
35.09155008
44.83083621
44.75786455
44.94323728
43.58370084
43.08033727
43.19730867
41.5623262
41.08071903
41.16263309
39.75089895
39.348163
39.41272215
38.25811461
37.93203149
37.98654048
36.956484
36.35343546
36.44398965
35.91630514
35.52665627
35.60818443
35.17982266
34.87039326
34.9459483
44.03229861
44.04081751
44.21662761
43.07729729
42.6254328
42.73730307
41.21740846
40.76113689
40.83987258
39.48522943
39.09530955
39.15773244
38.0348042
37.71654213
37.77000863
36.7617744
36.17191568
36.26268489
35.74363159
35.36158005
35.44427979
35.0215204
34.71871142
34.795768
43.27738377
43.35756469
43.52541537
42.59245699
42.18920908
42.296648
40.88545135
40.45329597
40.52923033
39.2285602
38.85061223
38.91105517
37.81694934
37.50560097
37.5578875
36.56953474
35.9909237
36.08128697
35.57041426
35.19521677
35.27842974
34.86132165
34.56426909
34.64262791
42.5588146
42.70468694
42.86523664
42.12639563
41.76928576
41.87285628
40.56492694
40.1558468
40.22930351
38.98003271
38.61342107
38.67205243
37.60461932
37.29949745
37.35056802
36.38031357
35.81135743
35.90092187
35.3976608
35.02858028
35.11183826
34.70028297
34.40896603
34.4875234
41.870383
42.0788977
42.23305872
41.67676232
41.36361917
41.46379243
40.25446576
39.86757686
39.93884056
38.73882544
38.38305721
38.44004091
37.39763584
37.09821795
37.14809054
36.19438887
35.63378552
35.72229696
35.226059
34.86241952
34.94537634
34.53913901
34.25237306
34.33161179
41.20680988
41.47952509
41.62703174
41.24167442
40.97055131
41.06771927
39.95290921
39.58745158
39.65677231
38.504214
38.15890097
38.21439146
37.19573917
36.90162649
36.95034706
36.0118878
35.4585629
35.54586839
35.05607636
34.69725283
34.77966477
34.37851651
34.09680431
34.17523523
40.56628001
40.90303104
41.04524094
40.81951742
40.58865812
40.68315809
39.65922604
39.31453818
39.38214064
38.27551641
37.94035211
37.99449775
36.99860231
36.70949308
36.75712566
35.83282655
35.28586557
35.37190025
34.8880182
34.53347684
34.61517757
34.21875783
33.94029236
34.01941051
39.94704162
40.34597445
40.48359167
40.4090585
40.21681138
40.30888646
39.37257114
39.04806402
39.11411805
38.05214845
37.72688789
37.77980497
36.80590722
36.52157431
36.56817453
35.6571416
35.1158336
35.20054533
34.72208558
34.37133586
34.45223428
34.06028913
33.78661942
33.86387645
39.34769213
39.80545799
39.93909409
40.00920917
39.85405993
39.94394067
39.0922133
38.78735309
38.85202254
37.83357766
37.51802217
37.56983118
36.61731847
36.33758896
36.38323161
35.48469849
34.94855792
35.03197087
34.55834208
34.21098486
34.29114437
33.90310831
33.63110622
33.70991134
38.76744836
39.28072512
39.41058533
39.61915323
39.49963346
39.58749298
38.81755313
38.53184637
38.59525843
37.61935044
37.31333606
37.36413335
36.43253485
36.1572825
36.20202382
35.31546655
34.78384655
34.86634093
34.39666812
34.05227594
34.13212065
33.74741615
33.48077468
33.55650994
38.20585729
38.77072947
38.89735292
39.23826481
39.15296785
39.23897542
38.54813691
38.28111804
38.34337573
37.40911252
37.11249995
37.16236492
36.25131976
35.98045965
36.02435026
35.14928919
34.62101137
34.70389168
34.23637531
33.89463659
33.97578088
33.59230044
33.325202
33.40608106
37.66059919
38.27387971
38.39973401
38.86540955
38.81322057
38.89808518
38.28348612
38.03474345
38.09603538
37.20253441
36.9152073
36.96422975
36.07343978
35.80691463
35.85000856
34.98595427
34.45742425
34.54586816
34.07494972
33.73559979
33.8234135
33.43583509
33.17628027
33.25728899
37.12386439
37.78279532
37.92220847
38.4943339
38.47453416
38.56738945
38.02015229
37.78983507
37.85409262
36.99781262
36.71987865
36.76998898
35.89775967
35.63561185
35.67911623
34.81687762
34.2816497
34.39760891
33.90144319
33.56440074
33.67946706
33.26652276
33.00214931
33.11835333
55.76179767
56.6984408
56.72659843
48.31467166
44.16450116
44.59131913
39.28369393
39.12928569
40.87861841
56.73072606
56.74557277
55.82783389
57.75213745
58.03217619
52.93286126
52.5806768
48.49001325
40.43082449
40.05323455
39.26750032
40.49458178
40.71501914
39.20107745
41.62870388
40.73390835
50.29295409
53.76673608
53.42078403
40.34471758
40.41092706
45.91480347
45.7911951
47.18926243
43.49581605
44.57428248
44.67019525
41.75617607
41.70263796
42.54593801
40.29036998
40.95141864
41.00669887
39.23808954
39.2000989
39.70949734
38.36320267
38.75337622
38.78760452
50.74271501
50.05239445
45.17056727
56.16797265
53.78580357
54.25154034
52.76002111
53.28713707
55.81598431
52.59252557
52.56170944
54.38820101
49.05029139
50.78483643
50.79605326
50.68972474
50.75869844
49.0315978
46.07412307
46.05932487
47.45938901
43.72975379
44.822491
44.83228176
44.74079659
44.78062781
43.67230252
41.90768708
41.87675019
42.74911911
40.43804286
41.11125185
41.14545072
41.05368161
41.10045864
40.43058358
39.35585125
39.33512158
39.84783794
38.48744335
38.88504006
38.90310639
38.82563404
38.85704953
38.46066908
57.32211493
57.40414558
54.93888103
58.37070165
58.33528673
58.51470359
52.18935671
52.34313205
54.09915444
48.89715732
50.58728875
50.45275166
50.76012933
50.68576721
48.97372594
45.92048006
45.98589979
47.35978834
43.68662494
44.76789506
44.71800857
44.83122001
44.82562081
43.74237814
41.86169579
41.8989999
42.73694031
40.49124931
41.15214905
41.12072893
41.14349003
41.15043334
40.48390964
39.40110186
39.39548768
39.90630575
38.56145474
38.95026444
38.96451175
38.92497018
38.93838655
38.5472832
48.40175604
48.20436537
55.40374535
55.93125616
54.28523865
54.41655201
55.73259613
55.24276246
56.64489537
56.20281155
54.84165823
50.96647927
51.34296734
52.91616767
48.2297769
49.74934206
49.4232824
50.27563375
50.03581929
48.46294061
45.40443998
45.56865669
46.83711402
43.42843875
44.43635252
44.30465209
44.64582914
44.55125045
43.51971555
41.67410912
41.7365102
42.53174697
40.41291474
41.03318077
40.98793944
41.10043671
41.07128408
40.43828373
39.38074224
39.38909471
39.86742785
38.59196151
38.96838938
38.96638191
38.96556291
38.96882486
38.58964275
50.61614606
50.02387869
53.49846009
53.94747689
53.24997409
52.3932679
53.6808599
53.13169885
54.73551489
54.21494762
52.93873558
49.19881364
49.6645673
51.0618274
47.00756977
48.28773045
47.88536748
49.06535371
48.68372769
47.34107563
44.54894294
44.77803887
45.84060238
42.94378975
43.81474221
43.63162514
44.1575144
43.99238683
43.08077527
41.37986994
41.45633686
42.15993787
40.27606516
40.83007488
40.7787154
40.93750741
40.88421867
40.31199278
39.33787354
39.35013785
39.78675992
38.57826933
38.9501025
38.939516
38.96361159
38.9582821
38.58561905
51.43736406
51.46620324
51.71752497
52.16480514
52.11444162
50.15966905
51.41455901
50.84463703
52.5675987
51.99217998
50.70701859
47.41540967
47.83138469
49.0153827
45.68652403
46.71425689
46.3612619
47.48367255
47.09076576
46.00144687
43.68731711
43.88464804
44.74551882
42.38710744
43.10019367
42.94401479
43.44829578
43.2696748
42.51860487
41.0962245
41.1572464
41.7406568
40.14788078
40.63066571
40.5853295
40.72603124
40.67665157
40.18162725
39.25075036
39.27996883
39.69874086
38.52472601
38.88921313
38.86329765
38.92780084
38.91087717
38.54428895
50.6042523
50.88534846
49.88509418
50.3100233
50.69899406
48.30250705
49.32962372
48.93022091
50.29762877
49.79022367
48.7024594
46.12713455
46.38601123
47.34510597
44.67358355
45.49594805
45.28215558
46.03756115
45.74761673
44.88171714
43.12094512
43.22668944
43.91820413
41.9944528
42.58898491
42.49726663
42.80410214
42.68589631
42.07498917
40.85253398
40.91704944
41.43813701
39.97153133
40.42889285
40.37120677
40.53649969
40.48415832
40.02074558
39.09880954
39.14112779
39.54290926
38.41196745
38.76454578
38.72601642
38.83355817
38.80052448
38.4448819
49.41115303
49.70314036
48.63476088
48.89879237
49.40769571
47.23760886
48.0823341
47.86059078
48.58411753
48.31091699
47.43592266
45.45076512
45.60376439
46.41348828
44.11924237
44.8377431
44.70091598
45.11994033
44.97703846
44.24438083
42.71302108
42.81407603
43.44574838
41.66462248
42.22128517
42.12951538
42.40538999
42.31331472
41.74795968
40.5804744
40.64994
41.14158352
39.75298095
40.18768792
40.12410361
40.31153206
40.25025548
39.81014107
38.90996705
38.95956003
39.3441031
38.25868162
38.5980959
38.5521695
38.68524524
38.64251709
38.29990112
48.28239787
48.55831128
47.64791023
47.88551704
48.30405252
46.48516092
47.22032638
47.01469256
47.643133
47.4297633
46.66830354
44.86630494
45.00857879
45.74167093
43.63743106
44.30457839
44.17688284
44.56649927
44.43441825
43.75504755
42.31856541
42.41552805
43.00819671
41.33170425
41.85740605
41.76817076
42.03818622
41.94744395
41.41452677
40.29894222
40.36953787
40.83637814
39.51455541
39.92945773
39.86385649
40.05974159
39.99480259
39.57522067
38.70133291
38.75470459
39.12338605
38.08042966
38.4074158
38.35732567
38.5049836
38.45666014
38.12670952
47.21923093
47.47905759
46.74705369
46.965452
47.28738494
45.78253106
46.419358
46.22771383
46.81273758
46.61431876
45.95388305
44.31952872
44.4530696
45.1177778
43.18484951
43.80568277
43.68561109
44.05123552
43.92752471
43.29543379
41.9427833
42.03490424
42.59432218
41.00614326
41.50593892
41.42047573
41.67981718
41.59238906
41.08651433
40.01829368
40.08801639
40.53401018
39.26878642
39.66672034
39.60121698
39.79813087
39.73238289
39.33045995
38.48318176
38.53821975
38.8929845
37.88752803
38.20344771
38.1512479
38.30658739
38.25523654
37.93669127
46.21737958
46.46242786
45.9123914
46.11561933
46.34297858
45.12339727
45.67150829
45.49195366
46.03927057
45.85390934
45.2844166
43.80416923
43.93033033
44.53242153
42.75767111
43.33530419
43.22161778
43.56723756
43.45049127
42.86232312
41.58580122
41.67339338
42.20286444
40.69250738
41.17001731
41.08845326
41.33600828
41.25252842
40.76970445
39.7438522
39.811719
40.24008516
39.02278155
39.40631142
39.34203389
39.53594509
39.47096141
39.08404838
38.26184717
38.31723407
38.6600842
37.68697922
37.99322956
37.94027381
38.09878152
38.04606961
37.73752045
45.27051884
45.50245847
45.1312618
45.32205693
45.45934055
44.50209689
44.96927389
44.80003758
45.31513838
45.14095466
44.65418196
43.31567442
43.43548613
43.97967738
42.35184631
42.88903932
42.78084539
43.10938214
42.99854464
42.45148643
41.24540996
41.32908005
41.83060497
40.3916886
40.84918597
40.77114551
41.00781464
40.92807246
40.46572885
39.47783413
39.54350279
39.95660557
38.78046143
39.1517138
39.08917083
39.27816263
39.21472
38.84056827
38.04126547
38.0961914
38.42890586
37.4835873
37.78140885
37.72856863
37.88730408
37.83432428
37.53449863
44.37224598
44.5925888
44.39465171
44.57503936
44.62717911
43.91344654
44.30596518
44.14552663
44.63313434
44.46847416
44.05781133
42.8503809
42.96470973
43.4549041
41.96438709
42.46363555
42.3602121
42.67390963
42.56818838
42.05966714
40.91936484
40.99963786
41.4747877
40.10285838
40.54179185
40.46684111
40.69391805
40.61747633
40.17401039
39.22067599
39.28414952
39.68358748
38.54376078
38.90434966
38.84367948
39.02709438
38.96548768
38.6023566
37.82375095
37.8777649
38.20179218
37.28041191
37.57091272
37.51870312
37.67586721
37.62329742
37.3310549
43.51636648
43.72688464
43.6952141
43.86701969
43.83964867
43.35288608
43.6758904
43.52295805
43.98708486
43.8305699
43.49061234
42.40513768
42.51472775
42.95418774
41.59292245
42.05636282
41.95708467
42.25788418
42.15661436
41.6844018
40.60583281
40.68313332
41.13327018
39.82476036
40.24618483
40.17394905
40.39260497
40.31906083
39.89334393
38.97197731
39.03339635
39.42025475
38.31336463
38.66445298
38.605611
38.78347711
38.72373744
38.37036211
37.61047284
37.66336486
37.97982262
37.07926607
37.36340225
37.31209128
37.46671568
37.41493701
37.12928264
42.69592298
42.89779833
43.02752534
43.19161877
43.09464454
42.81658001
43.07422528
42.92780301
43.37174992
43.22219124
42.94856136
41.97734593
42.08278561
42.47428241
41.23546019
41.66489401
41.56925981
41.85877491
41.76138942
41.32360624
40.30335139
40.37800882
40.80430565
39.55622639
39.96098666
39.89117482
40.10235488
40.03137428
39.62251762
38.73112098
38.79063711
39.16569856
38.08932047
38.4317438
38.3746389
38.54722124
38.48926866
38.144743
37.40194047
37.45361932
37.76335353
36.88115583
37.15972354
37.10944991
37.2610482
37.21025116
36.93034976
41.90910493
42.10281654
42.38862703
42.54585205
42.38404332
42.3014063
42.49737388
42.35669862
42.78288419
42.63942288
42.42836725
41.56478692
41.66660463
42.01253098
40.89030956
41.28727128
41.19482132
41.47446351
41.3804772
40.97552786
40.01063605
40.08296271
40.48641884
39.29625084
39.68504499
39.61737966
39.82192572
39.75322193
39.36049373
38.49742833
38.55521586
38.9190758
37.8714049
38.205776
38.15027512
38.31794884
38.26166452
37.92532759
37.19826342
37.24873058
37.55238268
36.68660857
36.96025577
36.91105634
37.05945288
37.00971624
36.73488471
41.15288966
41.33932494
41.77602758
41.92660767
41.70231977
41.80482192
41.94246323
41.8067747
42.21733549
42.07932388
41.92734074
41.16560526
41.26423051
41.56669678
40.55596943
40.92178485
40.8321396
41.10309742
41.01209737
40.63860971
39.72655718
39.79682004
40.17828528
39.04390812
39.41731442
39.35155703
39.55020681
39.48352659
39.10632107
38.27024149
38.32645996
38.67958224
37.65924622
37.98602211
37.9319951
38.09515001
38.04040447
37.71176516
36.99934928
37.04863906
37.34669733
36.49583438
36.76508056
36.7169513
36.86212851
36.81346829
36.54315726
40.42387671
40.60364837
41.18868772
41.33343008
41.04454911
41.32470341
41.4067168
41.27564051
41.67226278
41.53891806
41.4432899
40.77828939
40.87408047
41.13498019
40.23118954
40.56703074
40.47987078
40.7431457
40.65478339
40.31155045
39.45014816
39.51858053
39.87878809
38.79839725
39.15689829
39.09283811
39.28624449
39.22136321
38.85917561
38.04896232
38.10376024
38.44651078
37.45245295
37.77197821
37.7192987
37.87831798
37.82498218
37.50367074
36.80501941
36.85318548
37.14602235
36.30889285
36.57415054
36.52706231
36.66909239
36.62148973
36.35526175
39.72092836
39.89419561
40.62223722
40.76205705
40.40956794
40.85939651
40.88890797
40.76210405
41.14566529
41.01675896
40.97440069
40.40154285
40.49479483
40.71585154
39.91487359
40.22179237
40.13685139
40.39329075
40.30726409
39.99320738
39.18054136
39.24734416
39.58693509
38.55897883
38.9029798
38.84043323
39.02917433
38.96588766
38.61829543
37.83301627
37.88652917
38.21919726
37.25060372
37.56313744
37.51168671
37.66693856
37.61488372
37.30062191
36.61502444
36.66212937
36.95002577
36.12572701
36.38731713
36.34122744
36.48023367
36.43364735
36.17116085
39.04394407
39.21078652
40.07370681
40.20934779
39.79540699
40.40758769
40.38787088
40.26528696
40.63625615
40.51149894
40.51937557
40.03435104
40.1253036
40.30814152
39.60613642
39.88509762
39.80215682
40.05243139
39.96851858
39.68265371
38.917025