/*--------------------------------*- C++ -*----------------------------------*\
| =========                 |                                                 |
| \\      /  F ield         | OpenFOAM: The Open Source CFD Toolbox           |
|  \\    /   O peration     | Version:  v2012                                 |
|   \\  /    A nd           | Website:  www.openfoam.com                      |
|    \\/     M anipulation  |                                                 |
\*---------------------------------------------------------------------------*/
FoamFile
{
    version     2.0;
    format      ascii;
    class       surfaceScalarField;
    location    "2";
    object      meshPhi;
}
// * * * * * * * * * * * * * * * * * * * * * * * * * * * * * * * * * * * * * //

dimensions      [0 3 -1 0 0 0 0];
oriented        oriented;


internalField   nonuniform List<scalar> 
5975
(
2.311840532e-05
-0.0002016973783
-2.27810759e-05
0.000403134504
-0.0002017744552
-0.0008070763574
4.658187685e-05
-9.302954713e-05
0.001614059495
-0.0008060233072
4.54878396e-05
2.913347816e-05
-0.001524130441
-2.035633591e-05
0.00143155483
-6.938309635e-05
-0.00105192669
6.760325483e-05
0.0008980309831
-4.7500025e-05
-0.0004359704116
4.353605149e-05
0.0003021448464
-3.457955481e-05
-1.628516731e-06
1.197317432e-06
3.422269217e-06
0
0
0
0
0
0
0
0
0
0
0
0
0
0
0
0
0
5.695865876e-05
-0.0004022583912
-5.695858674e-05
0.0008046868991
-0.0004024285799
-0.001608186458
9.785162985e-05
-9.640037809e-05
0.001603166312
8.360492903e-06
-0.001411349381
-5.885426518e-06
0.001302908125
-5.909855339e-05
-0.0008769657151
6.211486106e-05
0.0007210831245
-2.983015788e-05
-0.0002929054833
2.356288995e-05
0.0001882427506
-4.615147654e-06
-1.64385377e-07
6.938367203e-08
0
0
0
0
0
0
0
0
0
0
0
0
0
0
0
0
0
0
0.0001129945014
-0.001595534667
-0.0001129945014
0.001595534667
8.605882518e-05
-0.001564671141
-7.993877682e-05
0.001518323227
-8.311237975e-06
-0.001244572394
1.167956304e-05
0.001115958758
-5.380338452e-05
-0.0006769200109
4.9393976e-05
0.000530196355
-1.258289165e-05
-0.000163226429
1.048609403e-05
8.52928895e-05
0
0
0
0
0
0
0
0
0
0
0
0
0
0
0
0
0
0
0
0
0
0.000104404389
-0.001492580315
-9.487588293e-05
0.001466088307
5.405777856e-05
-0.001310390966
-4.385651073e-05
0.001229960809
-1.938805813e-05
-0.000913340695
2.028219451e-05
0.0007905622967
-3.245391198e-05
-0.0004179015503
2.619574492e-05
0.0003051893736
-3.322453741e-06
-5.65533957e-05
1.729263879e-06
1.559027842e-05
0
0
0
0
0
0
0
0
0
0
0
0
0
0
0
0
0
0
0
0
0
5.493329182e-05
-0.001036977449
-4.134192082e-05
0.001000212725
1.570776786e-05
-0.0008243431801
-8.856713778e-06
0.0007472092647
-1.662835416e-05
-0.0004838732028
1.374077032e-05
0.0003930952231
-9.481939932e-06
-0.0001494630554
5.522926253e-06
8.759836959e-05
-1.442067903e-08
-3.820826735e-07
0
0
0
0
0
0
0
0
0
0
0
0
0
0
0
0
0
0
0
0
0
0
0
1.138624222e-05
-0.0004432495254
-5.998402171e-06
0.0004191388745
-1.200829905e-06
-0.0003075324005
1.687751967e-06
0.0002616042803
-4.401833027e-06
-0.0001211333569
2.181158668e-06
8.002419631e-05
-1.572318713e-07
-4.658456877e-06
3.671803135e-10
5.03326234e-08
0
0
0
0
0
0
0
0
0
0
0
0
0
0
0
0
0
0
0
0
0
0
0
0
0
1.851197639e-07
-5.051318483e-05
-6.94663967e-09
4.399559235e-05
-2.879338825e-07
-1.746103653e-05
2.223405068e-08
9.63311011e-06
0
0
0
0
0
0
0
0
0
0
0
0
0
0
0
0
0
0
0
0
0
0
0
0
0
0
0
0
0
0
0
0
0
0
0
0
0
0
0
0
0
0
0
0
0
0
0
0
0
0
0
0
0
0
0
0
0
0
0
0
0
0
0
0
0
0
0
0
0
0
0
0
0
0
0
0
0
0
0
0
0
0
0
0
0
0
0
0
0
0
0
0
0
0
0
0
0
0
0
0
0
0
0
0
0
0
0
0
0
0
0
0
0
0
0
0
0
0
0
0
0
0
0
0
0
0
0
0
0
0
0
0
0
0
0
0
0
0
0
0
0
0
0
0
0
0
0
0
0
0
0
0
0
0
0
0
0
0
0
0
0
0
0
0
0
0
0
0
0
0
0
0
0
0
0
0
0
0
0
0
0
0
0
0
0
0
0
0
0
0
0
0
0
0
0
0
0
0
0
0
0
0
0
0
0
0
0
0
0
0
0
0
0
0
0
0
0
0
0
0
0
0
0
0
0
0
0
0
0
0
0
0
0
0
0
0
0
0
0
0
0
0
0
0
0
0
0
0
0
0
0
0
0
0
0
0
0
0
0
0
0
0
0
0
0
0
0
0
0
0
0
0
0
0
0
0
0
0
0
0
0
0
0
0
0
0
0
0
0
0
0
0
0
0
0
0
0
0
0
0
0
0
0
0
0
0
0
0
0
0
0
0
0
0
0
0
0
0
0
0
0
0
0
0
0
0
0
0
0
0
0
0
0
0
0
0
0
0
0
0
0
0
0
0
0
0
0
0
0
0
0
0
0
0
0
0
0
0
0
0
0
0
0
0
0
0
0
0
0
0
0
0
0
0
0
0
0
0
0
0
0
0
0
0
0
0
0
0
0
0
0
0
0
0
0
0
0
0
0
0
0
0
0
0
0
0
0
0
0
0
0
0
0
0
0
0
0
0
0
0
0
0
0
0
0
0
0
0
0
0
0
0
0
0
0
0
0
0
0
0
0
0
0
0
0
0
0
0
0
0
0
0
0
0
0
0
0
0
0
0
0
0
0
0
0
0
0
0
0
0
0
0
0
0
0
0
0
0
0
0
0
0
0
0
0
0
0
0
0
0
0
0
0
0
0
0
0
0
0
0
0
0
0
0
0
0
0
0
0
0
0
0
0
0
0
0
0
0
0
0
0
0
0
0
0
0
0
0
0
0
0
0
0
0
0
0
0
0
0
0
0
0
0
0
0
0
0
0
0
0
0
0
0
0
0
0
0
0
0
0
0
0
0
0
0
0
0
0
0
0
0
0
0
0
0
0
0
0
0
0
0
0
0
0
0
0
0
0
0
0
0
0
0
0
0
0
0
0
0
0
0
0
0
0
0
0
0
0
0
0
0
0
0
0
0
0
0
0
0
0
0
0
0
0
0
0
0
0
0
0
0
0
0
0
0
0
0
0
0
0
0
0
0
0
0
0
0
0
0
0
0
0
0
0
0
0
0
0
0
0
0
0
0
0
0
0
0
0
0
0
0
0
0
0
0
0
0
0
0
0
0
0
0
0
0
0
0
0
0
0
0
0
0
0
0
0
0
0
0
0
0
0
0
0
0
0
0
0
0
0
0
0
0
0
0
0
0
0
0
0
0
0
0
0
0
0
0.0002021629164
-1.175237435e-05
1.18167302e-05
-0.0002022272722
-0.0002022031891
0.0004039240094
2.356050137e-05
-4.682432131e-05
0.0008088251916
4.671394807e-05
-0.0008087148183
0.0004028359562
-2.882548801e-05
2.882585969e-05
-0.0004028363278
-0.0002019442798
-1.150547286e-05
0.0008055010546
-0.0003669494425
7.658017383e-06
1.35849854e-05
-8.727536902e-05
0.001592750772
-0.0008031624771
-0.0007993234508
4.939137061e-05
4.761915376e-05
-0.0008069397442
-4.696093448e-05
0.0007989885668
-5.788098527e-05
5.788098526e-05
-0.0007989885668
-0.0004022585958
-2.882528344e-05
-4.918131811e-05
0.0008080726475
4.889592986e-05
-0.0004035353782
-0.000404251881
2.057938696e-05
0.0003978898422
-0.0003981045226
-2.036470656e-05
0.0003983646243
2.105650248e-05
-0.0003988417398
-2.20456166e-05
0.0003981924778
2.221776303e-05
-5.359168896e-05
0.0008018661889
5.173039537e-05
-0.0008000048953
0.0008064340406
-4.953824147e-05
-0.0004027622781
-0.0004033148392
1.40007985e-05
0.000203328055
-0.0002040969364
-1.323191709e-05
-2.166893224e-05
0.000401330422
2.177860547e-05
-0.0002004753633
-0.0002009647319
0.0002033540624
1.459608962e-05
-0.0002039493535
-1.290769737e-05
0.0002029973956
1.326436422e-05
-2.395832683e-05
0.000405628795
2.409722768e-05
-0.0004057676958
0.0004010365304
-0.0004010638357
-2.164162692e-05
0.001598419617
-0.0007994310504
5.69585764e-05
5.603592501e-05
0.0015878673
-9.890078757e-05
0.0001013580231
-0.001598184656
-0.0001019249802
-0.0008034995592
-0.000790037288
-2.377039417e-05
0.0004033656882
2.384585052e-05
-0.0004034411446
0.0004049653617
-0.0004050039448
-2.39197437e-05
-1.247382401e-05
0.0002028941816
-5.419135381e-05
0.0007899059714
5.019306173e-05
-0.0007859076793
0.0008007915303
-0.0007979050296
-5.647818968e-05
-2.180406756e-05
0.0003976482931
0.0008022448114
-5.788098501e-05
5.788098432e-05
-0.0008022448107
1.855526386e-05
0.0002630114673
-0.0002815667312
-1.363276169e-05
0.000203993939
1.404134343e-05
-0.0002044025207
-1.860548261e-05
0.0003980393443
1.701006802e-05
-1.668916532e-05
0.0003962024379
1.845139601e-05
-0.0003979646686
-0.0002032206514
1.015350052e-05
-1.237479105e-05
0.000205441942
-0.0002009100595
-1.329431709e-05
0.0002020638033
1.214057321e-05
-1.238765402e-05
0.0002022074721
1.23416536e-05
-0.0002021614717
-1.153310023e-05
7.777801755e-06
-0.000197154761
-1.578267239e-05
-2.20832485e-05
-0.0001653547305
-1.393523579e-05
0.0002040953001
1.433941875e-05
-0.000204499483
0.0001991117386
-0.0001949468849
-1.569795393e-05
-6.141212298e-05
0.0002021592054
2.099869881e-05
-1.1884208e-05
0.0002024827703
1.215071464e-05
-0.000202749277
0.0002034375245
-0.0002035826292
-1.379013109e-05
-1.241084756e-05
0.0002003998744
1.252651075e-05
-0.0002005155376
0.0002021659002
-0.0002023409395
-1.170916871e-05
-6.48780827e-06
0.000202725967
0.0002639900456
-0.000279772718
0.0002035865732
-0.0002033061259
-1.391320902e-05
-8.527268684e-06
0.0001989861087
-0.0001719035761
0.0002073098759
6.683367021e-05
0.0008090226365
4.638443197e-05
0.001548704597
-5.679472138e-05
6.039820528e-05
-0.001598646433
0.0002017762413
-0.0002020771735
-1.208672175e-05
-1.533553095e-05
0.0002011529525
-1.390278411e-05
0.0002032581202
1.473996399e-05
0.0002010115479
-0.0001974062444
-1.444188918e-05
0.000202549907
-1.394856434e-05
-1.334521217e-05
0.0002038050505
1.35341007e-05
-1.196939749e-05
0.0002032086909
1.203451721e-05
-0.0002032738106
-1.593729734e-05
-2.207602763e-05
0.0002019384978
-0.0001639251728
0.0002621855959
-0.0002781228933
0.0002612122933
1.659482203e-05
6.349679882e-05
-7.95229162e-06
0.0002056677861
0.0002030105574
-0.0001615897862
0.0002005109803
-1.08439126e-05
1.090462364e-05
-0.0002005716913
0.0002008428836
-0.0002016112718
-1.164245934e-05
-2.799774634e-05
-0.0001778737811
6.546728917e-05
-8.599722979e-06
0.0002061439011
0.0002033397528
-0.00016587021
-0.0002602026936
6.33828418e-05
0.0002045976535
1.880263862e-05
-0.0002790053322
-8.368860741e-06
-0.0001699832616
0.0002035476955
-0.0001622481022
-0.0002062321239
1.620386466e-05
0.000204367678
-1.015324211e-05
6.610671411e-05
-1.271422733e-05
-2.812771851e-05
-0.0001751880272
0.0002014201375
-0.0001634411419
0.0002019260482
1.054218161e-05
-1.095248122e-05
0.000202569505
-0.0002012558618
0.0002038457518
0.0001987169946
-1.119207744e-05
1.070529114e-05
-1.241530168e-05
0.0002004270052
0.0002024787769
0.0001961797159
-2.8702864e-05
-0.0001760041206
1.190214057e-05
-1.61200964e-05
0.0002003976717
0.0002022885263
1.647769893e-05
0.0002050602533
-1.422807632e-05
-0.0002025541839
0.0002029117864
-0.0001644233777
0.001469331097
3.284007946e-05
0.001092581794
5.314880328e-05
-5.341595088e-05
-0.001236793815
0.000936353123
-6.420382549e-05
0.0004655719022
6.229501289e-05
-6.665793043e-05
-0.0006168795688
0.0003279032453
-5.236942737e-05
6.967777658e-06
4.496003117e-05
-9.248538069e-06
-0.000113219533
-2.278003159e-05
0.0004015064978
2.260395575e-05
-2.370096494e-05
0.0004016282985
2.391155425e-05
-0.0004018388878
0.0004032765993
-0.0004032301232
-2.381687031e-05
0.001593891488
9.611734489e-05
0.001447834097
-3.617062413e-05
4.431861243e-05
-0.001533415989
-0.00158462404
-5.153813217e-05
0.001342075136
1.386239131e-05
0.000914510257
5.856167497e-05
-5.727377423e-05
-0.001069233669
-0.001196350797
5.309407896e-05
0.0007692889091
-6.679110643e-05
0.0003302866478
4.403189247e-05
-4.830395307e-05
-0.0004660504509
-0.0005837929651
5.808590409e-05
0.0002120486522
-3.35159683e-05
1.83729876e-06
1.052509291e-05
-3.094467892e-06
-5.07816762e-05
-9.691833144e-05
5.751654927e-06
-5.695857663e-05
0.0008022448107
5.695857732e-05
-5.419135381e-05
0.0008022448107
5.41913538e-05
-0.0008022448107
0.0008046868991
-0.0008046868991
-5.41913538e-05
0.001553824011
9.083433627e-05
0.001300834266
-1.720062225e-05
2.202599789e-05
-0.001408654552
-0.001495076347
-3.377947092e-05
0.001173966511
-5.079914059e-06
0.0007275482957
5.368363023e-05
-5.611289864e-05
-0.0008819259623
-0.001030556617
5.722805321e-05
0.0005771772292
-5.289262906e-05
0.0001946224235
2.421240697e-05
-2.955246626e-05
-0.0003055668776
-0.0004227446532
3.867353351e-05
0.0001102566599
-1.721342538e-05
1.330359894e-07
0
-3.186417817e-07
-8.603302687e-06
-3.708351641e-05
1.20863855e-06
0.00155031621
-0.0001100382324
0.0001154613638
-0.0001166841208
5.880313553e-05
0.001531436286
0.0001105880038
0.00139927163
-7.113788647e-05
8.069441539e-05
-0.001458146512
-0.001588563269
-9.463971118e-05
0.001324139667
6.373636224e-05
0.001009913134
3.633766736e-06
1.098280923e-06
-0.001127554104
-0.001356645168
-1.186935172e-05
0.000883304267
-1.751146435e-05
0.0004880269592
3.678867334e-05
-4.204508098e-05
-0.000618229063
-0.0008270382344
5.054662201e-05
0.00036510108
-3.85608917e-05
8.219218359e-05
8.782334023e-06
-1.244148281e-05
-0.0001581212387
-0.0002683034364
2.039333689e-05
2.952650702e-05
-5.406318321e-06
0
0
0
0
-3.008525357e-06
1.160537397e-08
0.001177202005
-6.029578512e-05
7.492875614e-05
-0.0001008938667
0.001140222865
6.9095908e-05
0.0009591479115
-2.70098537e-05
3.756623615e-05
-0.001030684462
-0.001376297165
-6.033985113e-05
0.0008777772602
2.412093442e-05
0.0005924797971
1.208414521e-05
-1.180285227e-05
-0.0006922606512
-0.001029413939
7.504773509e-06
0.0004914697843
-1.882803084e-05
0.000210549235
1.374574357e-05
-1.92285007e-05
-0.0002974174566
-0.0005390105855
3.106087565e-05
0.0001346983001
-1.441182719e-05
4.710485566e-06
4.367701561e-07
-1.410337204e-06
-2.876978997e-05
-0.0001207421876
5.625831539e-06
0
-1.899408934e-07
0
0
0
0
0
0
0.0005853919611
-1.374020959e-05
2.22598768e-05
-4.605763542e-05
0.0005569738852
1.911307993e-05
0.0004249752757
-1.720287888e-06
5.157323274e-06
-0.0004755446002
-0.0008930563573
-1.785332555e-05
0.0003698236783
5.022528797e-07
0.0001951683829
4.973348335e-06
-7.321964331e-06
-0.0002529239995
-0.0005748071925
1.124564032e-05
0.0001407830592
-7.265813748e-06
2.157386291e-05
7.828581219e-07
-2.412563645e-06
-5.15354336e-05
-0.0002229918531
8.969065753e-06
4.677084614e-06
-9.255989046e-07
0
0
0
0
-1.072720649e-05
7.177848195e-08
0
0
0
0
0
0
0
0
0.0001147631298
-4.356287122e-07
1.467653952e-06
-7.631956597e-06
0.0001041330247
9.020463367e-07
5.70632125e-05
3.059193435e-07
-6.339688035e-07
-7.427976781e-05
-0.0003500707246
9.03378281e-08
3.996273097e-05
-8.225954182e-07
4.226216544e-06
1.425106829e-08
-3.275745057e-07
-1.197504116e-05
-0.0001664886993
2.862524561e-06
4.346514002e-07
-1.016858887e-07
0
0
0
0
-1.948431143e-05
1.081244477e-07
0
0
0
0
0
0
0
0
0
0
0
0
0
0
0
0
0
0
0
-7.868414421e-08
0
0
0
0
0
0
-2.655454449e-05
5.16291927e-08
0
0
0
0
0
0
-8.43782505e-07
0
0
0
0
0
0
0
0
0
0
0
0
0
0
0
0
0
0
0
0
0
0
0
0
0
0
0
0
0
0
0
0
0
0
0
0
0
0
0
0
0
0
0
0
0
0
0
0
0
0
0
0
0
0
0
0
0
0
0
0
0
0
0
0
0
0
0
0
0
0
0
0
0
0
0
0
0
0
0
0
0
0
0
0
0
0
0
0
0
0
0
0
0
0
0
0
0
0
0
0
0
0
0
0
0
0
0
0
0
0
0
0
0
0
0
0
0
0
0
0
0
0
0
0
0
0
0
0
0
0
0
0
0
0
0
0
0
0
0
0
0
0
0
0
0
0
0
0
0
0
0
0
0
0
0
0
0
0
0
0
0
0
0
0
0
0
0
0
0
0
0
0
0
0
0
0
0
0
0
0
0
0
0
0
0
0
0
0
0
0
0
0
0
0
0
0
0
0
0
0
0
0
0
0
0
0
0
0
0
0
0
0
0
0
0
0
0
0
0
0
0
0
0
0
0
0
0
0
0
0
0
0
0
0
0
0
0
0
0
0
0
0
0
0
0
0
0
0
0
0
0
0
0
0
0
0
0
0
0
0
0
0
0
0
0
0
0
0
0
0
0
0
0
0
0
0
0
0
0
0
0
0
0
0
0
0
0
0
0
0
0
0
0
0
0
0
0
0
0
0
0
0
0
0
0
0
0
0
0
0
0
0
0
0
0
0
0
0
0
0
0
0
0
0
0
0
0
0
0
0
0
0
0
0
0
0
0
0
0
0
0
0
0
0
0
0
0
0
0
0
0
0
0
0
0
0
0
0
0
0
0
0
0
0
0
0
0
0
0
0
0
0
0
0
0
0
0
0
0
0
0
0
0
0
0
0
0
0
0
0
0
0
0
0
0
0
0
0
0
0
0
0
0
0
0
0
0
0
0
0
0
0
0
0
0
0
0
0
0
0
0
0
0
0
0
0
0
0
0
0
0
0
0
0
0
0
0
0
0
0
0
0
0
0
0
0
0
0
0
0
0
0
0
0
0
0
0
0
0
0
0
0
0
0
0
0
0
0
0
0
0
0
0
0
0
0
0
0
0
0
0
0
0
0
0
0
0
0
0
0
0
0
0
0
0
0
0
0
0
0
0
0
0
0
0
0
0
0
0
0
0
0
0
0
0
0
0
0
0
0
0
0
0
0
0
0
0
0
0
0
0
0
0
0
0
0
0
0
0
0
0
0
0
0
0
0
0
0
0
0
0
0
0
0
0
0
0
0
0
0
0
0
0
0
0
0
0
0
0
0
0
0
0
0
0
0
0
0
0
0
0
0
0
0
0
0
0
0
0
0
0
0
0
0
0
0
0
0
0
0
0
0
0
0
0
0
0
0
0
0
0
0
0
0
0
0
0
0
0
0
0
0
0
0
0
0
0
0
0
0
0
0
0
0
0
0
0
0
0
0
0
0
0
0
0
0
0
0
0
0
0
0
0
0
0
0
0
0
0
0
0
0
0
0
0
0
0
0
0
0
0
0
0
0
0
0
0
0
0
0
0
0
0
0
0
0
0
0
0
0
0
0
0
0
0
0
0
0
0
0
0
0
0
0
0
0
0
0
0
0
0
0
0
0
0
0
0
0
0
0
0
0
0
0
0
0
0
0
0
0
0
0
0
0
0
0
0
0
0
0
0
0
0
0
0
0
0
0
0
0
0
0
0
0
0
0
0
0
0
0
0
0
0
0
0
0
0
-0.0002024294303
1.204297142e-05
-1.258058307e-05
1.296993448e-05
-0.0002028187817
-0.0002024956122
-1.231224306e-05
2.350492321e-05
0.0004036580485
-2.323896233e-05
-0.0004038187685
0.0004038021735
2.35215182e-05
2.379612195e-05
-0.0002022781478
0.0008125659714
-0.0008124372046
-4.686017817e-05
-0.0004058616268
-4.847394873e-05
0.0008121986777
-4.967909351e-05
0.0008083938471
4.935789393e-05
0.0003964211927
-0.0003993638026
-1.374655542e-05
0.0004141505406
-1.334761606e-05
0.0002028823565
-1.14996997e-05
0.0002021488991
1.183357092e-05
-2.225283311e-05
0.0004027347693
1.155231722e-05
1.154266785e-05
-0.0002018401348
-0.0002017367865
5.603592501e-05
0.0008055010546
-5.603592502e-05
0.000785422648
5.358169895e-05
-0.0003901224648
-0.0003928459572
1.899853118e-05
-1.68028707e-05
0.0003942255323
4.710851025e-05
0.0008012409655
-0.000801146182
-4.720329378e-05
5.162065304e-05
-5.059335795e-05
0.0007997642352
-5.32680232e-05
0.0007916293765
5.154461814e-05
-5.004713911e-05
0.0008068020863
0.0008018942761
5.159256578e-05
0.0008029864973
4.703329727e-05
-0.0008029112844
0.0008014306554
-0.0008014306552
-5.78809852e-05
-5.788098255e-05
0.0008034995669
2.905566745e-05
2.882530745e-05
-0.0004016481047
-0.0004018514545
2.460573697e-05
0.0008097509861
-0.0004044517657
-0.000405081538
2.40725105e-05
2.38930039e-05
-2.390921637e-05
0.0004049815742
-2.407942717e-05
0.0004034462317
2.399888368e-05
0.0004053686986
2.415310033e-05
0.0004053361322
2.439938942e-05
-0.0004051297846
0.0002030730758
-1.346859348e-05
-1.289439037e-05
0.0002031295666
-1.919317464e-05
1.970269873e-05
-0.0003986140466
0.0003975810951
-0.0003987129925
-1.806127723e-05
-1.939629822e-05
0.0003966126867
-0.0003998542405
2.133227408e-05
0.0003995784689
-2.045162307e-05
2.051998834e-05
-0.0002000676382
-0.0001998549676
-0.0003995906641
0.000398872467
-2.414236965e-05
2.40658044e-05
-0.0003987959017
0.0004009910462
-0.0004008007278
-2.389128334e-05
-2.24244239e-05
0.0004006809227
-0.0008022000095
5.013237185e-05
0.000803798033
-4.98417901e-05
4.888459158e-05
-0.0004002517648
-5.113287662e-05
-0.0003998413418
-2.405868391e-05
0.0004032558561
0.0008044336057
-0.0004026292608
2.40394432e-05
2.466910199e-05
0.0008050277361
-1.392531292e-05
1.477598671e-05
-0.0002049476101
0.0002036528419
-0.0002040885327
-1.348962208e-05
-1.276368191e-05
0.0002031846067
1.494526564e-05
-1.535386149e-05
0.0002002801649
-0.0001965236535
0.0001990536175
0.0004025722806
-0.0002013978735
-0.0002016486347
-1.115113066e-05
0.0002018173312
-1.139520435e-05
0.000200360702
1.14343767e-05
-0.0002031481677
1.462977516e-05
0.0002031144821
-1.588688647e-05
1.565050518e-05
2.359798149e-05
0.0004059534519
-2.364692832e-05
-0.0002028106801
-0.000203093825
0.0004061279963
1.192526751e-05
-0.0002031797483
-0.0002032449316
-1.321349775e-05
0.0002034548588
-0.0004060538602
2.411719283e-05
0.0004060338951
-2.404332805e-05
2.411746417e-05
-2.385757199e-05
0.000406212364
-0.0002031057092
0.0004059404109
-2.139975983e-05
-0.0002013390588
1.112266216e-05
0.000400431741
-0.0002008005322
0.0004001223882
1.449926745e-05
-1.388234556e-05
0.0002022898235
0.0002021747186
-1.939519733e-05
-0.0002001660093
-0.0002003914056
1.018909542e-05
1.017285272e-05
-0.0002005516754
-1.035987541e-05
0.0001093051165
0.001598419617
-0.0001093051165
0.001602047155
5.511376267e-05
-0.0008006164997
-0.0008014306552
-5.695857645e-05
0.0008014306552
-0.001602047155
0.0001019249802
0.001600262516
-0.0001056152546
0.0001056152546
-0.0001055605928
-5.32680232e-05
0.0008046868991
0.001605303777
-0.0008030589662
5.326802321e-05
5.234723141e-05
0.001605303777
-0.0004039186401
2.367220934e-05
0.0004040922813
-2.385672983e-05
2.37402632e-05
-2.36398259e-05
-2.397250991e-05
-0.0004048890069
0.0004045964438
-0.0004048286905
0.0004043489095
0.0004045001496
-0.0002024416082
1.205662205e-05
1.188843064e-05
2.319297729e-05
-0.0002025457472
-0.0002027972108
-0.0008022375928
5.728836966e-05
0.0007951422848
-7.470713797e-05
5.789219325e-05
-5.51137627e-05
-5.34525096e-05
-0.0007955853966
0.0007971190952
-0.0007926794115
0.0007979292752
0.0003945017674
2.069920166e-05
5.047780133e-05
-0.0003940784036
-0.0003954971103
-0.0003963985344
-0.0003976084637
2.475703312e-05
-0.0008030589662
0.000803058968
-5.880313552e-05
2.928626766e-05
-5.880313552e-05
-0.000203307211
0.0002033999901
-1.440934735e-05
-1.266796695e-05
1.836453994e-05
-1.756325898e-05
-0.0001996793714
-0.000199834902
-0.0002002568577
-0.0001993878463
1.663763251e-05
0.0003999190516
-1.851733977e-05
-0.0003991637436
0.0003982381171
8.855569192e-06
-0.0003970455511
0.0003961006489
-1.686871124e-05
-1.491432823e-05
0.000204121135
-1.294823054e-05
1.37337445e-05
-1.370114222e-05
1.323132691e-05
0.0002022946319
-1.346215549e-05
-0.0002037899962
0.0002033201809
-0.0002028636365
-1.303307771e-05
-1.289991752e-05
-0.0002036439284
1.28396168e-05
0.0002029550262
-1.173583617e-05
1.193765957e-05
-1.191560815e-05
-1.328629919e-05
0.0002043191465
0.0002033686322
-0.0002001719722
1.1839521e-05
0.0002008589619
-1.35563585e-05
1.243800383e-05
-1.379173111e-05
-1.177777074e-05
0.0002010872383
0.0002012175905
-1.368556656e-05
0.0002023626103
0.0002030791765
8.9223107e-05
0.001619359562
-8.930572028e-05
-0.0008091980553
-0.0008102955109
0.001623928166
-0.0008109567244
-0.0008125341503
-4.66155161e-05
0.0008125891153
-0.001612232977
0.001568986751
-8.090828014e-05
-7.691888034e-05
-1.304594333e-05
-0.0002019311477
0.0002023218981
-0.000202397907
0.0002023375026
-1.574698537e-05
1.424035076e-05
-1.430075509e-05
1.375888012e-05
-1.299637217e-05
-0.0002033606567
1.278431558e-05
0.0002035953884
-1.257465353e-05
-0.0002034654973
0.0002033554225
-0.0002032135131
1.214232113e-05
-1.22468453e-05
1.238875466e-05
0.0002030026586
1.345953825e-05
0.0002012542488
-1.262627376e-05
0.0002015804221
-0.0002013323104
1.143640182e-05
-1.223546547e-05
1.248357711e-05
-1.1552908e-05
-1.322828429e-05
0.0002015451163
7.311895438e-06
-2.609114689e-06
0
0
0
-2.048617739e-08
0
0
0
0
0
0.0004028357417
-2.288204826e-05
2.3298452e-05
-2.32508473e-05
0.000402788137
0.0004031939937
0.001608603519
-9.389951837e-05
-0.0008047470503
8.913950836e-05
-8.83839056e-05
0.001603043439
0.001612316737
0.001410405805
-0.001505163784
-1.732151252e-05
-4.848804612e-06
1.18633229e-05
0.001292207406
-2.511021142e-06
0.001325298816
0.000841444882
-0.00100083938
6.90765074e-05
-7.227892229e-05
6.391933071e-05
0.0006960714997
-7.540631535e-05
0.0007399304892
0.0002755305197
-0.0004030779977
3.877642493e-05
-2.815933026e-05
2.439142339e-05
0.0001672882548
-3.13620706e-05
0.0001874876376
0
-4.373100674e-07
0
0
0
0
0
0
0
0
0
0
0
0
0
0
0.0008034995592
-5.695857911e-05
5.603592501e-05
-5.603592501e-05
0.0008034995592
0.0008046868991
0.001593822406
-9.436343709e-05
8.061362963e-05
-7.740378162e-05
0.001552009389
8.585871652e-05
0.001569267641
0.001259924615
-0.001382306679
2.305808596e-06
-1.329307494e-05
2.198807096e-05
0.001122824585
-1.726640795e-05
0.001178135503
0.0006779493901
-0.0008301097402
5.638519412e-05
-5.993567715e-05
5.653619153e-05
0.0005270383271
-6.296741318e-05
0.0005669101675
0.0001601402702
-0.0002620339334
2.129004912e-05
-1.37793624e-05
1.053330308e-05
7.898538566e-05
-1.679876816e-05
9.927942604e-05
0
0
0
0
0
0
0
0
0
0
0
0
0
0
0
0
0.001590030618
-0.001591782972
-0.0001129940253
0.0001092666683
-0.0001080165661
0.001583311139
0.001595219496
0.001468434488
-0.001526146996
-7.245918777e-05
6.018448321e-05
-5.233008419e-05
0.001390038163
6.708947988e-05
0.001448679052
0.001047284665
-0.001176613327
1.485107952e-05
-3.118890354e-05
3.176393561e-05
0.0009081169471
-3.013301076e-05
0.0009751419042
0.000479112896
-0.0006190525773
4.427162448e-05
-4.240788358e-05
3.691058679e-05
0.0003489176093
-4.732184053e-05
0.0003922522987
6.370256513e-05
-0.0001368789434
7.851963889e-06
-3.770853498e-06
2.469126775e-06
1.729051093e-05
-5.95397546e-06
2.993901025e-05
0
0
0
0
0
0
0
0
0
0
0
0
0
0
0
0
0.001376753261
-0.001408733146
-8.277574859e-05
8.615425987e-05
-7.397427211e-05
0.001332626237
9.631538675e-05
0.001427859767
0.001122084721
-0.001205264163
-3.368413768e-05
2.611170989e-05
-1.78854286e-05
0.00102712668
3.490134256e-05
0.001135756482
0.0006925628349
-0.000809703424
2.009112314e-05
-2.870316539e-05
2.586927217e-05
0.0005740222641
-3.063622819e-05
0.0006645370168
0.0002454484132
-0.0003468105123
2.008010219e-05
-1.917477706e-05
1.376526534e-05
0.0001571576756
-2.502838005e-05
0.0002048431086
5.598816144e-06
-3.400533677e-05
6.93020832e-07
-2.219317744e-07
3.615444597e-08
0
-6.386760983e-07
4.327096964e-07
0
0
0
0
0
0
0
0
0
0
0
0
0
0
0
0
0.0008530015405
-0.0008880748328
-2.919553279e-05
3.47538838e-05
-2.380096386e-05
0.0008072605957
4.730258102e-05
0.0009520101057
0.0006165971731
-0.0006877263816
-3.786171693e-06
5.267197311e-07
2.141694139e-06
0.000540147268
4.80579541e-06
0.000663355286
0.0003001085588
-0.0003795708134
1.049589339e-05
-1.387820447e-05
9.744168256e-06
0.0002245764462
-1.817367106e-05
0.0003051857727
4.886948851e-05
-9.615567986e-05
2.667970968e-06
-2.572634837e-06
9.06638159e-07
1.659804435e-05
-5.29420774e-06
4.038996414e-05
0
0
0
0
0
0
0
0
0
0
0
0
0
0
0
0
0
0
0
0
0
0
0
0
0.0002950553948
-0.0003146236717
-2.659271423e-06
4.00574211e-06
-1.475265528e-06
0.0002695043257
8.381815302e-06
0.0003877112161
0.0001685377773
-0.0002048914419
1.411168918e-06
-2.718050382e-06
1.721716873e-06
0.0001315832172
-3.405143793e-06
0.0002139747685
3.538900122e-05
-6.305522429e-05
7.512865523e-07
-1.311397671e-06
2.911344219e-07
1.488798696e-05
-3.251023196e-06
4.537781619e-05
0
-1.308343987e-08
0
0
0
0
-1.531512867e-09
0
0
0
0
0
0
0
0
0
0
0
0
0
0
0
0
0
0
0
0
0
0
0
0
0
1.047860136e-05
-1.320005224e-05
2.823084606e-10
-4.482252056e-08
6.330530126e-10
7.408179546e-06
-4.992811064e-08
3.573583238e-05
2.812042765e-07
-1.922204885e-06
0
-3.293258951e-09
0
0
-1.951654146e-07
4.198130709e-06
0
0
0
0
0
0
0
0
0
0
0
0
0
0
0
0
0
0
0
0
0
0
0
0
0
0
0
0
0
0
0
0
0
0
0
0
0
0
0
0
0
0
0
0
0
0
0
0
0
0
0
0
0
0
0
0
0
0
0
0
0
0
0
0
0
0
0
0
0
0
0
0
0
0
0
0
0
0
0
0
0
0
0
0
0
0
0
0
0
0
0
0
0
0
0
0
0
0
0
0
0
0
0
0
0
0
0
0
0
0
0
0
0
0
0
0
0
0
0
0
0
0
0
0
0
0
0
0
0
0
0
0
0
0
0
0
0
0
0
0
0
0
0
0
0
0
0
0
0
0
0
0
0
0
0
0
0
0
0
0
0
0
0
0
0
0
0
0
0
0
0
0
0
0
0
0
0
0
0
0
0
0
0
0
0
0
0
0
0
0
0
0
0
0
0
0
0
0
0
0
0
0
0
0
0
0
0
0
0
0
0
0
0
0
0
0
0
0
0
0
0
0
0
0
0
0
0
0
0
0
0
0
0
0
0
0
0
0
0
0
0
0
0
0
0
0
0
0
0
0
0
0
0
0
0
0
0
0
0
0
0
0
0
0
0
0
0
0
0
0
0
0
0
0
0
0
0
0
0
0
0
0
0
0
0
0
0
0
0
0
0
0
0
0
0
0
0
0
0
0
0
0
0
0
0
0
0
0
0
0
0
0
0
0
0
0
0
0
0
0
0
0
0
0
0
0
0
0
0
0
0
0
0
0
0
0
0
0
0
0
0
0
0
0
0
0
0
0
0
0
0
0
0
0
0
0
0
0
0
0
0
0
0
0
0
0
0
0
0
0
0
0
0
0
0
0
0
0
0
0
0
0
0
0
0
0
0
0
0
0
0
0
0
0
0
0
0
0
0
0
0
0
0
0
0
0
0
0
0
0
0
0
0
0
0
0
0
0
0
0
0
0
0
0
0
0
0
0
0
0
0
0
0
0
0
0
0
0
0
0
0
0
0
0
0
0
0
0
0
0
0
0
0
0
0
0
0
0
0
0
0
0
0
0
0
0
0
0
0
0
0
0
0
0
0
0
0
0
0
0
0
0
0
0
0
0
0
0
0
0
0
0
0
0
0
0
0
0
0
0
0
0
0
0
0
0
0
0
0
0
0
0
0
0
0
0
0
0
0
0
0
0
0
0
0
0
0
0
0
0
0
0
0
0
0
0
0
0
0
0
0
0
0
0
0
0
0
0
0
0
0
0
0
0
0
0
0
0
0
0
0
0
0
0
0
0
0
0
0
0
0
0
0
0
0
0
0
0
0
0
0
0
0
0
0
0
0
0
0
0
0
0
0
0
0
0
0
0
0
0
0
0
0
0
0
0
0
0
0
0
0
0
0
0
0
0
0
0
0
0
0
0
0
0
0
0
0
0
0
0
0
0
0
0
0
0
0
0
0
0
0
0
0
0
0
0
0
0
0
0
0
0
0
0
0
0
0
0
0
0
0
0
0
0
0
0
0
0
0
0
0
0
0
0
0
0
0
0
0
0
0
0
0
0
0
0
0
0
0
0
0
0
0
0
0
0
0
0
0
0
0
0
0
0
0
0
0
0
0
0
0
0
0
0
0
0
0
0
0
0
0
0
0
0
0
0
0
0
0
0
0
0
0
0
0
0
0
0
0
0
0
0
0
0
0
0
0
0
0
0
0
0
0
0
0
0
0
0
0
0
0
0
0
0
0
0
0
0
0
0
0
0
0
0
0
0
0
0
0
0
0
0
0
0
0
0
0
0
0
0
0
0
0
0
0
0
0
0
0
0
0
0
0
0
0
0
0
0
0
0
0
0
0
0
0
0
0
0
0
0
0
0
0
0
0
0
0
0
0
0
0
0
0
0
0
0
0
0
0
0
0
0
0
0
0
0
0
0
0
0
0
0
0
0
0
0
0
0
0
0
0
0
0
0
0
0
0
0
0
0
0
0
0
0
0
0
0
0
0
0
0
0
0
0
0
0
0
0
0
0
0
0
0
0
0
0
0
0
0
0
0
0
0
0
0
0
0
0
0
0
0
0
0
0
0
0
0
0
0
0
0
0
0
0
0
0
0
0
0
0
0
0
0
0
0
0
0
0
0
0
0
0
0
0
0
0
0
0
0
0
0
0
0
0
0
0
0
0
0
0
0
0
0
0
0
0
0
0
0
0
0
0
0
0
0
0
0
0
0
0
0
0
0
0
0
0
0
0
0
-0.000810741505
4.686502188e-05
0.0008105904312
-4.720925182e-05
4.720098357e-05
-0.0008107332368
-4.750533596e-05
-0.0008084187342
-0.0003439070864
5.783503572e-06
-2.905847391e-05
8.781967448e-05
-0.0004026682869
-0.0004028378594
-2.905694238e-05
-1.184360742e-05
-0.0002024129154
0.0002017372602
-0.0002020285504
-4.770192733e-05
-0.0008067431529
0.0008058688145
-0.0008055379867
-4.803275513e-05
-4.711542719e-05
0.0004058385176
-0.0004057167885
-2.438292538e-05
-2.436884147e-05
2.336957055e-05
-2.362184033e-05
0.0003984447476
-0.0003992984449
0.0003993180478
2.33499677e-05
2.249778698e-05
1.23937745e-05
-1.2207059e-05
-0.0002030251131
1.232506259e-05
1.335373331e-05
1.072832926e-05
-1.054509536e-05
1.124067551e-05
0.0002027674047
1.21100882e-05
0.000396218921
-2.141030178e-05
2.358201093e-05
-2.376162435e-05
9.705788738e-06
-9.543338104e-06
5.900495754e-07
0.001363868637
-0.001494765699
0.001391966678
-0.001265902313
0.001121348991
2.876164564e-05
3.006258852e-05
-7.693844649e-05
0.0007759591804
-0.0009766966728
0.0008166755024
-0.0006560609646
0.0005011455038
7.562495132e-05
7.241272748e-05
-3.594504176e-05
0.0002088832991
-0.0003583861537
0.0002332249551
-0.0001309240952
5.934516794e-05
2.074549945e-05
1.711946244e-05
2.317581832e-05
0.0004016889158
-2.335823623e-05
-0.000402294188
0.0004022191591
-0.0004023101611
2.359245454e-05
-2.372304688e-05
2.363204481e-05
-2.38730189e-05
-2.36759554e-05
0.0004027442264
0.0004025198106
8.691046955e-05
0.001574722206
-0.00160370813
0.001591791466
-0.0008002493379
-0.00154924348
5.058593623e-05
0.001472850233
-7.094816749e-05
7.331209213e-05
-7.83009342e-05
-7.455562158e-05
0.001569423968
-1.542870334e-05
0.001214816529
-0.001375341221
0.001251512833
-0.001119896702
-5.746664486e-05
0.0009677803585
3.356284608e-05
-3.711331016e-05
4.074935612e-05
3.17798245e-05
0.001153719866
-6.728203391e-05
0.0006144406198
-0.0008097607987
0.0006521941244
-0.0005005289914
-5.287815457e-05
0.0003614031116
6.049720601e-05
-6.338627982e-05
5.624177673e-05
6.836085266e-05
0.0005449001442
-1.865812814e-05
0.0001198650235
-0.0002392730333
0.0001442094252
-6.758396005e-05
-4.416657621e-06
1.878939004e-05
9.651628399e-06
-1.233791832e-05
7.164624204e-06
1.489755523e-05
8.308407076e-05
2.69048527e-05
5.603592501e-05
0.0008022448107
-5.603592501e-05
-0.0008030589662
0.0008030589662
-5.511376268e-05
0.0008034995592
-5.511376267e-05
-5.419135381e-05
0.0008034995592
7.286677821e-05
0.001493790106
-0.001578460217
0.00152800905
-0.001449887895
2.602685591e-05
0.001346622893
-4.908963693e-05
5.374250703e-05
-4.333852284e-05
-5.962095255e-05
0.001480949879
-2.88598323e-05
0.00103259951
-0.001221991167
0.001081168853
-0.000929306304
-5.495812738e-05
0.0007728458569
4.646619043e-05
-4.254394704e-05
4.574918907e-05
4.369025884e-05
0.0009806902829
-5.083254773e-05
0.0004346025855
-0.0006256497205
0.0004830398003
-0.0003501384963
-3.437523115e-05
0.0002324816654
4.147960639e-05
-4.689537361e-05
3.651623083e-05
5.150375115e-05
0.0003870850817
-8.284030021e-06
4.571793484e-05
-0.0001345139208
6.08644678e-05
-1.535817102e-05
-5.77266437e-07
6.722958787e-08
2.502822842e-06
-3.622156806e-06
1.516409204e-06
5.495980875e-06
2.532566248e-05
1.502035177e-06
0.0001167124621
0.001581954654
0.0001037375222
0.001501580876
-0.001572863163
0.001553859668
-0.001521104672
8.859143213e-05
0.001471745484