/*--------------------------------*- C++ -*----------------------------------*\
| =========                 |                                                 |
| \\      /  F ield         | OpenFOAM: The Open Source CFD Toolbox           |
|  \\    /   O peration     | Version:  v2012                                 |
|   \\  /    A nd           | Website:  www.openfoam.com                      |
|    \\/     M anipulation  |                                                 |
\*---------------------------------------------------------------------------*/
FoamFile
{
    version     2.0;
    format      ascii;
    class       volScalarField;
    location    "2";
    object      nut;
}
// * * * * * * * * * * * * * * * * * * * * * * * * * * * * * * * * * * * * * //

dimensions      [0 2 -1 0 0 0 0];


internalField   nonuniform List<scalar> 
3019
(
0.05234228741
0.2057292711
0.2748841223
0.3619304771
0.4772654935
0.6344758161
0.8616313544
1.111928218
1.155060197
1.150653563
1.148893773
1.148582097
0.1064223345
0.3058147056
0.3860853423
0.4688902875
0.5771366285
0.7194085466
0.9219810898
1.146167966
1.156070676
1.151260864
1.149267089
1.148891928
0.1517664257
0.4132782722
0.5849846874
0.6293542995
0.711197898
0.8379907012
1.017306759
1.166779559
1.157060991
1.151963839
1.149797515
1.149356462
0.179224899
0.456986921
0.763092835
0.8521939387
0.8909760598
0.9897157501
1.152570813
1.167857137
1.157967946
1.152691522
1.150418463
1.14995409
0.2489987142
0.5320029316
0.8207645784
1.017736232
1.114402327
1.155738365
1.171144319
1.168648336
1.158730228
1.153373401
1.151039766
1.150542543
0.3317435855
0.6164448098
0.8687812183
1.031012831
1.116783893
1.157059547
1.171758981
1.169090101
1.159313958
1.153968236
1.151639458
1.15113786
0.3965263617
0.6679961649
0.8871729351
1.034087693
1.117667896
1.157459633
1.171866976
1.169227771
1.159687215
1.154406687
1.152113039
1.151613267
0.4145618811
0.6746631
0.8908336901
1.035038182
1.117626854
1.157203863
1.171579879
1.169107233
1.159928406
1.154771716
1.152529045
1.152030829
0.4205841502
0.675197379
0.8913735364
1.03488498
1.11695765
1.156487553
1.170994726
1.168783221
1.15998873
1.154970522
1.152785367
1.152291854
0.4239859378
0.6740753371
0.8898621949
1.033823911
1.115808076
1.155445285
1.170188579
1.168307216
1.159974865
1.155126079
1.152997592
1.152503839
0.4259727075
0.6721417059
0.88690377
1.031862335
1.114234583
1.154155358
1.169220152
1.167720574
1.15981616
1.155122917
1.153045885
1.152551492
0.4268975191
0.6696043004
0.8830516776
1.029089871
1.11226133
1.152657252
1.168130818
1.167052574
1.159637308
1.155119609
1.153087902
1.152585769
0.4269829727
0.6665835184
0.8786469884
1.02568118
1.109927451
1.150976912
1.166949359
1.166324096
1.159331713
1.154962624
1.15296892
1.152458477
0.4264419164
0.663191253
0.8738840192
1.021807245
1.107287522
1.149139152
1.165696767
1.165549712
1.159050852
1.154850906
1.15288984
1.152364894
0.4254493418
0.6595317954
0.8688825746
1.017598854
1.104397464
1.147168819
1.164389145
1.164740316
1.158645528
1.154583259
1.152649763
1.152111599
0.4241074623
0.6556918293
0.8637249145
1.01315015
1.101305961
1.145088153
1.163038458
1.163903726
1.158304508
1.154402432
1.1524927
1.151936544
0.4225131478
0.6517421469
0.8584704448
1.008527625
1.09805227
1.142915752
1.1616537
1.163045708
1.157832113
1.154060477
1.152172948
1.151601956
0.420753654
0.6477324275
0.8531614024
1.003779091
1.094667358
1.140666473
1.160241498
1.162171356
1.157454442
1.15383271
1.151964201
1.151374286
0.4188943359
0.6436985992
0.8478303371
0.9989414143
1.091176661
1.138352652
1.158806788
1.161282791
1.156945082
1.153453816
1.151605488
1.151001528
0.4169683297
0.6396674586
0.8425039724
0.9940451409
1.087602068
1.135984379
1.157353286
1.16038493
1.156529509
1.153176324
1.151346311
1.15072372
0.4150126442
0.6356625463
0.8372081322
0.9891181204
1.083963087
1.133570266
1.155884359
1.159474941
1.156032391
1.152813739
1.151002881
1.150368654
0.4130752911
0.6317170416
0.8319738759
0.9841888658
1.080278934
1.131119817
1.154406134
1.158564214
1.155527163
1.152445341
1.150657061
1.150004755
0.4112016885
0.6278669155
0.8268332011
0.9792842307
1.076567496
1.128640459
1.152937677
1.157653791
1.15515381
1.152181428
1.150409611
1.14974926
0.4094482708
0.6241808441
0.8218391825
0.9744420964
1.072850404
1.12613896
1.151553842
1.156817847
1.154451254
1.151669796
1.149934721
1.149256099
0.03926742845
0.04906619273
0.1811632065
0.0776486936
0.04033495194
0.10089951
0.2475636877
0.1843524264
0.1082467826
0.07951090861
0.1423575616
0.06263929837
0.0600154913
0.07514472307
0.1590951942
0.146258158
0.0270923598
0.04737669541
0.02453413823
0.03264838236
0.0859559631
0.05073008873
0.1461611945
0.3397771992
0.2783757608
0.1019548004
0.09030634538
0.03494186692
0.1974031097
0.1655346095
0.07831476499
0.08620989307
0.008186586343
0.01660029543
0.02826035512
0.07090217836
0.01200199052
0.01267831811
0.03234029527
0.01219568899
0.01207054446
0.01293698936
0.01207601331
0.01261608191
0.01695103269
0.01367707537
0.02346213124
0.01862833027
0.01265343254
0.008533530402
0.01846296727
0.0117749094
0.01210851956
0.1878690129
0.2387256619
0.03415226525
0.01338380793
0.01662626887
0.01141096878
0.01380171305
0.02511893638
0.04936613079
0.0123939445
0.008933801843
0.009039790112
0.01266688654
0.01249143306
0.03104928484
0.02582268518
0.01199267701
0.01175911144
0.01207637045
0.01217631486
0.008507762782
0.01208044734
0.01233798611
0.01234696965
0.01256527762
0.01229237875
0.01246911868
0.01238458539
0.01222657343
0.01263827935
0.01267745594
0.01254189202
0.01284102706
0.0129900114
0.01287385695
0.0122011767
0.0116226951
0.01179501967
0.01215352773
0.01184258467
0.01216113891
0.2560579864
0.3170070672
0.3409753017
0.4258030665
0.4585181152
0.5692626291
0.06259060206
0.1166474442
0.1063356934
0.2721021427
0.3334805877
0.2566438185
0.3524501371
0.4154721884
0.3380918736
0.4388758462
0.5169746396
0.4451650328
0.5469617711
0.6459005906
0.5872289755
0.1187515358
0.2294370183
0.2100777282
0.4060107564
0.5149499611
0.3688817535
0.525347175
0.5657816804
0.4468405934
0.5832811897
0.6493201026
0.5474177913
0.6753466864
0.7586440783
0.6710288621
0.09839276681
0.08387704028
0.1684685234
0.3700610543
0.3454064983
0.4431539771
0.6732969556
0.5810479478
0.7496989562
0.7872572271
0.6145862889
0.7909161224
0.8243843795
0.6862777244
0.8419092266
0.9126889972
0.7951401237
0.1579164652
0.1084594959
0.2286324594
0.4322492412
0.3822011788
0.5108752929
0.736707368
0.6878192048
0.806343271
0.9717506674
0.855188804
1.012372102
1.053193921
0.876305681
1.058710341
1.105946396
0.9587146314
0.2535370351
0.1803123212
0.3116445299
0.5196274993
0.4528937739
0.5968111972
0.8002321822
0.7536748806
0.8589018607
0.9958614299
0.9790446783
1.029209985
1.099963845
1.097361207
1.116358583
1.149774942
1.148566752
0.3272867311
0.2757812608
0.3842300931
0.5907010152
0.5410190253
0.6599158226
0.8366630317
0.8128550614
0.8854776488
1.003219077
0.9992498302
1.033581948
1.101517179
1.100509765
1.117550035
1.1504715
1.150035447
0.3533063269
0.3383760645
0.4122072878
0.6095072621
0.6009378176
0.67390434
0.8429130637
0.8390199987
0.8902909677
1.005170002
1.003931242
1.034923837
1.101839396
1.101687493
1.117704358
1.150402
1.150515465
0.3604405307
0.3555832128
0.4194253143
0.6121735933
0.6106454653
0.6752928938
0.8441623208
0.8435535039
0.8914523776
1.005524777
1.005371301
1.035009179
1.101396229
1.101789482
1.117173781
1.149789291
1.150292324
0.3644905029
0.3616329136
0.4232872213
0.6122821865
0.6123298874
0.6744442511
0.8428496579
0.8440240135
0.8904007477
1.004749719
1.005435073
1.034174291
1.10038114
1.101191601
1.116136291
1.148787984
1.149570833
0.3670507959
0.3652484988
0.4255858747
0.6113863474
0.6121338217
0.672687146
0.840021766
0.8422519255
0.8877450449
1.002867859
1.004380156
1.032434274
1.098858098
1.100046821
1.114666384
1.147491202
1.148489105
0.3685149851
0.3675074116
0.4267520321
0.6097898754
0.6110447076
0.6702880083
0.8363256457
0.8391610513
0.8840764228
1.000012141
1.002235987
1.029849911
1.096846889
1.098399636
1.112790311
1.145946324
1.147127184
0.3691209436
0.3687380757
0.4270301662
0.6076361839
0.609297903
0.6673777672
0.832090397
0.8353079533
0.8797875291
0.9964219292
0.9991731359
1.026582908
1.094391946
1.09627185
1.110541799
1.14418133
1.14552485
0.3690429194
0.3691584253
0.4266230942
0.6050386078
0.6070225029
0.6640678843
0.8274923227
0.8309685884
0.8751008039
0.9923185473
0.9954363095
1.022811401
1.091564093
1.093716612
1.107972993
1.142223263
1.143708949
0.3684531576
0.3689346049
0.425733993
0.6021082747
0.6043318578
0.660466537
0.8226469904
0.8262994608
0.8701502189
0.9878604215
0.99123166
1.018676524
1.088436623
1.090807233
1.105140545
1.14010081
1.141707066
0.3675014399
0.3682432168
0.4244697919
0.5989403443
0.6013337782
0.6566644122
0.8176379626
0.8214061809
0.865025353
0.9831560461
0.9867033134
1.014280837
1.085072932
1.087615248
1.102095427
1.137840976
1.13954783
0.3662918507
0.367217752
0.4229309932
0.5956154902
0.5981196559
0.6527366415
0.812528924
0.8163668167
0.859790496
0.9782795282
0.9819499182
1.009696625
1.081523045
1.084200738
1.098879039
1.135466698
1.137257329
0.3649257275
0.3659598252
0.4212042336
0.5921930718
0.5947658228
0.64873816
0.8073662885
0.8112407359
0.8544917218
0.973282938
0.9770392375
1.004975769
1.077825943
1.080610827
1.095524349
1.132996834
1.134857567
0.3634760527
0.3645676735
0.4193669539
0.5887168162
0.5913263155
0.6447074725
0.8021844176
0.8060704169
0.8491634672
0.9682050441
0.9720190623
1.000157317
1.074012558
1.076881992
1.092057919
1.13044681
1.132366299
0.3619816582
0.3631035291
0.4174545738
0.5852173728
0.5878423277
0.6406736664
0.797010694
0.800888245
0.843833641
0.9630773052
0.9669259495
0.9952730776
1.070108999
1.07304375
1.08850243
1.127829608
1.129798307
0.3604695251
0.3616008721
0.4155033876
0.5817205997
0.5843402314
0.6366595774
0.7918693175
0.7957202587
0.8385274346
0.9579277005
0.9617901141
0.9903510567
1.066138095
1.06912127
1.084877709
1.12515628
1.127166057
0.3589752
0.3600871033
0.413559362
0.5782624897
0.5808494362
0.6326959162
0.786789899
0.7905913203
0.8332747707
0.9527857094
0.9566395887
0.9854197858
1.062122094
1.065137018
1.081203143
1.122438535
1.124480547
0.3575393659
0.3586001621
0.4116669703
0.5748900697
0.5774063939
0.6288172135
0.7818047692
0.7855325232
0.8281071591
0.9476798664
0.9515040511
0.9805063842
1.058081778
1.06111303
1.077496881
1.119686494
1.12175329
0.3561854815
0.3571834113
0.4098507813
0.5716259407
0.5740654947
0.6250427005
0.7769318873
0.7805770882
0.8230438631
0.9426319795
0.9464118626
0.9756326904
1.054036092
1.0570698
1.073776098
1.116911096
1.118994115
0.3548681675
0.3558867909
0.4080338671
0.5682824863
0.5708851702
0.6211631126
0.7718852514
0.7757818752
0.8177883226
0.9373582234
0.9414047426
0.9705301347
1.049778031
1.053033084
1.069855791
1.113989591
1.116212964
0.03727661236
0.03056405614
0.03221795268
0.06480426966
0.06123183219
0.04551889574
0.1644952589
0.1446152134
0.1541072989
0.07240045812
0.02820743949
0.0182531549
0.02430546425
0.04124263791
0.1368343685
0.1312718993
0.08881368017
0.2144492484
0.1815809656
0.2180533134
0.1583366119
0.1740522183
0.2075242178
0.09034167038
0.07757193255
0.1391523922
0.1113019741
0.1218815398
0.106909809
0.1374959595
0.02081897134
0.02936662928
0.04841986682
0.0510746242
0.0657432941
0.05689950568
0.04264457877
0.04552320097
0.1269245631
0.1195805915
0.06609552002
0.1542863494
0.1385031814
0.1428703684
0.1271879661
0.1336983296
0.1502002083
0.0181897763
0.02021937871
0.02876648078
0.01374440363
0.01341544413
0.01284818808
0.04471445414
0.0263491478
0.03133107307
0.02262937589
0.01475420125
0.01621602491
0.05029851836
0.04661180011
0.02715502844
0.08212672271
0.06342223613
0.06715978221
0.05947919534
0.07786832892
0.03709764269
0.04036488809
0.0538065028
0.01493232119
0.01412758121
0.03235703163
0.0323001563
0.2152951813
0.2093906934
0.1244227167
0.3341970945
0.2760443183
0.2816532011
0.2406676885
0.2695516638
0.3235883539
0.0984247275
0.0789051853
0.08259154746
0.07114631211
0.07489857099
0.09400669748
0.04215561735
0.05743304009
0.05379013853
0.1840829767
0.1636584271
0.1709902274
0.1482341011
0.1552386918
0.1733572393
0.08526595076
0.1290580507
0.1227833134
0.0824667236
0.0511423669
0.05394465142
0.01497840979
0.01159126958
0.01200496689
0.03747929705
0.03569275892
0.04237285815
0.04073651781
0.02615332736
0.06776970594
0.05405241498
0.05602256297
0.01192419331
0.01393092535
0.01294147038
0.01660325416
0.01514816059
0.01222345892
0.03090036288
0.02258845822
0.02475051302
0.01580357062
0.01293156251
0.0134184434
0.01246469101
0.01242997272
0.01457815615
0.02205686114
0.01592249495
0.01686430909
0.01420864881
0.01492024093
0.01992467425
0.01280698779
0.01356341398
0.02037960062
0.2075378361
0.1941888779
0.1748212134
0.2227042854
0.206665631
0.2211334535
0.0267119107
0.02863866792
0.03581700391
0.01411575909
0.01994015063
0.01825352046
0.02413592209
0.02220049284
0.01531240678
0.03314104529
0.03158729994
0.02291968648
0.04574942064
0.03927963817
0.03927374619
0.0367468467
0.04453461833
0.01662942056
0.01575245612
0.02936767886
0.02141556634
0.02305537146
0.01823463106
0.01968539749
0.0272044511
0.6068071803
0.722005539
0.8388883166
0.9590537371
1.08887533
1.159771114
0.05580858685
0.07208151922
0.0685655605
0.2230018621
0.2428111002
0.2233284824
0.2967163443
0.3167697721
0.2950109602
0.3850827267
0.411313132
0.3875856349
0.4990082102
0.5331243784
0.511930712
0.6848190082
0.7903515134
0.7504190683
0.8881667001
0.9973360411
0.9766491837
1.105788374
1.161123588
1.160475681
0.1106515637
0.1469464428
0.1420344629
0.349068076
0.368081998
0.3253028491
0.4269293081
0.4450321756
0.4054693439
0.5030989346
0.5267554088
0.4934437166
0.6054839625
0.6367746018
0.607695598
0.7895466551
0.8854069544
0.8362542829
0.9650566664
1.064663037
1.02852116
1.153103936
1.162383344
1.161808436
0.1557805003
0.2241609512
0.2203458175
0.4216010248
0.4956449793
0.4861125583
0.6540194165
0.6539838746
0.592704889
0.6790854279
0.6934203639
0.646358197
0.7521163162
0.7760528094
0.7383234466
0.9299392626
1.004196399
0.9411137953
1.079192612
1.163210665
1.110842445
1.167281868
1.163501685
1.162993459
0.1930484757
0.2602399521
0.2474194289
0.4729929247
0.5500170799
0.533735841
0.7771732203
0.8436234618
0.8313698147
0.9196935913
0.9174888729
0.856248639
0.943112607
0.9591084071
0.9083029634
1.104225973
1.163822302
1.077219466
1.170589398
1.170690313
1.170153135
1.168319148
1.164416832
1.164007548
0.2700154385
0.3325340468
0.3120177189
0.5538623194
0.6273060786
0.6070316726
0.8345807848
0.8915201038
0.8802834909
1.022420482
1.053043882
1.049893629
1.115180662
1.128914912
1.128278036
1.156830388
1.168300854
1.167809063
1.171522313
1.171406398
1.171102988
1.168925291
1.165068288
1.164802471
0.3509498303
0.4187357229
0.3980506573
0.6338817658
0.6992340364
0.6837276537
0.8765995552
0.9238593312
0.9181154458
1.032079017
1.058787093
1.058012959
1.117116843
1.130494794
1.130225223
1.157431365
1.168755427
1.168608993
1.171869463
1.171686558
1.17159333
1.169207907
1.165450187
1.165313942
0.4055668783
0.4731668631
0.4653474081
0.6710044408
0.7305479426
0.7279380428
0.8885038288
0.931589387
0.9305480293
1.034464191
1.060481757
1.060226343
1.117729115
1.130948561
1.13091665
1.157318092
1.168643402
1.168760447
1.171766604
1.171602029
1.171681952
1.169207917
1.165593857
1.165575063
0.4164896441
0.4811842213
0.4798630098
0.6750863769
0.7350820768
0.7345886219
0.8911934531
0.9337138744
0.9334166894
1.035087367
1.060795008
1.060805615
1.117510489
1.130653214
1.13078335
1.156700982
1.168112379
1.16842212
1.171319431
1.171233001
1.171445591
1.168977045
1.165538828
1.165614787
0.4215982818
0.4844058941
0.4837923988
0.6750130796
0.7349195898
0.735178149
0.8911656715
0.9337445957
0.9339027922
1.034704224
1.060261768
1.060465527
1.116711682
1.129828681
1.130076429
1.155730166
1.167279954
1.167727849
1.170615318
1.170654806
1.170963847
1.16856971
1.165323614
1.165475913
0.4245968679
0.4861184449
0.4857890994
0.6736561875
0.7330648431
0.7336266162
0.8892327707
0.9320974543
0.9326507549
1.033416238
1.058985768
1.059374209
1.115453262
1.128595758
1.128938641
1.154496945
1.166228269
1.166777741
1.16972179
1.169927008
1.170305024
1.168032591
1.16498972
1.165196261
0.4262922977
0.4868643609
0.4867588611
0.6715578381
0.730351883
0.7310913027
0.886007186
0.9291312684
0.9299711747
1.031238834
1.056976532
1.057545485
1.113777438
1.127007103
1.127436109
1.15304808
1.165008569
1.165637039
1.168688618
1.16909023
1.169518985
1.167400976
1.16456329
1.16481343
0.4269893575
0.4868069912
0.4868897115
0.6688892903
0.7270628225
0.7279306042
0.8819923491
0.9252841898
0.9263085766
1.028289706
1.054299983
1.055025124
1.111709471
1.125090676
1.125598811
1.151410979
1.16365463
1.164346652
1.167550173
1.168171971
1.168638901
1.166699208
1.164070992
1.164349874
0.4268942842
0.4860735859
0.4863137068
0.6657650528
0.7233407058
0.7243052849
0.8774837
0.9208769907
0.9220188849
1.024750174
1.051084046
1.051931163
1.109293727
1.122881621
1.123459037
1.149610256
1.162191965
1.162935493
1.166330857
1.167191995
1.167687905
1.165945247
1.16352362
1.163828737
0.4262311432
0.4847865353
0.4851521377
0.6622969644
0.7193018927
0.7203356682
0.8726517615
0.916106679
0.9173257393
1.020781914
1.047457814
1.048396634
1.106586193
1.12042294
1.121058588
1.147670927
1.160641643
1.161426559
1.16504904
1.166164998
1.166683029
1.165151104
1.162938783
1.163258839
0.4251415711
0.4830909169
0.4835464967
0.6585848171
0.7150434906
0.7161241721
0.8676045667
0.9110956219
0.9123659646
1.016505868
1.043525949
1.044532847
1.103641587
1.11775778
1.11844126
1.145616072
1.159020873
1.159839108
1.163718638
1.165101908
1.165636906
1.164326759
1.162319219
1.162656328
0.4237296628
0.4811044297
0.4816237842
0.654711603
0.7106445578
0.711753787
0.862417926
0.9059257933
0.9072296572
1.012008353
1.039366848
1.04042446
1.100506213
1.114923547
1.115646157
1.1434651
1.157343043
1.158188285
1.162350111
1.1640109
1.164559034
1.163478054
1.16167786
1.162022152
0.4220842237
0.4789507369
0.4795005017
0.6507429599
0.7061665922
0.7072909922
0.8571463013
0.900653925
0.9019790616
1.007350334
1.035037729
1.036133419
1.097217048
1.111950738
1.112705512
1.141233837
1.155618399
1.156485808
1.160951289
1.162898154
1.163456214
1.162611697
1.161014942
1.161370323
0.4202966074
0.4766904863
0.47726395
0.6467241411
0.7016523507
0.7027825793
0.8518288735
0.8953205509
0.8966578964
1.002576271
1.030581243
1.031705395
1.093803395
1.108863828
1.109645118
1.138935169
1.153854395
1.154740351
1.159528129
1.161768566
1.162334012
1.161729968
1.160337405
1.160696174
0.4184172335
0.4743543975
0.474944461
0.6426889754
0.6971338793
0.6982625662
0.8464967698
0.8899578335
0.8912997838
0.9977213679
1.026031573
1.027176104
1.090289871
1.105683599
1.106486397
1.136579678
1.152057983
1.152958613
1.158085391
1.160626041
1.161195924
1.160839171
1.159651506
1.160014067
0.4164809026
0.4719622039
0.4725631079
0.6386619657
0.6926352849
0.6937569006
0.8411754683
0.884592392
0.8859325537
0.9928147978
1.021417178
1.022575345
1.086697388
1.102427688
1.103247846
1.134176032
1.150235975
1.151147232
1.156626895
1.15947385
1.160045484
1.159938352
1.158948076
1.15931425
0.4145268031
0.4695527089
0.4701538194
0.634668558
0.6881812698
0.689288869
0.8358919508
0.8792519413
0.880582979
0.9878845457
1.016764865
1.017929968
1.083045332
1.09911249
1.099945905
1.131733862
1.148391297
1.149311758
1.155155048
1.158313443
1.158883844
1.159035368
1.158259135
1.158612213
0.4126038495
0.4671657668
0.4677549735
0.6307435722
0.6838051893
0.6848898635
0.8306780929
0.8739678448
0.8752819107
0.9829589879
1.012101241
1.01326681
1.079352723
1.095754254
1.09659699
1.129260535
1.146521761
1.147457293
1.153665588
1.15714129
1.157717097
1.158119864
1.157527736
1.157895994
0.4107489891
0.4648431175
0.4654152578
0.6269177733
0.679537676
0.6805960206
0.8255628621
0.8687685308
0.870060189
0.9780638872
1.007450569
1.008610919
1.075637327
1.092368206
1.093216313
1.126763568
1.144595679
1.14560261
1.152124416
1.155927085
1.156558854
1.157175288
1.156830166
1.157188862
0.4089608901
0.4625811117
0.4631990929
0.6231601481
0.6753375539
0.67647166
0.8205154887
0.8636285975
0.8649671408
0.9731894869
1.002807255
1.003996235
1.071901874
1.088958615
1.089821471
1.124141671
1.142482851
1.143835905
1.150454478
1.154623559
1.155475561
1.156163583
1.156015175
1.156533373
0.1733667612
0.1654838515
0.1703950486
0.07483376384
0.05974213973
0.06154352916
0.0344295927
0.03491795991
0.04351191654
0.1806602074
0.1823467534
0.1915162905
0.1324978749
0.1380614037
0.09198021265
0.08931312873
0.07250577791
0.03998072419
0.0379440832
0.03100577403
0.0224217883
0.02117006207
0.03530325896
0.04441563906
0.04113651049
0.08058766825
0.09759706259
0.09487615306
0.02598030309
0.02427772573
0.274981188
0.2575678497
0.239319821
0.2993472085
0.2776130623
0.2952988876
0.3672877236
0.3486949848
0.3231618206
0.4067428407
0.3762801326
0.3952494745
0.4937378203
0.4750832883
0.4396002475
0.5528659991
0.5126865793
0.5310050304
0.07908317568
0.07577201325
0.0593178184
0.1132039921
0.09404285126
0.09735177192
0.08657421386
0.09015547479
0.1096757615
0.2914408253
0.2649977509
0.2451216152
0.303522469
0.2813791017
0.3107163525
0.2376748701
0.2573976449
0.2781530556
0.3720393611
0.3431220189
0.3227020199
0.3859148878
0.3641694757
0.3929793823
0.3159112355
0.3378256091
0.3604954984
0.4630011184
0.4344371762
0.4089282252
0.491706394
0.4624280271
0.4892471291
0.4148622616
0.4382280962
0.4676786798
0.5801390662
0.5572089973
0.5233081792
0.6255945393
0.5909067695
0.6144891338
0.5484285885
0.5687741906
0.6044306808
0.1555373073
0.1510377642
0.1160580723
0.1769984912
0.1800333399
0.2151124982
0.4776438951
0.4215499842
0.399255813
0.4591959109
0.4417223333
0.5028408864
0.3468285078
0.3902610693
0.4104983076
0.5378184633
0.4883306434
0.4726656169
0.5232460552
0.5050910715
0.5515085626
0.4260148243
0.463230339
0.4819167706
0.6033746957
0.5634924436
0.542930809
0.6102173688
0.5858679428
0.6252104481
0.5194716005
0.5513573197
0.5770221061
0.7018740312
0.6678272338
0.6375631524
0.7279894169
0.6976004751
0.729532542
0.639780394
0.668634749
0.6976812079
0.09188520856
0.08782941436
0.2372057362
0.2295426675
0.1607347242
0.3600845187
0.2975233573
0.3060112189
0.2861354392
0.2910413065
0.3519977113
0.5192598951
0.506609222
0.431428421
0.6599688243
0.5829580116
0.5961240853
0.5608856472
0.571268621
0.6478503938
0.8022683086
0.7233249805
0.7337162614
0.7254997884
0.7212440887
0.789962933
0.6027372835
0.6594831863
0.6677102754
0.7983903265
0.7440702471
0.7330586657
0.7755807687
0.7583048553
0.8096459144
0.6653941462
0.7102877867
0.7297978426
0.8612435765
0.8172381683
0.7956630514
0.8718846293
0.8417891634
0.8854233503
0.7648887684
0.8016850442
0.8305092837
0.1381827928
0.1216893118
0.2928663899
0.2754962263
0.2097504813
0.4133851242
0.3456501572
0.3634679299
0.3168067194
0.330031778
0.3966456988
0.5870627925
0.5679008784
0.4910400281
0.719815155
0.6444049886
0.6627357579
0.6108256599
0.6269836066
0.7034025382
0.8683604152
0.856040443
0.7916917248
0.9639169676
0.9137879207
0.9238035052
0.8677408447
0.9035107967
0.931918084
1.046133384
0.9855364424
0.9962535723
0.9895544306
0.9842899557
1.054267957
0.8644402896
0.9222906897
0.9313283283
1.069230689
1.011970506
0.9983777584
1.055073068
1.030234958
1.085817275
0.9305603093
0.9796592029
1.003687606
0.2290574446
0.2044119988
0.3761942931
0.3541021995
0.2910725861
0.4973299987
0.426528921
0.448762753
0.3832028367
0.4043842385
0.4747987682
0.666291855
0.6472249562
0.5756955933
0.7859194649
0.718477815
0.7355276834
0.6815400498
0.7003051819
0.7702213052
0.910726442
0.9017457342
0.8474228396
0.991276442
0.9499121463
0.9565172276
0.9333237545
0.9420985641
0.9856107158
1.057035874
1.055450939
1.026285665
1.099288198
1.079431569
1.080323937
1.076177372
1.078095392
1.098462295
1.129878621
1.1294453
1.115828436
1.149446042
1.140527381
1.14089816
1.139530477
1.140073946
1.149045881
0.3127053937
0.2956361836
0.4532555938
0.4375039286
0.3686168154
0.5774435769
0.5083059025
0.5226740838
0.470460589
0.4904338174
0.5603685696
0.7218053694
0.7119212737
0.6486917076
0.8313590822
0.774398734
0.7822601121
0.7508159297
0.7640542446
0.8232693431
0.9292252437
0.9274599953
0.882484845
1.00230648
0.9672734942
0.968510021
0.9617588498
0.9654119729
1.001150825
1.059872858
1.059400526
1.032920367
1.101272186
1.082065529
1.08240368
1.081042877
1.081618022
1.100941115
1.130834
1.130695348
1.117369056
1.150379054
1.141589757
1.141700894
1.141194113
1.14142278
1.150236038
0.3505920537
0.3468995971
0.4781708964
0.4760359209
0.4093571224
0.6078829872
0.5424168883
0.5442200369
0.5338131436
0.5399928823
0.6056396194
0.733729005
0.7324071448
0.6727138573
0.8419764353
0.7895838547
0.7906802774
0.7860266178
0.7880553987
0.8406928735
0.9329832253
0.9323869298
0.8895296195
1.004876899
0.9708233677
0.9712511916
0.9694887511
0.970248004
1.004473356
1.060761154
1.060655953
1.034736796
1.101842167
1.082920546
1.082963634
1.082649936
1.082818687
1.101793575
1.130878091
1.130934327
1.117739793
1.150477548
1.141745477
1.141677145
1.141761014
1.141774659
1.150516821
0.3590751423
0.3574819718
0.4830779688
0.4822281169
0.4180824563
0.6118826003
0.5472667344
0.5477928349
0.5455712205
0.5465542608
0.6114022392
0.735316558
0.7353011051
0.6752721448
0.8441444819
0.7919952479
0.7919770989
0.7914018887
0.7918196325
0.8439513326
0.9339519106
0.9338899125
0.8913954243
1.005544505
0.9718838467
0.9719113357
0.9715600511
0.9717680474
1.005494468
1.060622932
1.060733224
1.035077052
1.101565295
1.082794732
1.082650222
1.082954272
1.082896958
1.101697318
1.130297546
1.130490476
1.117358744
1.14998383
1.141269087
1.141073695
1.141573139
1.141436278
1.150152263
0.3636408515
0.3626936902
0.4853966215
0.4849373078
0.4224951264
0.6123692219
0.5487197234
0.5488794115
0.5481903537
0.5484935883
0.6123896121
0.734129554
0.7345644803
0.6747592062
0.8433530192
0.7910774593
0.7905666079
0.7918013378
0.7914947863
0.8437497677
0.933113879
0.933480219
0.8908386727
1.005048411
0.9714717712
0.9711512331
0.9718519798
0.9717056708
1.005276939
1.059716253
1.060011988
1.034467657
1.100683459
1.081980193
1.081680039
1.082465649
1.082242187
1.100953914
1.129258839
1.129555792
1.116437703
1.149068926
1.140339087
1.140049117
1.140852634
1.14060722
1.149330045
0.3665241513
0.3659259554
0.4866008651
0.4863880972
0.4251292958
0.6116829324
0.5490184211
0.548961723
0.5489798361
0.5490255077
0.6119337908
0.73179232
0.7324514829
0.6731929573
0.8408286131
0.7886050745
0.7878381433
0.7899771579
0.7893206011
0.8415753933
0.9307502141
0.9314613505
0.8885242197
1.003437494
0.9696977986
0.9690619198
0.9707466014
0.9702610025
1.003942619
1.058070754
1.058551073
1.032952809
1.099285409
1.080553076
1.080101686
1.0813422
1.080966669
1.099681793
1.127844096
1.128230765
1.115072701
1.147840223
1.1390599
1.138692062
1.139738921
1.13940891
1.14817267
0.3682366263
0.3679028403
0.4869279559
0.4869200141
0.4265518032
0.6102453117
0.5485231555
0.548292866
0.5488589548
0.5487125547
0.6106647796
0.7287692897
0.7295769261
0.6709398134
0.8373089634
0.785286804
0.7843643498
0.7870266931
0.7861753978
0.8382558619
0.9272943677
0.9282368898
0.8850631189
1.000804591
0.9667746383
0.9659026928
0.9683592878
0.967595333
1.001547417
1.05571433
1.056365414
1.030567182
1.097393586
1.078528222
1.077933328
1.07961333
1.079088683
1.097911541
1.126087921
1.126557508
1.113295874
1.146354498
1.137482738
1.137045184
1.138306509
1.13790322
1.146747829
0.3690392665
0.3689133902
0.4865170368
0.4866821064
0.4270334852
0.6082202857
0.5473779914
0.5470023387
0.5480243448
0.5477193029
0.6087752729
0.7252483145
0.7261679865
0.6681470345
0.8331884863
0.7814235876
0.7803915124
0.7834116493
0.7824310296
0.8342620665
0.9231359343
0.9242253349
0.8809035256
0.9973750169
0.9630295049
0.9619987918
0.9649850514
0.9640261836
0.9982933265
1.052750853
1.053541103
1.027453258
1.095043515
1.07595828
1.075241162
1.077305776
1.076647034
1.095670598
1.124020105
1.124564207
1.111136082
1.144642095
1.13563727
1.135137263
1.136591635
1.136122105
1.145089616
0.3691176922
0.3691585339
0.4854900392
0.4857979893
0.4267748017
0.6057229357
0.5456928866
0.5452001183
0.5465951908
0.546158575
0.6063852777
0.7213542844
0.7223564182
0.66492648
0.8286686713
0.7771718095
0.7760615862
0.7793378671
0.7782644285
0.8298281545
0.9185282812
0.9197126688
0.8763013046
0.9933827803
0.9587374566
0.9576015686
0.9609381406
0.9598503986
0.9944228577
1.049314979
1.05021135
1.023793047
1.092301879
1.072937586
1.0721233
1.074497749
1.073729529
1.093019782
1.121680656
1.122288599
1.108642039
1.142729658
1.133554448
1.133000403
1.134623289
1.134095452
1.143224571
0.3686383437
0.3688004855
0.4839819582
0.4843958036
0.4259954788
0.6028661854
0.5435827958
0.5430013744
0.5446832335
0.5441440208
0.6036083404
0.7171948822
0.7182544078
0.6613887607
0.823876324
0.7726462103
0.771482323
0.774936623
0.7737980981
0.8250944399
0.9136253764
0.9148726198
0.8714069597
0.9890014634
0.9540811758
0.9528747038
0.9564459048
0.9552721149
0.9901258289
1.045524569
1.046499917
1.019737946
1.089242816
1.069563005
1.068673861
1.071288734
1.070435032
1.090033383
1.119113637
1.119774382
1.105870331
1.14064558
1.131268779
1.1306695
1.132434639
1.131857223
1.141180722
0.3677661227
0.3680153865
0.4821277794
0.4826176387
0.4248151877
0.5997494587
0.5411564745
0.5405114841
0.5424023527
0.5417873373
0.6005481786
0.7128573441
0.7139540669
0.6576291159
0.8189014863
0.76793578
0.7667374317
0.7703087682
0.7691265963
0.820158082
0.9085265625
0.9098153624
0.8663187406
0.9843505386
0.9491795035
0.9479253186
0.9516549533
0.9504230811
0.9855334004
1.041470832
1.042504857
1.015399616
1.085932951
1.065916655
1.064970166
1.067769207
1.06684997
1.086780672
1.116359747
1.117063734
1.102874088
1.138417728
1.12881407
1.128177293
1.130060492
1.12944185
1.138986408
0.366612062
0.3669222988
0.4800428639
0.4805774358
0.4233374736
0.5964573828
0.538508535
0.5378194421
0.539854446
0.5391875118
0.5972928449
0.7084124747
0.709530422
0.6537267548
0.8138124846
0.7631112806
0.7618933874
0.7655334676
0.7643249071
0.815092205