/*--------------------------------*- C++ -*----------------------------------*\
| =========                 |                                                 |
| \\      /  F ield         | OpenFOAM: The Open Source CFD Toolbox           |
|  \\    /   O peration     | Version:  v2012                                 |
|   \\  /    A nd           | Website:  www.openfoam.com                      |
|    \\/     M anipulation  |                                                 |
\*---------------------------------------------------------------------------*/
FoamFile
{
    version     2.0;
    format      ascii;
    class       volScalarField;
    location    "2";
    object      omega;
}
// * * * * * * * * * * * * * * * * * * * * * * * * * * * * * * * * * * * * * //

dimensions      [0 0 -1 0 0 0 0];


internalField   nonuniform List<scalar> 
3019
(
828.7532022
151.395792
72.00296944
45.72485569
36.47907111
33.14030254
31.65206943
31.07875162
30.71617419
30.57364975
30.4954824
30.45396298
510.4469215
140.8955279
69.84391975
45.06778037
36.40715907
33.19701651
31.6559196
31.043464
30.64986472
30.49408569
30.40650612
30.36010524
364.2600574
129.7425838
65.92846114
44.01752799
36.18556846
33.20081572
31.63697327
31.00072256
30.58430411
30.41699946
30.32075815
30.27056885
299.5021656
113.888615
60.77743644
42.62114158
35.90165024
33.14867258
31.59476967
30.94911174
30.51450199
30.33825764
30.23540943
30.1813629
211.8654506
94.03303668
55.16730488
41.2131382
35.66958734
33.06663003
31.53408627
30.88816343
30.44126176
30.25853851
30.14953268
30.09269611
154.9458465
78.03061886
50.96840763
40.32697403
35.48403579
32.96344855
31.45634248
30.81464164
30.35973856
30.172273
30.05971705
30.00035954
126.1392608
70.03646184
49.22646434
39.93085747
35.29429188
32.84423788
31.36636149
30.73122934
30.27260602
30.08246599
29.96730022
29.90650988
117.8203427
68.28698014
48.52097129
39.60159723
35.10614194
32.71597844
31.26719784
30.63908146
30.17758723
29.98541393
29.86856354
29.8069568
113.6179061
67.27583642
48.01387228
39.31296027
34.92421087
32.58336762
31.16117169
30.53951837
30.07814341
29.88557713
29.76790368
29.70589306
110.3973503
66.49211464
47.64332204
39.06448989
34.75197165
32.44976296
31.05016788
30.43397221
29.97160887
29.77837596
29.66029608
29.59831955
107.7397714
65.83774288
47.37214315
38.85887958
34.59244788
32.31782441
30.93596659
30.32383797
29.86323846
29.67081446
29.55288007
29.49117157
105.4991852
65.28341993
47.16687648
38.69325028
34.44761741
32.18958891
30.82017953
30.21046786
29.74870269
29.55589692
29.43810465
29.37691833
103.5825126
64.81071877
47.00677206
38.56048963
34.31767619
32.0663615
30.70408771
30.09497163
29.63545754
29.44396446
29.32672066
29.26613979
101.918612
64.40345249
46.87957645
38.45336953
34.20149858
31.94868523
30.58858643
29.97833523
29.51592502
29.32360027
29.20658401
29.14670526
100.447796
64.04738931
46.77739825
38.36624685
34.09749985
31.83660975
30.47428896
29.86123128
29.40135233
29.21055585
29.0941579
29.03495534
99.12545664
63.73076049
46.69450079
38.29489785
34.00407752
31.72991421
30.36157897
29.74431621
29.27852053
29.08601095
28.96968797
28.91116029
97.91535378
63.44407788
46.62656081
38.23622408
33.91983785
31.62829703
30.25070919
29.62787507
29.16568558
28.97490376
28.85909652
28.80116036
96.78894841
63.18029972
46.57028033
38.18786047
33.84358048
31.53142412
30.14183525
29.5124049
29.0396948
28.84609785
28.73013726
28.67275312
95.72809838
62.93417359
46.52301127
38.14790551
33.77426004
31.43896363
30.0350638
29.39790092
28.93186098
28.74019158
28.62454857
28.56760301
94.72127294
62.70168941
46.48256847
38.11476573
33.71094989
31.35057929
29.93047284
29.28490835
28.80095975
28.60545621
28.48946072
28.43292011
93.75833556
62.47935816
46.44688591
38.08697824
33.65279446
31.26593451
29.82817628
29.17318647
28.70272466
28.50896381
28.39298913
28.33672102
92.82918257
62.26325489
46.413751
38.06313867
33.59901001
31.18474903
29.72845465
29.06376433
28.56221666
28.36457699
28.24812543
28.19212419
91.92476607
62.0493372
46.38101387
38.04194531
33.54886312
31.10669774
29.63205077
28.95669745
28.48126734
28.28334053
28.16656495
28.11065425
91.04398918
61.8361366
46.34709557
38.02232022
33.50183436
31.03165969
29.54093881
28.85536605
28.30109029
28.09862943
27.98089979
27.92509624
1017.978494
865.6382102
183.997058
629.4009495
996.4504616
533.1543025
178.8210494
181.9253502
475.1552801
619.9623353
353.0844287
723.6100149
743.676629
653.6888967
311.8922835
340.7306666
1450.804825
878.1932643
1604.310396
1203.751343
621.4180341
834.3438216
381.3141153
163.4987444
175.0604104
541.1437948
597.263279
1128.187411
285.2239752
302.5332569
635.8405719
575.1890897
6261.408732
2449.794481
1396.037661
668.7730579
4905.44141
3638.019185
1213.750284
5045.893309
6137.212592
3595.914586
4815.687645
6508.60405
2418.347607
3251.612948
1689.514328
2172.405046
5852.734443
6471.865353
2173.931324
6205.324999
5426.233029
166.6989212
85.53982521
1152.817399
3320.44043
2462.744374
4675.834547
3078.378718
1570.242224
888.6429378
6285.464366
6616.597572
6754.96605
5636.288662
6450.855519
1277.087746
1535.031643
5999.821318
5513.196061
6070.913457
5628.069654
6387.572528
6338.266952
6204.105784
4006.131186
5512.93522
5066.919794
6153.814175
6358.228429
4406.580521
4689.035249
5117.425096
6411.116095
5293.417079
3943.066222
4248.518953
6030.360007
4691.052133
4931.776353
3856.121218
4286.811969
6206.78585
72.63997432
50.01726905
45.73600045
37.9667343
36.44990552
33.6633668
735.2074099
483.5421895
522.8313298
143.9339372
82.20355531
84.77972384
70.22943183
49.29897716
49.95368037
45.28302101
37.90374072
37.98283828
36.44380814
33.73380596
33.69264237
463.4303288
253.856587
278.7709684
132.7338011
77.76935799
81.47993465
66.97479327
47.96105407
48.98645472
44.30271538
37.57440967
37.82949144
36.25422929
33.74247968
33.74393258
494.7910429
572.3225985
320.1441352
145.8035815
159.8806543
118.463331
71.23164096
76.36333282
62.18762922
46.12176311
47.56005372
42.99226934
37.15368299
37.48230135
35.97442331
33.68748536
33.73133477
323.3210527
455.0250095
231.882013
119.9168371
139.8799166
98.93837529
63.34714505
69.29324277
56.50143141
44.04535882
45.60058472
41.5383568
36.7243595
37.03699267
35.71579099
33.59732781
33.66662714
202.490367
284.7376327
166.0587888
95.52439973
113.202381
81.33570095
56.72310171
61.47304462
51.81271648
42.44251255
43.57099108
40.47050128
36.46440725
36.64480434
35.53110449
33.486263
33.57151624
153.7084422
185.4203795
131.0460162
81.18889722
90.84441978
71.28122949
53.1936933
55.50994123
49.45153218
41.77871444
42.19358823
40.02178308
36.24070426
36.40760566
35.34179043
33.35747179
33.45520859
139.037261
147.7707867
119.1694747
77.18427574
79.31177404
68.61541699
52.19512692
52.8848963
48.67425839
41.36727397
41.66710792
39.67974062
36.02577992
36.18615485
35.15275292
33.21970861
33.32354517
133.1997737
137.3473595
114.5433902
75.64050092
76.72972569
67.49913119
51.55603758
52.01157636
48.12650958
41.02272778
41.27601205
39.3815131
35.82131055
35.97356947
34.96890981
33.07845533
33.18455227
128.8462965
132.0201845
111.1420252
74.49816094
75.33203699
66.67428645
51.10739471
51.42944571
47.72511592
40.73306405
40.94507401
39.12262373
35.63048329
35.77220636
34.79394908
32.93721035
33.04304154
125.2572492
127.888317
108.3606747
73.54554652
74.24501234
65.99112124
50.77767093
51.0160419
47.43267736
40.49997161
40.66957432
38.90631706
35.4565842
35.58531157
34.63100005
32.79871708
32.90223581
122.2247147
124.4532663
106.0259742
72.73336122
73.33073972
65.4137156
50.52261923
50.70814373
47.21334341
40.31791732
40.45008292
38.73127117
35.30184409
35.41607538
34.48240687
32.66529152
32.76481892
119.6208634
121.5380025
104.0354447
72.03460977
72.5490609
64.9221623
50.31917842
50.46758781
47.04333787
40.17612933
40.27915668
38.59102106
35.16615939
35.2662013
34.34881499
32.53843612
32.63293226
117.3521763
119.0261338
102.3144929
71.42793632
71.87526785
64.4999767
50.15431089
50.27480438
46.90877546
40.06451992
40.1457543
38.4780832
35.04765243
35.1350243
34.22933691
32.41871457
32.50783868
115.3366925
116.8277635
100.8001106
70.89408716
71.28848275
64.13230151
50.01912396
50.11808183
46.80094383
39.97575754
40.0404456
38.3864081
34.94395532
35.02044371
34.12244921
32.30605705
32.38990689
113.5163686
114.8655504
99.44430598
70.41704475
70.77021441
63.80680833
49.90688828
49.98920496
46.71368372
39.90463653
39.95651604
38.31144585
34.85281136
34.92008466
34.02652495
32.20006022
32.27895867
111.8456351
113.0867967
98.20914818
69.98361809
70.30518502
63.51338143
49.81228851
49.88182078
46.64234393
39.8474259
39.88917457
38.24984608
34.77231678
34.83176493
33.94010707
32.10022098
32.17454676
110.2846637
111.4468512
97.06389736
69.58379897
69.88098203
63.2444248
49.73127808
49.79095941
46.58341825
39.80137523
39.83498665
38.19909843
34.7009129
34.75368097
33.8619574
32.00604138
32.07617112
108.8084652
109.9087834
95.98780548
69.21024965
69.48833731
62.99430066
49.66066557
49.71282143
46.53411535
39.7643073
39.79136874
38.15719974
34.63727617
34.68433549
33.79099323
31.91703398
31.98332911
107.4046389
108.4519
94.96829356
68.85742362
69.12043148
62.75873521
49.59788516
49.64438763
46.49215717
39.73443254
39.75625652
38.12249619
34.58026786
34.62245759
33.72626368
31.83273276
31.89554028
106.0610161
107.0648411
93.99481352
68.52080865
68.77207778
62.53418888
49.54066021
49.58321068
46.45548559
39.71013781
39.7279264
38.09350475
34.52885523
34.56694227
33.66689532
31.75268513
31.81234363
104.7641205
105.7357098
93.05658843
68.19552052
68.4388473
62.31685572
49.48654468
49.5270056
46.42192264
39.68984089
39.7047793
38.06880565
34.4820884
34.51677778
33.61208942
31.67650057
31.73329753
103.4985226
104.4522659
92.14105409
67.87562795
68.11575125
62.10219118
49.43295104
49.47327141
46.38923389
39.67202783
39.68524127
38.0470602
34.43908039
34.47103188
33.56109446
31.60377242
31.65801367
102.2472693
103.2043997
91.23374067
67.55433191
67.7976935
61.88514045
49.37734081
49.41954231
46.35528587
39.65527767
39.66784116
38.02700392
34.39895565
34.42884013
33.51315076
31.53404967
31.5860895
100.9182192
101.9915701
90.26612294
67.20487077
67.48321753
61.64670914
49.31331651
49.36419072
46.31552348
39.63709209
39.651359
38.00616135
34.35852477
34.38954884
33.46473262
31.46279527
31.51734791
1065.099835
1282.794334
1217.4385
733.7120647
761.4634615
914.8666206
191.0948677
316.5405959
287.6328711
660.0084598
1214.438198
2211.10507
1624.137853
978.1143578
418.5078395
434.7568055
582.9325813
174.0302599
253.100476
242.385483
278.8981824
259.4124821
175.4346053
553.6291845
625.4041921
365.9755767
505.5178526
467.2546274
523.6601364
350.0139261
1910.784535
1341.485013
856.0124562
822.3238071
701.3720216
770.5939066
947.9568092
898.3236483
433.4559452
473.7522898
709.7351215
319.5914966
390.0396292
378.9783256
449.4044704
406.7777412
330.5219012
2209.867799
1965.556852
1361.393698
3425.628124
3653.639286
5072.265915
915.7308417
1495.154786
1255.653102
1746.777679
2826.132998
2514.616065
869.298795
917.0278416
1449.010598
643.7205768
760.6629875
731.4719301
795.1344153
670.7655802
1070.336435
991.2142568
800.5310761
2912.847486
3134.912357
1232.498222
1228.278896
266.9562517
276.6693947
442.1148295
167.0466359
207.9249966
202.5393506
235.8016995
213.9521163
170.9430524
557.0959207
652.5855215
631.1517133
702.5229511
677.5071347
578.4392658
969.8938353
795.0758836
831.0360262
288.8332701
347.7457126
341.3999971
366.0172763
357.6542451
297.1826146
600.3169332
441.4121814
461.4921296
596.6179787
847.3925073
810.6002546
2768.604396
4288.838322
3850.595773
1072.078777
1121.867122
961.5165638
994.1047619
1479.995146
688.3431128
789.3119109
770.3662978
4465.449859
3068.934387
3432.975057
2453.072638
2743.511298
3995.154249
1268.607993
1748.120382
1589.484407
2645.743396
3738.528097
3426.822117
4557.641802
4150.697783
2943.543326
1807.703274
2647.186679
2456.74601
3117.919436
2881.538901
2010.497838
3446.838919
3151.637681
1950.596274
124.0277949
125.2708973
168.7856813
86.02736192
102.42247
101.645872
1470.310531
1369.378738
1102.918701
3046.467717
1996.830297
2202.545613
1632.034898
1783.050742
2733.624627
1189.80647
1248.238341
1726.663577
933.3498359
1031.323727
1026.021388
1089.592169
950.0392402
2481.299578
2656.782832
1349.711292
1877.963473
1737.516978
2240.758895
2056.318454
1456.974008
33.11811874
32.12713387
31.64369442
31.31768815
31.09892506
30.9419779
792.758187
683.4954622
706.4558407
148.9687203
120.5475667
121.8658076
71.56899653
62.27019621
62.53195255
45.51701299
42.35786933
42.46253178
36.48617282
35.32165184
35.30836788
33.18906928
32.17476075
32.15672693
31.65713445
31.30620873
31.31226218
31.06606947
30.89364638
30.91930816
494.4653436
390.7983137
404.0886801
138.1075179
113.3352556
115.2618967
68.73099662
60.242185
60.95939505
44.89914122
41.8539439
42.03368068
36.35995016
35.27146347
35.29786671
33.2050799
32.18177093
32.18333539
31.65013709
31.28123717
31.29475693
31.0274158
30.84277729
30.86950136
351.4449741
251.883284
258.6053501
126.4055201
104.2622244
106.891923
64.78350649
57.27978573
58.1291541
43.69905577
41.0485706
41.27161472
36.11946357
35.12796483
35.16798283
33.1653884
32.15651734
32.17300029
31.62075276
31.24222844
31.26259992
30.98010412
30.78719106
30.81601089
276.9333171
209.0766868
221.8715837
109.0189334
91.12239887
94.71957336
59.3381038
53.34301112
54.38367081
42.25101564
40.0367663
40.29467846
35.83146758
34.96019178
35.00060553
33.08971883
32.09839547
32.13022861
31.56729893
31.19023616
31.21593516
30.92421497
30.72529323
30.7572163
194.2718656
158.2177987
170.0459931
89.39554485
76.95248613
80.27838951
53.92669124
49.46275438
50.34754301
40.92160841
39.1496773
39.33899134
35.62398926
34.81626487
34.85322628
32.9916697
32.02288097
32.0630384
31.49697822
31.12295189
31.15770268
30.855456
30.65471706
30.69122876
145.4681297
121.245715
128.7364968
75.25133033
66.76891513
68.78829479
50.29088942
46.92645069
47.38986594
40.21843473
38.70407284
38.78872522
35.43674277
34.65812685
34.69885787
32.87549257
31.9305514
31.97848761
31.41269203
31.04342325
31.08416212
30.77631514
30.57489684
30.61567288
122.5469753
103.9256155
106.375563
69.43528043
62.63773849
63.0860102
49.02455208
46.06735485
46.22887729
39.84397898
38.39634843
38.46939148
35.24690499
34.49115869
34.53325913
32.74883546
31.82653051
31.87972461
31.31778063
30.95352222
30.99932213
30.6878786
30.48687914
30.53167112
116.6201941
100.0216595
100.8170815
67.99812108
61.42622924
61.66807471
48.37940847
45.53176664
45.65253398
39.5258754
38.12243804
38.188391
35.05993097
34.32295753
34.36483041
32.61686141
31.71480584
31.77143305
31.21492677
30.85513978
30.90503073
30.5914349
30.3912279
30.43979322
112.7477789
97.4145877
98.00815472
67.06515943
60.67146556
60.83745939
47.90980545
45.11751425
45.21112626
39.24691983
37.87563003
37.9346846
34.8801186
34.15825929
34.19892184
32.48319378
31.59826932
31.65698822
31.10618302
30.75013419
30.8031751
30.48836177
30.28915324
30.34081616
109.687507
95.29024905
95.78798635
66.31795071
60.10141292
60.2321958
47.56774996
44.80439537
44.87408254
39.00908215
37.65877103
37.70997321
34.7107987
34.00032385
34.03901805
32.35059652
31.47920788
31.53892883
30.99336354
30.64029527
30.69558959
30.38009451
30.1816212
30.23596247
107.1450513
93.48758104
93.91199262
65.69067086
59.63812123
59.74586774
47.31568998
44.57248293
44.62422777
38.81397715
37.47456744
37.5175551
34.55482967
33.85186213
33.88797018
32.22126252
31.35952666
31.41933966
30.87818422
30.5271983
30.58397385
30.26799268
30.070171
30.12632683
104.9928656
91.94170453
92.30681243
65.15831763
59.25256516
59.34261923
47.12322759
44.39794767
44.43727947
38.65729542
37.3216007
37.35714085
34.41377051
33.7146439
33.74785056
32.09669238
31.24074319
31.29994798
30.76210852
30.41218001
30.46979216
30.15329265
29.95555555
30.01327099
103.1456739
90.6052474
90.92202625
64.70345222
58.92856915
59.00454402
46.97227818
44.26338946
44.2939654
38.53156646
37.19522688
37.22461489
34.28740584
33.58906354
33.619391
31.97759779
31.12387349
31.18202609
30.64621961
30.29628391
30.35424076
30.03701975
29.83928373
29.89767041
101.5350109
89.43640455
89.71498215
64.3102102
58.65299329
58.71796978
46.85196679
44.15784417
44.18193951
38.42991303
37.09038368
37.11482268
34.17442724
33.47450291
33.50216296
31.86412925
31.00950574
31.06635258
30.53125924
30.18030625
30.23822997
29.92000053
29.72148628
29.78067025
100.1050415
88.39886127
88.64760045
63.96502704
58.41502832
58.47150245
46.75508694
44.07423966
44.09338475
38.34708085
37.00283747
37.02329949
34.07321702
33.36992873
33.39519861
31.75611313
30.89794005
30.9533638
30.41771408
30.06482097
30.12244899
29.80287338
29.60371427
29.66269788
98.81390585
87.46312673
87.68889767
63.65667285
58.20577772
58.25580866
46.67628599
44.00755244
44.022856
38.27915584
36.92926832
36.94649865
33.98221238
33.27422589
33.29737688
31.65325191
30.78930292
30.8432553
30.30589377
29.95025178
30.00738935
29.68611131
29.48525943
29.5447137
97.62698429
86.60499274
86.8133226
63.3762898
58.01825201
58.06339926
46.61154012
43.95412098
43.96640011
38.22326025
36.86715942
36.88172851
33.90007405
33.18638607
33.20766067
31.55522262
30.68362613
30.73610428
30.19599245
29.83688014
29.89340238
29.57007625
29.3681012
29.42664761
96.51821904
85.8062668
86.00113404
63.11735534
57.84724882
57.8886832
46.55773862
43.91113121
43.92103253
38.1771617
36.81451839
36.82688674
33.82564224
33.10550146
33.12511816
31.46169116
30.58086508
30.63190805
30.08811715
29.72491928
29.78074909
29.45500138
29.25036477
29.30948793
95.47178849
85.05449651
85.2385805
62.87498314
57.68879203
57.72740573
46.5123702
43.87630801
43.88435716
38.13905333
36.76971438
36.7802608
33.7579099
33.03076427
33.04891467
31.37232022
30.48096027
30.53062352
29.98231896
29.6144793
29.66961352
29.34109218
29.135149
29.19264292
94.47658198
84.34035112
84.51589517
62.64536064
57.53974826
57.57627872
46.47331594
43.84771273
43.85437963
38.10738694
36.73134052
36.7404039
33.69596622
32.96142628
32.97829381
31.28676457
30.38381574
30.43222438
29.87855655
29.50561142
29.56017227
29.22837084
29.01864795
29.07745794
93.52217533
83.65562454
83.8248754
62.42495037
57.39713531
57.43236945
46.43848179
43.8234419
43.82921241
38.0807156
36.69809742
36.70599601
33.638975
32.89679887
32.9125493
31.20474499
30.28919379
30.33671298
29.7766678
29.3981531
29.4525813
29.11681308
28.90611752
28.96267584
92.59694823
82.99137527
83.15753999
62.20953577
57.25748862
57.29238744
46.405626
43.80151772
43.80688697
38.05765345
36.66876241
36.67579413
33.58616602
32.83624912
32.85103878
31.12593428
30.19655845
30.24416847
29.6761693
29.29170094
29.3472222
29.00589265
28.7899814
28.85067505
91.68762476
82.3371978
82.50639266
61.99442926
57.11709879
57.15297181
46.37258757
43.78006581
43.78551721
38.0369165
36.64220204
36.64865117
33.53680547
32.77916222
32.79315186
31.04995162
30.10445076
30.1551933
29.57575524
29.18488565
29.24487014
28.8943563
28.67860923
28.73972442
90.77607492
81.67820598
81.87021317
61.77277867
56.97081991
57.01257233
46.33690993
43.75704461
43.76361926
38.01706977
36.61708516
36.62363235
33.48978161
32.72448683
32.73849634
30.97196602
30.0062707
30.07215349
29.46787016
29.06956166
29.14771044
28.7731972
28.5481973
28.63588213
186.0499813
210.5050484
207.5572484
645.6266421
739.2520817
724.5492701
1140.98631
1120.606295
939.4809897
204.1485896
201.7315019
179.502677
416.0450624
370.399423
575.480962
588.7228176
668.7744709
1011.257933
1055.585777
1266.45767
1806.037111
1923.2357
1110.409594
937.2532909
990.2130215
624.0775441
550.9052696
563.0580742
1552.89634
1664.52688
62.95200022
63.01519773
72.81670482
50.02671219
55.65506786
55.62915147
42.45673533
42.46690233
45.74615638
37.96157048
39.92620909
39.92490746
35.27664232
35.2635535
36.44286786
33.63915521
34.34865963
34.36619786
641.6372961
660.5657195
761.5008186
496.1660061
571.9286777
557.2732707
609.4195807
591.058249
508.9181379
117.4377925
118.3922412
145.6152642
83.28664844
98.43361504
97.4539136
100.5307685
99.66759967
84.06551839
61.35083591
61.87608909
71.03946921
49.58685459
54.88751398
54.56850048
55.43493533
55.17945981
49.67879035
42.18483451
42.26702833
45.46178088
37.91367351
39.80886486
39.77120939
39.93167768
39.90273939
37.97803187
35.30716449
35.31118275
36.44818886
33.73042157
34.4264624
34.42418655
34.39867331
34.41625179
33.7115506
368.542544
380.0648525
473.3740613
329.7807867
324.0249098
272.0190788
109.2641552
111.3766657
135.4999794
79.03983159
93.07413679
91.4498006
96.04133476
94.56873604
80.17858937
58.89449875
59.57404945
67.90523324
48.31463355
53.20484254
52.7132888
54.13047091
53.80647278
48.81663719
41.47174438
41.72262274
44.58968885
37.71662083
39.47430246
39.27862364
39.66214553
39.53984476
37.74848968
35.21904937
35.23816087
36.32683023
33.74349294
34.40243208
34.39509091
34.42365263
34.41238
33.74450879
526.7633039
548.8407924
233.5683202
243.6638764
337.7318679
151.1216094
187.3217506
180.5252848
197.9653256
193.1093982
155.8011784
98.15215802
101.3462944
122.6534115
73.07887149
85.33949455
82.90770935
89.63615666
87.58720058
74.80575929
55.40207149
56.3717411
63.53503959
46.63018917
50.86587048
50.16396776
52.15417187
51.53548467
47.1129777
40.55309445
40.8070238
43.35448375
37.269511
38.82261257
38.64883739
39.14139086
38.98864404
37.38033793
35.04179548
35.08595001
36.04855327
33.70407701
34.32430515
34.29905103
34.36870148
34.34754084
33.72015505
366.2984733
411.0786554
182.6719006
195.8192953
253.8729531
126.7420254
155.3040228
146.1798813
172.772582
164.2719012
133.4660523
83.80502778
87.45287988
103.9870977
65.30505706
74.93382469
72.25408756
80.32628119
77.64752885
67.30296388
51.30236496
52.30832169
57.90208606
44.55133708
47.94848041
47.2304174
49.43583884
48.69049378
45.07593342
39.55506112
39.79039158
41.8892428
36.81740111
38.13205607
37.98108782
38.47208848
38.29858145
36.92379933
34.88884542
34.92416143
35.77002702
33.62164033
34.22025274
34.19088747
34.27408712
34.24800368
33.64575819
224.5609792
251.7768211
137.4755703
147.3156767
179.0427684
100.8579197
120.5417886
113.2995925
137.1795657
128.5712326
106.7968621
71.16312366
73.90225645
85.14114624
58.13130488
65.01837067
63.03129433
69.67114048
67.24320623
59.72497329
47.96974711
48.66632176
52.80187968
42.76012789
45.37282088
44.89622722
46.55222324
45.92903168
43.13934923
38.87874148
38.99494034
40.67157735
36.52170637
37.64079807
37.56774068
37.84323318
37.7301043
36.57988757
34.73890881
34.77810642
35.57781786
33.51590645
34.09757081
34.0637745
34.16126347
34.13013455
33.54460389
161.8272448
172.1215172
110.0595224
114.9933064
137.5384734
83.64887753
97.04711962
93.6151656
106.9114607
101.522819
86.91147584
63.90522502
65.15609654
72.98552675
53.73560535
58.75002896
57.88631541
61.31670803
59.87482833
54.51644412
46.40526655
46.60760535
49.76652503
41.89781632
44.02993069
43.87901592
44.50606527
44.21521331
42.02662386
38.54474966
38.62283287
40.11745565
36.29577851
37.36270288
37.29773607
37.49758732
37.42925644
36.35139523
34.57519807
34.61686463
35.38930046
33.39070484
33.9566342
33.9195814
34.02888056
33.99312258
33.42347191
140.9363176
143.2781726
101.7099979
102.7208037
120.6958253
77.70839101
88.64461106
87.94345582
91.01334073
89.46584034
78.32367821
61.94489357
62.26559191
68.99439899
52.39961658
56.78655007
56.53475526
57.4025603
57.07344754
52.62847138
45.78112438
45.91878614
48.84126108
41.46241449
43.49018223
43.37653919
43.73995051
43.61082378
41.56203788
38.25599594
38.32528342
39.76043345
36.07865276
37.11046768
37.05027793
37.23413332
37.17174071
36.13212308
34.40686256
34.44900301
35.19969794
33.25460952
33.80621748
33.76801374
33.88208632
33.84425883
33.28930133
134.4632145
135.8342941
98.63399557
99.3005496
115.537143
75.97071872
86.28393326
85.82568
87.32706421
86.77960581
76.32995195
61.01631258
61.21108547
67.73812793
51.69426797
55.94045988
55.78050539
56.31335975
56.11684332
51.84546295
45.31128951
45.41812422
48.24816858
41.10380401
43.06832158
42.97528924
43.26874718
43.16610745
41.18821943
37.99554112
38.05814407
39.45250073
35.87127842
36.87629478
36.82062376
36.99116631
36.93315629
35.92204503
34.23995127
34.28131897
35.01416734
33.11388272
33.65325166
33.61511693
33.72975616
33.69146478
33.14927141
129.8512825
130.9067648
96.3069202
96.84850237
111.9240956
74.76295251
84.59575267
84.22198549
85.39504073
84.98607777
75.04027198
60.37017374
60.51622532
66.86500515
51.20613613
55.3747073
55.25860901
55.63420194
55.49944923
51.31312084
44.9492653
45.03031064
47.81373271
40.80016727
42.72480184
42.65090165
42.88700136
42.80348495
40.87084141
37.76321592
37.81845568
39.18344852
35.67672984
36.66122598
36.61084197
36.76618368
36.71302355
35.72398394
34.0782648
34.11803121
34.83668133
32.97237196
33.50183128
33.46456512
33.57715646
33.53936031
33.00765646
126.0964098
126.9722117
94.35328766
94.81239281
109.0091392
73.76925998
83.18756993
82.86908131
83.863318
83.51872307
74.00215069
59.85874412
59.97711979
66.15105082
50.85182693
54.95184547
54.86103731
55.14999659
55.04796304
50.93105556
44.67987285
44.73979876
47.49770856
40.55310632
42.45654406
42.40023514
42.58166675
42.51693958
40.60959628
37.5625657
37.60963453
38.95636355
35.49831667
36.46864951
36.42437966
36.56191823
36.51450368
35.54123443
33.92476612
33.96223119
34.67046066
32.83294876
33.35490043
33.31916949
33.42763927
33.39105854
32.86746099
122.9386639
123.6806392
92.6857069
93.07905943
106.5740203
72.9249304
81.98245315
81.70822632
82.56244702
82.26703449
73.12388639
59.43674498
59.53516973
65.549363
50.5809064
54.61576472
54.5420574
54.77499368
54.69332259
50.64263593
44.47930603
44.52428093
47.26284948
40.35921595
42.25305914
42.21040672
42.34772687
42.29874934
40.40320824
37.39442858
37.4335455
38.77147095
35.33869884
36.3010564
36.26306918
36.38169475
36.34059055
35.37677383
33.78178981
33.81646399
34.5181427
32.6980767
33.21492942
33.18123955
33.28392114
33.24915828
32.73125764
120.2371943
120.8754954
91.24994264
91.58964091
104.5051048
72.1999045
80.94217502
80.70445683
81.44370731
81.18843707
72.37122349
59.08373732
59.16635066
65.03793606
50.36601895
54.34137928
54.28071863
54.47188546
54.40503605
50.4154136
44.32647816
44.36108416
47.0820998
40.20840477
42.0981825
42.06537623
42.17051652
42.13316715
40.24269153
37.25542076
37.28772367
38.62325333
35.19838274
36.15786076
36.12555106
36.22657119
36.19151539
35.23171713
33.65042207
33.68217187
34.38084028
32.56949232
33.08355027
33.0521289
33.14811235
33.11554035
32.60098982
117.8929306
118.4501525
90.00228753
90.29889101
102.7231423
71.57213889
80.03749265
79.82932613
80.47470158
80.25246129
71.72108878
58.78545202
58.85561017
64.59990546
50.192464
54.1146273
54.06411736
54.2228037
54.16746906
50.23257113
44.20749328
44.23461228
46.93964276
40.090045
41.97831695
41.95267674
42.03455276
42.00556763
40.11708261
37.14039932
37.16718196
38.50412431
35.07580218
36.0360691
36.00855519
36.09451684
36.06470382
35.10491096
33.53046398
33.55942926
34.2579672
32.44797736
32.96127708
32.93210768
33.02128209
32.99099466
32.47768075
115.820624
116.3170875
88.90315972
89.16596397
101.1622111
71.02169776
79.24133289
79.05652735
79.62747383
79.43152839
71.15302836
58.52990167
58.59036179
64.21984305
50.05054641
53.92493156
53.88232312
54.01573969
53.96936168
50.0834865
44.11365143
44.13511558
46.82577434
39.99612524
41.88426276
41.86402962
41.92851335
41.90572891
40.01765883
37.04467797
37.06702359
38.40761121
34.96862215
35.93219249
35.90865304
35.98210271
35.95666016
34.99410532
33.42103897
33.44746934
34.14808451
32.33358062
32.84782912
32.82077559
32.9034868
32.8753931
32.36152613
113.9558604
114.4050441
87.91990184
88.15643821
99.77054622
70.53179571
78.53065773
78.36410487
78.87665673
78.70140171
70.64939794
58.30729985
58.36034355
63.8848402
49.93312412
53.76396354
53.72741647
53.84134936
53.80190647
49.96052439
44.03903827
44.05615069
46.73386011
39.92099288
41.80984191
41.7937773
41.84492035
41.82686924
39.93826461
36.96448057
36.9832482
38.32882658
34.87453333
35.84311759
35.82285809
35.88598416
35.86414736
34.89694706
33.32103611
33.34521518
34.04956476
32.22596387
32.74255412
32.71742533
32.79422042
32.76814672
32.25225908
112.2518704
112.6650658
87.02561941
87.24214778
98.50845333
70.08853126
77.88634814
77.73384788
78.20132964
78.04209659
70.1956186
58.10965607
58.15709831
63.58420621
49.8345383
53.62492456
53.59298331
53.6920973
53.65793655
49.85768415
43.97937166
43.99307888
46.65890592
39.86059187
41.75067737
41.73789752
41.77858544
41.76422492
39.87449163
36.89691679
36.91275493
38.26414731
34.79153375
35.76630137
35.74877738
35.80331763
35.78447177
34.81134105
33.22938292
33.25156781
33.96089382
32.12463197
32.64469036
32.62130052
32.69274337
32.66849974
32.14940353
110.6665634
111.0534631
86.19908077
86.40033157
97.34311844
69.68108352
77.29330932
77.15175047
77.58426919
77.43741908
69.78005666
57.93095751
57.97413593
63.30972306
49.7504573
53.50258374
53.47415565
53.56197231
53.53183505
49.77032347
43.93147589
43.94249799
46.5971616
39.81197399
41.70359995
41.69343611
41.72580905
41.71437867
39.8231641
36.83976633
36.85318408
38.21089144
34.71798983
35.69974353
35.68451646
35.7318563
35.71551541
34.73557171
33.14512854
33.1655481
33.88078472
32.02908395
32.55351986
32.53169647
32.59831493
32.57572183
32.05245755
109.1706862
109.5368598
85.42511484
85.61434956
96.25114995
69.30154467
76.74034193
76.60739835
77.01247362
76.87530572
69.39415704
57.76666031
57.80660219
63.05533681
49.67750735
53.3929434
53.36717047
53.44642456
53.4193434
49.69486742
43.89282624
43.90174579
46.54568384
39.77284031
41.66614161
41.65805499
41.68381795
41.67471869
39.78184862
36.7912299
36.80264408
38.16694664
34.65252385
35.64180286
35.62850724
35.66979451
35.65555779
34.66820308
33.06741358
33.08627309
33.80811747
31.93882638
32.46836844
32.44795223
32.51023551
32.48912525
31.96092234
107.7501801
108.0982706
84.69321604
84.87283125
95.21863495
68.94399023
76.2191009
76.09299072
76.47626773
76.34679399
69.0315789
57.61326914
57.65077019
62.81648061
49.61298521
53.29286538
53.26906782
53.34191105
53.31713127