/*--------------------------------*- C++ -*----------------------------------*\
| =========                 |                                                 |
| \\      /  F ield         | OpenFOAM: The Open Source CFD Toolbox           |
|  \\    /   O peration     | Version:  v2012                                 |
|   \\  /    A nd           | Website:  www.openfoam.com                      |
|    \\/     M anipulation  |                                                 |
\*---------------------------------------------------------------------------*/
FoamFile
{
    version     2.0;
    format      ascii;
    class       volScalarField;
    location    "2";
    object      p;
}
// * * * * * * * * * * * * * * * * * * * * * * * * * * * * * * * * * * * * * //

dimensions      [0 2 -2 0 0 0 0];


internalField   nonuniform List<scalar> 
3019
(
-720.4042321
-976.6762802
-1068.471638
-1056.658114
-1000.054456
-935.1142162
-856.6591181
-813.1892362
-758.071499
-739.8901563
-727.6528388
-721.7194039
300.4635181
-385.2384389
-669.2705414
-789.0595713
-817.5934589
-803.1428026
-760.7668538
-736.415381
-696.5565354
-685.1828151
-677.105959
-673.2592599
274.8258103
-140.9626724
-428.2428295
-590.6240247
-661.734402
-679.6133719
-665.5138855
-658.394066
-632.6239148
-627.5415313
-623.5541151
-621.7137469
204.921464
-73.69056286
-303.5100232
-455.3084567
-536.3172101
-571.0312769
-577.1945644
-583.0860172
-569.124551
-569.4296128
-569.0561947
-568.9515379
123.9729277
-67.19076227
-238.8392841
-362.6090334
-436.6370229
-479.4378811
-498.1138482
-512.9249331
-508.294024
-512.8405106
-515.3416436
-516.5704196
65.13288568
-72.92332436
-196.8452625
-290.8546575
-356.2880558
-402.4139212
-428.7955111
-449.1013869
-451.4683308
-459.0243261
-463.6586586
-465.8501525
33.70163582
-68.41026568
-158.8450485
-234.3695672
-294.1609068
-339.594356
-369.1777038
-392.2357587
-399.2768236
-408.746282
-414.8023822
-417.69039
26.43345356
-53.98702863
-127.9411422
-192.2515214
-245.5470207
-288.1830397
-318.2857454
-342.1159549
-351.9664103
-362.4553561
-369.3315099
-372.6104713
22.32257022
-43.63775563
-105.1498377
-159.9646298
-206.8628697
-245.7541862
-274.879203
-298.1747624
-309.4478734
-320.2720406
-327.4830868
-330.9263792
18.80721567
-36.0748875
-87.72758777
-134.5561597
-175.5428501
-210.3946306
-237.7131499
-259.7192804
-271.438829
-282.0985779
-289.2855956
-292.7228704
15.86165185
-30.29348819
-73.98987183
-114.0900384
-149.7750816
-180.7054339
-205.6947343
-226.0420097
-237.5446603
-247.7048703
-254.6223508
-257.9352852
13.38966728
-25.70566823
-62.86460424
-97.26296154
-128.2519259
-155.5029116
-177.9924453
-196.485247
-207.3399035
-216.7943555
-223.2837847
-226.3946011
11.30393147
-21.95402538
-53.65104789
-83.17923569
-110.0254052
-133.893155
-153.8800138
-170.4640714
-180.4081733
-189.0424788
-195.0083262
-197.8693858
9.533354203
-18.80944804
-45.87414242
-71.20517449
-94.39497471
-115.1850435
-132.7582863
-147.46437
-156.3546296
-164.1178088
-169.5101942
-172.0962414
8.020757434
-16.11920387
-39.20247126
-60.8834006
-80.83677606
-98.84140669
-114.1358727
-127.0431908
-134.8101764
-141.6935576
-146.4946764
-148.7963521
6.719508625
-13.77706078
-33.39593542
-51.87287477
-68.94779627
-84.43425464
-97.60121401
-108.8125867
-115.4348789
-121.4561921
-125.6692714
-127.6876618
5.591170819
-11.70702836
-28.27633251
-43.91430601
-58.41313894
-71.61894147
-82.81109852
-92.43665739
-97.91959961
-103.1117596
-106.7526341
-108.4950432
4.603460308
-9.852455837
-23.70652477
-36.80410504
-48.97895181
-60.1037888
-69.47636023
-77.6208684
-81.98385898
-86.38681029
-89.47808254
-90.95526462
3.729574131
-8.16971764
-19.57835524
-30.37977903
-40.44104399
-49.64565817
-57.34059579
-64.10489825
-67.36739622
-71.02486464
-73.59150374
-74.81491617
2.946933232
-6.624052865
-15.80399961
-24.50833746
-32.6346547
-40.0854283
-46.15835529
-51.65221792
-53.85021476
-56.80229208
-58.86937285
-59.85202654
2.23606816
-5.186305619
-12.30869488
-19.07424289
-25.4094911
-31.25194504
-35.75096622
-40.05089082
-41.15998372
-43.45599122
-45.04145636
-45.78780752
1.580307012
-3.831378172
-9.027684111
-13.97551841
-18.62671427
-22.93921114
-25.96645287
-29.08769546
-29.33928803
-30.96362726
-32.08881546
-32.6248634
0.9655682261
-2.536632034
-5.903351093
-9.121212969
-12.16425556
-15.0139855
-16.62192818
-18.67021065
-17.48875114
-18.46358831
-19.1260185
-19.38659398
0.3818380582
-1.279660492
-2.883726794
-4.430184732
-5.910353333
-7.327852917
-7.487242474
-8.428925919
-8.323795231
-8.792687832
-9.109435754
-9.339826984
-770.9905664
-816.232087
-1089.892968
386.3898324
-722.4869265
247.4393817
-393.4626184
-976.3987633
392.0281137
400.6865196
-986.7326226
7.621596674
-66.8340654
-124.6241989
-454.6530134
-841.1546073
-1128.887616
-405.7684766
-1179.952215
-1184.054092
-1230.108826
-315.0958654
286.3401472
-79.55712271
-276.0766979
-879.5942545
-1139.776367
-1134.372871
-95.90567484
-347.4776938
-53.19328165
445.2240585
-1374.198221
-1389.101101
431.0007809
198.9887649
-1131.999733
-951.8130615
-973.1029135
-953.8416484
-1130.888231
-727.452403
-904.1115791
-480.5331227
-514.7172044
-678.4835251
-306.4405456
-461.7329036
-379.5930103
-1140.763756
-1341.166582
-1362.430589
-1142.337265
-1114.384252
-1196.559559
-922.8198827
-903.608339
-736.681764
-1512.648115
-1503.36373
-1390.856896
-1389.073745
-723.0038096
-737.3891224
-555.7460074
-562.6227584
-665.18675
-112.0560522
-255.2681718
-1511.54752
-1370.512474
-1455.366228
-968.1196483
-963.4255247
-951.9964704
-1072.248394
-765.4898979
-740.9231665
-729.0466939
-891.3605574
-829.5404568
-830.376339
-489.2893134
-544.967511
-539.3560591
-362.2164911
-370.0951091
-416.489331
-1296.618026
-1303.764064
-1359.027433
-1160.980545
-1226.795256
-1232.654201
-1191.714197
-1151.638421
-1132.817173
-1069.847297
-1048.342019
-986.6108345
-445.7804083
-554.2845907
-795.8859463
-496.5233371
-708.2176774
-1057.497669
-753.6942973
-836.1820005
-1065.806527
-849.6979075
-863.0234175
-1015.988705
-860.8398152
-844.0424594
-950.9286929
345.0533251
82.66728465
-36.88454259
-179.5244571
-415.7207466
-616.9248924
-475.5049217
-605.1750926
-770.2555671
-633.939505
-688.2686424
-815.955804
-697.7769382
-709.4413535
-809.1249468
302.8950626
372.1308799
227.393838
-8.158046652
-47.99024984
-81.34348602
-273.7362576
-369.3023148
-327.3669549
-452.8518046
-560.1102451
-484.0418733
-550.4921116
-650.4436917
-564.9096523
-591.1356491
-678.1754738
198.6832228
276.0184528
142.3699359
-14.08506242
-3.854409031
-65.57481361
-210.0915454
-252.7421352
-251.7453134
-355.8613943
-424.8226063
-383.3594659
-445.1245148
-521.5524991
-459.6659781
-492.3627604
-564.6230997
113.7260974
174.1933103
77.55892085
-35.14633347
-19.54651352
-72.02084592
-174.7544945
-200.0222895
-206.3405295
-285.8623252
-336.5111686
-307.5062854
-360.0151121
-422.2109326
-374.4590492
-410.3272127
-470.4852963
66.21327079
98.56469166
38.71775687
-43.64825219
-38.96364426
-70.61348112
-145.5952766
-168.2069752
-168.2020046
-228.9151888
-270.5576645
-246.9278085
-294.4910072
-341.9359573
-308.2621113
-343.844262
-392.3412495
49.22915859
59.52683317
27.48150716
-36.53626347
-43.14006762
-57.19871007
-116.2670819
-137.5332301
-134.7629888
-186.0841975
-216.9622234
-201.7144697
-244.0453354
-280.6532532
-256.6488176
-290.1321182
-329.3518953
40.97215228
47.05630186
23.30087309
-28.94611894
-34.3171839
-45.91316761
-94.78243565
-110.2631637
-110.2599716
-153.813232
-177.183305
-167.297214
-204.4722886
-233.2672547
-215.7582772
-246.335702
-278.3659772
34.25021499
39.15043767
19.63001738
-23.66264923
-27.45441919
-37.76832234
-78.63783501
-90.32877449
-91.68473852
-128.7680258
-146.9737747
-140.3822344
-172.8102466
-195.9082359
-182.7912286
-210.2095967
-236.6724974
28.80893236
32.78286979
16.54990664
-19.75855733
-22.58209021
-31.60898064
-66.08066865
-75.21370164
-77.14525433
-108.8197106
-123.3677884
-118.8227997
-147.0112903
-165.8758492
-155.7749963
-180.1007339
-202.1879377
24.336891
27.61022965
13.96832532
-16.73273752
-18.93357744
-26.76298701
-56.01811738
-63.36370225
-65.4439632
-92.56553575
-104.453124
-101.1828028
-125.6328162
-141.2984186
-133.2913492
-154.7166026
-173.366418
20.60861578
23.34228664
11.79330171
-14.29808449
-16.07695385
-22.82767258
-47.75194918
-53.80444209
-55.80413702
-79.05939487
-88.96108994
-86.48117747
-107.6473431
-120.8516079
-114.3146954
-133.0780854
-148.9989376
17.46282752
19.77280721
9.949772753
-12.27835321
-13.75950949
-19.54797602
-40.81836509
-45.90805756
-47.70362319
-67.64340415
-76.03041509
-74.02819171
-92.30748562
-103.5887616
-98.09008813
-114.4372758
-128.1711528
14.78052851
16.75276849
8.377424543
-10.56039239
-11.82404682
-16.75559283
-34.89940658
-39.25364575
-40.78113541
-57.84997024
-65.05813891
-63.32919706
-79.06231907
-88.81811494
-84.0557446
-98.22108659
-110.1836263
12.47077175
14.1712286
7.027254144
-9.068285452
-10.16856349
-14.33456568
-29.7684484
-33.55013126
-34.77716345
-49.33562608
-55.61277301
-54.01806355
-67.49418413
-76.0270535
-71.78219166
-83.97950487
-94.49820993
10.46210727
11.94278163
5.858913079
-7.749477365
-8.723978088
-12.20239061
-25.2591153
-28.58821025
-29.49991742
-41.84171573
-47.37494016
-45.81727452
-57.27985423
-64.82440475
-60.93459259
-71.35351839
-80.69007601
8.697146878
10.00001335
4.838750088
-6.566359713
-7.442212276
-10.29845954
-21.24575682
-24.21352225
-24.80374426
-35.16872109
-40.10331768
-38.51158531
-48.16382736
-54.90672806
-51.24625497
-60.04917412
-68.41966886
7.128965286
8.288294175
3.938662598
-5.49070026
-6.288319631
-8.576299225
-17.62992473
-20.30790718
-20.57403945
-29.15792429
-33.6094152
-31.92916911
-39.93984564
-46.03130624
-42.5008656
-49.8215866
-57.40428699
5.718811471
6.76299221
3.135152321
-4.50065331
-5.235917776
-6.999290277
-14.33273273
-16.77853138
-16.7186907
-23.68094398
-27.74318428
-25.93091391
-32.44201264
-38.00321369
-34.52592386
-40.48820563
-47.41433285
4.433619671
5.38698547
2.408009211
-3.578227449
-4.264348219
-5.53704083
-11.28787872
-13.55023889
-13.16001779
-18.62822375
-22.38196459
-20.39751784
-25.52523695
-30.6638107
-27.16925942
-31.88316928
-38.27856776
3.245029045
4.128439683
1.739897536
-2.708115343
-3.356356534
-4.163616924
-8.438435274
-10.55927591
-9.831112804
-13.9040039
-17.41988214
-15.22391227
-19.05646988
-23.87089641
-20.28779743
-23.82561647
-29.82544675
2.128531631
2.960018437
1.116065311
-1.876459725
-2.497118136
-2.855835705
-5.733895807
-7.750566133
-6.672608747
-9.423003724
-12.7640711
-10.31639493
-12.91768522
-17.49518274
-13.75603372
-16.17315659
-21.88210536
1.063187407
1.858202372
0.524015365
-1.070486997
-1.673021278
-1.592701036
-3.129777545
-5.075063011
-3.632407614
-5.110444542
-8.331779021
-5.592598308
-7.003553638
-11.42196766
-7.460921998
-8.790071594
-14.30884012
-0.1118080219
0.804893665
-0.191567683
-0.4333709446
-0.8695675103
-0.5167267141
-0.7736562559
-2.488028419
-0.8611472322
-1.128184458
-4.049263513
-1.218675135
-1.495038893
-5.547300659
-1.589491172
-1.906747993
-6.969417151
-821.0781272
-811.430289
-760.4818908
-837.2299917
-930.4966916
-914.061342
-1450.663697
-1455.316237
-1016.511048
250.9699859
503.6642416
-688.0551494
-528.6493409
-598.0208087
120.2455445
43.11887689
179.9616993
-603.6634277
-424.7982976
-180.7272838
-881.5388617
-525.4721018
-686.7313951
433.0716381
461.2582646
-1138.082575
-1148.37653
-899.1647564
-1235.418346
-1256.675358
-1497.411253
-1493.190877
70.6808824
144.0642495
76.89962015
-145.6232767
-88.91111374
-6.850989776
-272.4100441
-483.7082199
-360.1232574
-572.978558
-505.4967164
-375.2968758
-820.8432436
-646.9570525
-702.1427226
-1125.032767
-1076.111361
-1078.69133
-257.7472423
-319.9250808
-307.9076978
-501.0775228
-479.239632
-333.9883731
-1235.367934
-1231.236725
-1172.890532
-1218.604071
-1316.849778
-1339.650687
-1321.178572
-1318.31873
-1224.106715
-1414.115088
-1413.303974
-269.1214096
-177.5292168
-228.6070808
-155.8013328
-201.2934653
56.34051825
-69.23732952
155.2241949
146.2791801
344.4292257
-124.7485477
-0.6691363245
31.94912496
-124.6376984
-54.63537499
-187.8628801
-964.7844469
-947.9334011
-858.8649359
-1130.587778
-1038.435209
-1051.459822
-1012.983771
-1025.069987
-1120.954349
-167.1965023
-69.00085123
5.219297844
-260.1495479
-157.8335582
-251.5955178
131.0004026
-51.69821757
-161.9632726
456.3941516
575.7321641
548.9019319
-1444.670911
-1443.915548
-1382.559868
215.205446
137.3863882
349.3440174
286.0172605
364.9818499
140.647022
211.8014233
272.7885776
-1074.018065
-1074.239595
-1123.510719
-958.6189935
-1012.504633
-997.0792112
-1026.22376
-1020.641426
-965.7848714
-563.8397361
-548.7601739
-500.4486673
-671.3906474
-595.4397494
-617.7701069
-357.5739163
-337.7888459
-283.0512345
-441.9727642
-388.5786422
-408.786878
-1345.794233
-1295.803515
-1291.592093
-1189.850334
-1380.678161
-1446.371197
-1345.578843
-1366.406789
-1197.148181
-915.5906726
-863.0808509
-871.5758546
-842.377217
-854.0821016
-908.7736332
-748.2876051
-799.0134146
-784.6378491
-1390.627729
-1442.476677
-1444.304392
-1440.627723
-1441.541324
-1392.635817
-1490.277349
-1488.937258
-59.06761079
-109.8480005
-160.9650357
-134.3129181
-85.96666653
-229.1878593
-179.7170368
-204.5399266
-967.4952221
-935.4504128
-902.7709
-874.2353776
-849.2709208
-829.8962069
-626.5831981
-656.372606
-745.7130262
-794.7829863
-849.1178587
-1011.951123
-953.6716043
-970.2636726
-1072.683363
-984.0715046
-979.9478314
-1044.924138
-952.4741537
-940.6141971
-983.7136912
-835.8102981
-826.548863
-881.4483659
-809.0200912
-791.4435016
-833.7709876
-775.2789788
-763.0436917
-795.7444227
328.954236
210.2035578
174.1993727
-298.0481448
-391.585935
-476.7971595
-595.2596193
-641.8220563
-711.2787237
-732.7993643
-750.1629719
-802.3314745
-775.7735756
-777.7164654
-816.4558177
-708.9666066
-718.7899044
-772.2561821
-712.6144435
-704.8748317
-748.2148475
-697.0647697
-690.5896462
-725.9539569
262.9296789
160.5551683
160.1967152
-113.1077165
-192.9914598
-225.9312194
-388.6737332
-438.9537805
-479.3574561
-551.2838307
-577.1595859
-615.382044
-627.5499223
-636.9956938
-669.8159391
-596.2639769
-617.8924213
-667.0546345
-620.2459463
-620.7645449
-662.2300242
-619.9446237
-618.7024695
-654.2526674
182.8865947
120.6241753
134.3321832
-67.79203215
-128.8097633
-137.6197062
-283.4140989
-326.8041613
-349.2387924
-429.2954672
-454.753296
-481.3971011
-509.3470733
-521.3015035
-548.0065121
-500.636551
-528.399104
-571.6730021
-536.4478637
-542.6539535
-580.8316846
-546.9862943
-549.8250112
-584.0195425
107.0323832
64.53247364
78.26119877
-68.73613164
-110.9071651
-112.7051815
-227.1598163
-260.585466
-274.6094512
-343.1822959
-364.899465
-385.5214124
-414.6673283
-427.5949316
-449.3130959
-420.0279218
-450.5247661
-488.0249857
-462.2090102
-472.1419286
-506.4355388
-479.8548562
-485.6870732
-517.4222742
54.43911403
22.14764996
30.414322
-73.07258498
-103.0481746
-105.4600275
-187.4112543
-212.069966
-223.5264775
-275.1034238
-293.0254082
-309.3188572
-339.2547511
-352.3219807
-369.4244028
-353.9204876
-384.3103061
-415.9926893
-397.833627
-409.8028542
-439.9569649
-419.5242232
-427.2188173
-456.0086175
30.54296405
6.436443113
7.677579496
-64.69682305
-87.03524902
-92.31180918
-150.149258
-169.5970053
-179.1881562
-222.7040019
-238.5964762
-250.7798462
-280.9003386
-293.2732946
-306.7546403
-299.8701045
-328.4447329
-355.1706046
-342.7159519
-355.456824
-381.6875353
-366.1095618
-374.7703448
-400.5169029
25.39497864
5.950337983
5.960644104
-51.06613285
-69.39408642
-73.24231618
-121.6147755
-137.9614626
-145.0073872
-183.3955317
-197.2792659
-206.6236451
-235.0607262
-246.3777084
-257.1455408
-255.374532
-281.5236337
-303.9630107
-295.7297244
-308.3574563
-331.0726158
-319.1810326
-328.1501063
-351.0328237
21.38848736
5.422980968
5.579375456
-41.53432434
-56.72205038
-59.53831411
-100.3699185
-114.1797261
-119.5472845
-153.0563923
-165.1096674
-172.455928
-198.4228378
-208.5691921
-217.3044553
-218.4035202
-242.0871228
-260.9429636
-255.5954489
-267.5892182
-287.2543323
-278.0898587
-286.9033714
-307.1747148
18.02103851
4.710420078
4.893363612
-34.49081867
-47.21486555
-49.36284707
-83.99777143
-95.72312639
-99.93729233
-129.0358891
-139.4717775
-145.3764117
-168.6387294
-177.6292505
-184.8165851
-187.4506975
-208.6851642
-224.7240691
-221.1167789
-232.2452224
-249.3065144
-242.1306395
-250.4997415
-268.417589
15.20296621
3.990686521
4.166727081
-29.05153474
-39.79991826
-41.49801053
-70.99602689
-80.99270532
-84.38987267
-109.5827973
-118.6072209
-123.4491326
-144.0385669
-151.9479495
-157.9462916
-161.2452735
-180.103175
-193.8485954
-191.3543301
-201.5067084
-216.3589289
-210.6098675
-218.3705001
-234.2101173
12.83506452
3.327943139
3.486743675
-24.70000393
-33.83016753
-35.21230246
-60.40364056
-68.9507944
-71.75146351
-93.51330084
-101.3097891
-105.3506215
-123.4171492
-130.3390883
-135.411612
-138.8321384
-155.4726457
-167.342242
-165.5292612
-174.6621898
-187.6490439
-182.9069962
-189.9761458
-203.9979857
10.83419732
2.742678425
2.881407773
-21.11797254
-28.89799756
-30.05023631
-51.58709558
-58.90464952
-61.25807148
-80.00834726
-86.73483233
-90.15978999
-105.8974311
-111.9279151
-116.269947
-119.4743191
-134.0805656
-144.4101521
-142.979624
-151.102365
-162.5158235
-158.4720366
-164.8200725
-177.2642079
9.133000551
2.237534664
2.356486409
-18.09908599
-24.73440195
-25.71436888
-44.11327784
-50.37578026
-52.3860823
-68.48482753
-74.27490796
-77.21804449
-90.82861681
-96.05831664
-99.81677392
-102.6015303
-115.3593557
-124.4166363
-123.1635614
-130.315062
-140.3995864
-136.8276703
-142.4583424
-153.5389013
7.677261431
1.807735229
1.908537947
-15.50443156
-21.15551485
-22.00328839
-37.67759142
-43.02496167
-44.76709405
-58.51917872
-63.48510782
-66.04590169
-77.7216194
-82.2327672
-85.52035043
-87.76151382
-98.84869576
-106.8528591
-105.6316215
-111.8662659
-120.83095
-117.5590468
-122.4959059
-132.4067106
6.42257548
1.445021971
1.529919306
-13.23653395
-18.03042833
-18.7748356
-32.05759982
-36.60276256
-38.13230049
-49.79340746
-54.02898081
-56.28313912
-66.19797978
-70.06315218
-72.96816443
-74.59086224
-84.17100919
-91.30139908
-90.00839148
-95.38636607
-103.408429
-100.305578
-104.5825137
-113.4950669
5.332190246
1.139886722
1.211301533
-11.2250719
-15.26340026
-15.92589232
-27.08697458
-30.92159674
-32.28099548
-42.06416821
-45.64744388
-47.65411504
-55.96016006
-59.24201587
-61.83548277
-62.78887041
-71.01523494
-77.41976905
-75.97915181
-80.55939658
-87.79099233
-84.75326992
-88.40813444
-96.47576517
4.375241334
0.8828614188
0.9430972427
-9.417102094
-12.78150789
-13.37863061
-22.63669469
-25.83528011
-27.05795503
-35.13916823
-38.13471448
-39.94118452
-46.76714712
-49.51795927
-51.85812644
-52.10191541
-59.14552304
-64.92939304
-63.27603786
-67.10979964
-73.68448394
-70.62551044
-73.69742724
-81.0557382
3.526170747
0.6653209717
0.7164453894
-7.771671497
-10.52784158
-11.07255407
-18.60470968
-21.22784068
-22.34034354
-28.864843
-31.32626325
-32.97022644
-38.42681033
-40.69145313
-42.82316404
-42.35394559
-48.33013638
-53.62403508
-51.64420523
-54.79247494
-60.82983362
-57.67457563
-60.2006874
-66.97751151
2.76318918
0.4794120093
0.5233230172
-6.25554381
-8.455897892
-8.959093198
-14.90670797
-17.00319279
-18.0281567
-23.11304269
-25.08459918
-26.59871241
-30.7797249
-32.59888705
-34.56157117
-33.36876531
-38.26887261
-43.22885856
-40.8649365
-43.3901459
-48.99468142
-45.68106955
-47.7097456
-53.99537526
2.067558315
0.3181685774
0.3565018919
-4.840730967
-6.526370346
-6.997325797
-11.47072263
-13.07897783
-14.03592713
-17.77186035
-19.28847967
-20.70182182
-23.67728127
-25.08205269
-26.91548307
-24.93933333
-28.82697212
-33.47247233
-30.79443727
-32.70791934
-37.97590715
-34.41312951
-35.94329122
-41.94474123
1.423269361
0.1758390633
0.2099126923
-3.502897551
-4.705112009
-5.152009982
-8.234023071
-9.383221247
-10.28937828
-12.74236088
-13.8301853
-15.16853218
-16.98560669
-17.99822435
-19.73557025
-16.93385031
-19.88447629
-24.30361123
-21.25342554
-22.58563987
-27.58899591
-23.76910474
-24.79044107
-30.42455186
0.8168718237
0.04801780173
0.07881191924
-2.219897578
-2.961357873
-3.391575359
-5.140693039
-5.851814412
-6.722424801
-7.936254092
-8.613496757
-9.899802688
-10.58549139
-11.22112155
-12.89311823
-9.207712508
-11.30990017
-15.53940186
-12.10758717
-12.86947636
-17.67330339
-13.5427009
-14.25122351
-19.48264612
0.2301474677
-0.07503503838
-0.03857879993
-0.9770340311
-1.272986765
-1.68602402
-2.147441011
-2.434514822
-3.275881957
-3.281975344
-3.559499072
-4.806991597
-4.375234492
-4.641219856
-6.268338365
-2.031392476
-3.569105599
-6.983951129
-3.856543499
-4.139378895
-7.973989299
-4.480453146
-4.92048433
-8.813817937
-1207.324226
-1193.21878
-1069.743543
336.3893446
433.1819581
469.508742
-712.5348329
-666.49382
-672.0418957
-951.8350833
-841.3870121
-874.6158862
-1412.263304
-1413.018444
-180.2135008
-251.4196032
-199.7619921
-1187.542106
-1240.178729
-1237.425183
129.1297944
79.91350467
-1086.89324
-1086.3812
-1138.571796
14.74051499
-43.69581954
-113.7674139
212.2128447
167.2058449
-1181.818128
-1297.339288
-1322.784925
-1241.16729
-1269.876176
-1168.153
-1112.591328
-1181.739244
-1211.557474
-1123.978913
-1152.534516
-1091.436918
-1027.183445
-1070.240253
-1096.48964
-1021.786918
-1045.315916
-1006.57193
-485.247205
-569.3547751
-534.8371334
-632.5929737
-602.0541136
-521.0016964
-771.2646788
-685.502384
-713.2944053
-581.3496089
-705.0656317
-632.8585166
-812.1530561
-765.6732986
-651.887663
-1039.369323
-895.035198
-928.8262185
-789.4094492
-875.6354614
-848.4880292
-907.5322934
-894.9256315
-816.4018774
-1071.353855
-980.2372153
-984.5838162
-857.9759696
-917.6093333
-914.8155033
-912.4176893
-916.1822857
-862.3368101
-1031.137024
-972.5336528
-963.2938533
-856.8187966
-898.3753054
-906.212999
-879.4238925
-889.2849876
-851.0895929
-967.2777111
-928.0949143
-915.1327153
248.0337018
233.2798606
341.1621482
62.22331947
103.7204032
8.057794639
-268.5943602
-322.9333065
-230.9435055
-471.8416249
-402.9099849
-347.1122651
-553.7758619
-471.3236773
-538.4819663
-526.4708606
-580.5520772
-531.1875934
-654.7954362
-621.436392
-569.4301317
-744.6101985
-679.5044362
-709.5851785
-656.9019931
-701.5895163
-681.210496
-728.2604977
-717.0804215
-674.8103231
-811.0684719
-762.5978985
-770.9912939
-704.0220131
-740.0891419
-735.6878824
-741.685002
-742.0586179
-707.8860184
-813.568962
-777.2061719
-774.9925098
327.8232751
348.1415525
147.065038
155.9840692
247.5225214
-14.30942718
69.61646344
71.93727077
52.38126286
64.69173753
-26.9150837
-150.3440652
-168.3001222
-93.90088198
-299.6381632
-237.0659044
-214.6071703
-302.1308934
-265.9034975
-331.1523063
-374.921178
-404.4816354
-355.4947842
-484.3825312
-447.3391447
-416.5819778
-523.1646662
-482.638209
-519.9528452
-510.4642849
-542.2764129
-515.8879086
-581.5042616
-563.9905702
-532.4792697
-635.1213096
-598.1409041
-614.7761166
-576.1386526
-605.7664571
-595.2726215
-618.9051187
-613.397161
-584.5939595
-675.1504727
-643.5981224
-647.9212183
224.0491263
249.7225525
92.53362762
106.7236301
162.0683283
-9.39459615
48.68858744
39.17174055
65.8856554
57.71681568
-4.713461182
-115.4422815
-121.5727556
-64.46161024
-221.8405715
-173.8763888
-165.2976981
-197.3695509
-184.1586153
-235.7606362
-289.9961072
-307.2178981
-266.401069
-376.8709934
-344.1027691
-324.7273838
-389.6116047
-365.6300575
-399.7168158
-407.2532953
-430.1992346
-405.4973136
-469.0912761
-451.3058743
-427.7530987
-503.3639593
-476.3873157
-494.4858423
-472.0462996
-495.983945
-483.8352992
-515.2649052
-506.3010568
-482.8516857
-557.1425022
-531.0513198
-539.3324838
131.3346389
151.5366191
40.35162582
51.81244843
91.55812055
-30.42816694
10.13001369
2.141444415
28.86676474
19.0073754
-25.13447516
-107.6872373
-109.2856448
-70.54011294
-182.3827694
-146.2462268
-141.4128526
-157.8967044
-151.6842351
-190.9315676
-235.2763083
-247.5605036
-216.3732663
-301.8021541
-276.0277654
-261.7873908
-307.1831824
-291.0691668
-318.5931903
-326.8209181
-345.371357
-324.8985757
-379.4129119
-363.3785999
-344.1837403
-405.3256612
-383.8245018
-400.2046925
-387.6055703
-406.9768542
-393.8941558
-429.3655244
-418.7542682
-399.5273889
-460.5246948
-439.1395221
-449.4464029
74.90322364
85.66476009
10.85898785
15.59177149
45.60720072
-43.51944259
-14.08886048
-16.63712056
-4.609575489
-10.04739661
-41.78264444
-97.07667385
-100.5818111
-71.85263486
-153.5555473
-127.9463416
-121.8859812
-137.0912107
-133.1505683
-161.1557259
-189.586598
-200.7003466
-177.8715145
-241.8467018
-221.9633747
-209.8062755
-248.134644
-234.8661436
-255.7982607
-263.8516931
-277.8995605
-260.4745963
-309.263389
-294.1528454
-279.6984882
-326.3042785
-309.6569404
-325.0508659
-321.0496828
-336.216997
-323.2696257
-359.1519279
-348.1486347
-332.8901844
-381.4055437
-364.3069179
-375.2893361
51.69934393
54.77820362
5.863519525
5.88522842
28.7542169
-39.07419697
-16.81018252
-15.50131139
-17.68091321
-17.75545267
-41.62622756
-77.4358058
-82.02875894
-60.78221197
-122.7860512
-102.7333124
-97.14507298
-115.3038029
-108.8052869
-129.8781467
-152.5876162
-160.7596048
-142.1406061
-195.6345854
-178.6010702
-169.7031017
-198.5625827
-188.191871
-205.9009739
-216.5852706
-227.2215921
-211.8434082
-255.496715
-241.7701437
-230.6942253
-266.2015654
-253.583766
-267.6785812
-268.5196018
-280.5457044
-268.4155998
-302.5417365
-291.9048259
-279.6731359
-318.4624363
-304.821333
-315.5839456
42.91598881
44.96373957
5.721213487
5.850796878
24.33276254
-30.57674283
-12.47770548
-11.71668304
-14.30965269
-13.32622765
-32.35773441
-62.57135201
-65.84741475
-48.38265295
-99.56495058
-82.92263048
-78.87438628
-92.01579962
-87.29083099
-104.711966
-125.2748397
-131.3992174
-115.735334
-161.0986113
-146.528061
-139.8000212
-161.4294349
-153.7220594
-168.8726954
-180.239819
-188.500185
-175.0932529
-213.5263921
-201.3121156
-192.632859
-220.295123
-210.5177952
-223.1102092
-226.4945664
-236.1738176
-225.1450683
-256.5038281
-246.6189011
-236.6869806
-268.0737226
-257.0708713
-267.1500182
35.79856025
37.43075446
5.075026449
5.253078831
20.49084282
-24.82723445
-9.868552901
-9.36962832
-11.03252928
-10.41958701
-26.08665088
-51.65293859
-54.10029365
-39.5834569
-82.28302541
-68.34356699
-65.28536145
-75.11402275
-71.61208262
-86.17145107
-104.4023084
-109.1412329
-95.89081234
-134.4833468
-122.0118924
-116.76957
-133.495699
-127.5770056
-140.5413803
-151.6000523
-158.1684149
-146.5396212
-180.1082279
-169.3601497
-162.4117467
-184.4388313
-176.6919143
-187.7971651
-192.3524945
-200.2614862
-190.4091225
-218.6316887
-209.6655461
-201.4945512
-227.2359388
-218.2390903
-227.4257303
30.06772486
31.39073088
4.345950939
4.527544171
17.26921329
-20.6374799
-8.11751733
-7.7653432
-8.915188579
-8.499411959
-21.57635044
-43.2935206
-45.19568383
-33.00533569
-68.9517321
-57.18493721
-54.79061741
-62.41759759
-59.72264271
-71.99084413
-87.96702463
-91.73923121
-80.47608435
-113.4150781
-102.7241229
-98.53010336
-111.8232084
-107.1486144
-118.257628
-128.528444
-133.8628895
-123.7984299
-152.9985683
-143.5988262
-137.9271782
-155.8187634
-149.5555501
-159.2796268
-164.2138698
-170.7686315
-162.0565855
-187.1527913
-179.1316403
-172.325467
-193.69535
-186.2499128
-194.4922178
25.37764479
26.46772695
3.650305806
3.818389111
14.57228537
-17.42494931
-6.853610379
-6.589116503
-7.439287289
-7.136264847
-18.15727118
-36.66391345
-38.19086467
-27.87652044
-58.34292646
-48.35140202
-46.42028888
-52.52741522
-50.38434838
-60.7882861
-74.68503465
-77.76159583
-68.15091857
-96.34030459
-87.16215296
-83.72940434
-94.54892671
-90.76456769
-100.2985356
-109.5718976
-113.9860406
-105.2848405
-130.6246987
-122.4351484
-117.7243442
-132.5211472
-127.3627842
-135.8418905
-140.6948879
-146.2021558
-138.5487454
-160.6885508
-153.5805311
-147.8398157
-165.8081371
-159.5668514
-166.8858733
21.48062806
22.39106019
3.025202913
3.174062581
12.30331884
-14.86230194
-5.885737943
-5.676237019
-6.340758146
-6.106803391
-15.45441989
-31.25367534
-32.51221144
-23.74189368
-49.67844749
-41.16138673
-39.56514607
-44.58285879
-42.83203104
-51.69370321
-63.71212465
-66.27380319
-58.05268156
-82.21811707
-74.33213334
-71.46686972
-80.45390282
-77.32479647
-85.51547324
-93.72450299
-97.43791871
-89.92274396
-111.8703817
-104.7560505
-100.7820781
-113.2158843
-108.8970472
-116.2681076
-120.7791297
-125.4654098
-118.7752299
-138.190663
-131.9361847
-127.0367042
-142.3260169
-137.0300728
-143.4806025
18.20179858
18.97117134
2.480266644
2.6089836
10.38313151
-12.75140142
-5.106131163
-4.932505189
-5.477132758
-5.287399384
-13.24455636
-26.73308982
-27.79340028
-20.31680264
-42.44625126
-35.1725607
-33.8257012
-38.03803789
-36.57529778
-44.14119815
-54.47419195
-56.645407
-49.60646366
-70.32979219
-63.55567318
-61.1231296
-68.72067357
-66.0859495
-73.12305647
-80.27116522
-83.44130339
-76.96055213
-95.92757077
-89.76561335
-86.3661654
-96.96507742
-93.29579702
-99.68510676
-103.7093149
-107.744089
-101.9220213
-118.8593755
-113.3891529
-109.1613005
-122.3176693
-117.7726174
-123.4224554
15.41302146
16.06997993
2.01368149
2.123305146
8.747938489
-10.96622922
-4.450954236
-4.301645207
-4.76585374
-4.605523658
-11.38707793
-22.8810454
-23.79072128
-17.41503565
-36.29765165
-30.08691188
-28.93082802
-32.53140395
-31.28616017
-37.74794668
-46.57042303
-48.43866279
-42.41689115
-60.16671524
-54.35723324
-52.26188518
-58.78295575
-56.52934697
-62.56773324
-68.6943903
-71.4356117
-65.86132159
-82.2019809
-76.88419129
-73.94039369
-83.09085333
-79.93233271
-85.45181161
-88.91648106
-92.42713395
-87.38443354
-102.0820122
-97.32579339
-93.64093597
-105.0790407
-101.137164
-106.0567547
13.01745615
13.58391425
1.618577575
1.711130374
7.346298585
-9.423316802
-3.881069876
-3.748813734
-4.157151555
-4.017077406
-9.789818718
-19.54292826
-20.33594789
-14.90995942
-30.98721741
-25.69651888
-24.68893753
-27.8153131
-26.7379514
-32.24695163
-39.71076619
-41.34059401
-36.20344316
-51.35959607
-46.394201
-44.56505554
-50.23894059
-48.28430851
-53.45068624
-58.60813922
-61.00732875
-56.23212089
-70.24798545
-65.6807225
-63.10156055
-71.09534787