/*--------------------------------*- C++ -*----------------------------------*\
| =========                 |                                                 |
| \\      /  F ield         | OpenFOAM: The Open Source CFD Toolbox           |
|  \\    /   O peration     | Version:  v2012                                 |
|   \\  /    A nd           | Website:  www.openfoam.com                      |
|    \\/     M anipulation  |                                                 |
\*---------------------------------------------------------------------------*/
FoamFile
{
    version     2.0;
    format      ascii;
    class       surfaceScalarField;
    location    "2";
    object      phi;
}
// * * * * * * * * * * * * * * * * * * * * * * * * * * * * * * * * * * * * * //

dimensions      [0 3 -1 0 0 0 0];
oriented        oriented;


internalField   nonuniform List<scalar> 
5975
(
-0.05827144818
0.006316494253
0.05777377311
-0.01227155539
0.006452736204
0.01512782616
-0.1244528322
0.2452131218
-0.02617246242
0.01468769596
-0.1244033493
-0.2722798198
0.02456136794
0.2737029286
-0.02590067826
-0.2889856432
0.02338289268
0.288011649
-0.02225322287
-0.2781685277
0.01837609344
0.2767549396
-0.01682471583
0.01153807544
-0.2445841018
0.2426769551
-0.009599340167
-0.4652956564
0.01471060001
0.463245152
-0.01266009558
-0.4620567139
0.01106632979
0.4605716848
-0.009581300696
-0.01312002678
0.9108897106
0.008776374578
0.008319508295
-0.008468627498
0.9046857658
-0.004171195012
0.9028221391
0.9018396911
-0.1120724201
0.00827983506
0.1119322595
-0.01617163365
0.008031959142
0.02526244467
-0.2383864056
0.2379160828
-0.02478855299
-0.2735484368
0.0242151711
0.2739521193
-0.0245128874
-0.2848308131
0.02359313944
0.2892796896
-0.02788914962
-0.2719032757
0.02453670229
0.2667494085
-0.01927190507
0.01119849135
-0.2343624663
0.2326567378
-0.009488052636
-0.4614429157
0.01559087646
0.4598232924
-0.0139712532
-0.4590710502
0.01238589154
0.4573288883
-0.01064372961
-0.01262946668
0.9060714823
0.008660708682
0.008786986396
-0.009196624079
0.9012529232
-0.004506640781
0.8981321558
0.8973330503
-0.2261883783
0.01669523251
0.2267563363
-0.01726319046
-0.244746772
0.0253586931
0.2484152785
-0.02898697173
-0.2779609007
0.03473319073
0.2784271768
-0.03507422153
-0.2862041304
0.03230454044
0.2844096794
-0.03035895632
-0.2580401695
0.02249586599
0.2581910414
-0.02256670753
0.01165166936
-0.2311179483
0.2287898385
-0.00932355959
-0.4583807623
0.01732994043
0.45526637
-0.01421554817
-0.4555615881
0.01273901879
0.4535417256
-0.01071915622
-0.01305051056
0.9013329403
0.008974587072
0.008814465481
-0.009274314929
0.8974767276
-0.004723061814
0.8935809027
0.8926099885
-0.2355964727
0.0385131645
0.2380804006
-0.04098012893
-0.2578362067
0.04863300859
0.2597994176
-0.05052599061
-0.2780974622
0.05156927461
0.2768902629
-0.05024019096
-0.2759380497
0.04159339615
0.2719108979
-0.037447274
-0.2459791271
0.02285780591
0.2408605439
-0.01769666633
0.01115389239
-0.2268664303
0.226266009
-0.01055347115
-0.4545295071
0.01771858901
0.4518408307
-0.01502991258
-0.450696366
0.01163662667
0.4491143015
-0.01005456213
-0.01227288483
0.8951201676
0.009512096454
0.008973561082
-0.006889774254
0.892093617
-0.004785712022
0.8914768404
0.8878242765
-0.2417743215
0.07157985227
0.241876587
-0.07165894432
-0.2605208541
0.07006615187
0.259053519
-0.06852853393
-0.2687235517
0.05976969791
0.2644503668
-0.05540284746
-0.2560801989
0.0386506335
0.2496859451
-0.03219055595
-0.2256885534
0.0127933373
0.224839991
-0.01194437845
0.01039208449
-0.2246392779
0.2241382186
-0.009891025179
-0.4481558864
0.0168351531
0.4464223033
-0.01510157002
-0.4475415848
0.0134478042
0.4459419189
-0.01184813831
-0.01147918732
0.8880167018
0.01018656121
0.00839609191
-0.00650854375
0.8871229735
-0.004426936876
0.8893952336
0.8833973396
-0.2395197585
0.07494828925
0.2380469593
-0.07345676722
-0.250218718
0.06507608531
0.2461407545
-0.06095268057
-0.2478270914
0.04477313479
0.2414041327
-0.03830684623
-0.2284126258
0.01695336577
0.2238972559
-0.01243323083
-0.2234263513
0.01116928492
0.2230120946
-0.01075502831
0.009516586078
-0.2227950496
0.2223838419
-0.009105378391
-0.4448023689
0.01567739636
0.4432947338
-0.01416976124
-0.4444540752
0.01270175202
0.4430098966
-0.01125757346
-0.01432212735
0.8828429656
0.009638861958
0.009857001558
-0.009408342062
0.8822091882
-0.001848845321
0.8818357369
0.8815484943
-0.2325362404
0.03860669527
0.2305851248
-0.03664924023
-0.2322574476
0.02641219331
0.2275765537
-0.0217232058
-0.2242289441
0.01216926371
0.2240007262
-0.01194104586
-0.2228755171
0.01115153413
0.222583978
-0.01085999502
-0.2219126612
0.009927354752
0.2215883071
-0.009603000618
0.008610332476
-0.2212838161
0.2209454185
-0.008271934892
-0.4418943093
0.0143826527
0.440597436
-0.01308577943
-0.4416795171
0.01179984359
0.4403948562
-0.01051518272
-0.01348353553
0.8780924346
0.008982354172
0.009251712342
-0.008897303412
0.8776229561
-0.004417173565
0.877355607
0.8771313207
-0.2281996432
0.01124465235
0.2281837796
-0.01122878878
-0.2255609311
0.01104164957
0.2254572313
-0.01093794976
-0.223406865
0.01051900482
0.223234403
-0.01034654284
-0.2218176274
0.009745267635
0.2215930837
-0.00952072391
-0.2207212427
0.00879126644
0.2204632977
-0.008533321435
0.007729042809
-0.2200410558
0.2197599704
-0.007447957453
-0.4393966841
0.01306178903
0.4382854827
-0.01195058764
-0.4392180615
0.01083133809
0.4380839858
-0.009697262418
-0.01252879967
0.8737795476
0.008275774471
0.008565912179
-0.008302074831
0.8733962312
-0.004131629097
0.8731851613
0.8729996917
-0.2281297458
0.009735946593
0.228109463
-0.009715663799
-0.2251799374
0.009555919441
0.2250967623
-0.009472744346
-0.2227777459
0.009142834471
0.2226427345
-0.009007823063
-0.2209951434
0.008535770393
0.2208176818
-0.008358308804
-0.2197681537
0.007775684373
0.2195596251
-0.007567155767
0.006907463013
-0.2190119003
0.21877642
-0.006671982756
-0.4372562786
0.01178620099
0.4363027086
-0.01083263093
-0.4370487568
0.009859811655
0.436050791
-0.008861845883
-0.01152795987
0.8698932449
0.007561401019
0.00785286155
-0.007666900203
0.8695351716
-0.003823610991
0.8693418721
0.8691760807
-0.2280432614
0.008489068812
0.2280197131
-0.008465520438
-0.2248691235
0.008323188688
0.2247994961
-0.008253561357
-0.2222794519
0.007984099519
0.222170397
-0.007875044709
-0.2203396064
0.007494426865
0.2201961426
-0.007350963106
-0.2189932848
0.006876777032
0.218822134
-0.006705626251
0.00615864007
-0.218152876
0.2179554276
-0.005961191644
-0.4354173154
0.01059094982
0.4345950505
-0.009768684847
-0.4351416981
0.008922061874
0.4342642409
-0.008044604683
-0.01052936845
0.8664070933
0.006867889397
0.007147630716
-0.007024767808
0.8660305709
-0.003509890302
0.8658269946
0.8656661904
-0.2279458525
0.007446481977
0.2279204188
-0.007421048383
-0.2246059594
0.007291550677
0.224545969
-0.007231560215
-0.2218729132
0.007005105469
0.2217824658
-0.006914658038
-0.2198056126
0.006600511581
0.2196872492
-0.00648214817
-0.2183538068
0.006089416869
0.2182112375
-0.005946847635
0.005487686249
-0.2174308728
0.2172635599
-0.005320373358
-0.433830345
0.00949496305
0.4331188576
-0.008783475652
-0.4334653843
0.008044604391
0.4326929758
-0.007272195896
-0.009569153838
0.8632871788
0.006213544319
0.006475523941
-0.006401110476
0.8628625276
-0.003203501055
0.8626293852
0.8624626893
-0.2278425155
0.006566102649
0.2278161793
-0.006539766463
-0.2243774605
0.006420561362
0.2243247258
-0.006367826698
-0.2215330433
0.006173334782
0.2214564124
-0.006096703884
-0.2193621794
0.005832275398
0.2192627838
-0.005732879766
-0.2178184921
0.005402509588
0.2176981107
-0.005282128234
0.004892188733
-0.2168176664
0.2166745106
-0.004749032941
-0.4324556206
0.008504387643
0.4318369542
-0.00788572125
-0.4319897604
0.007238529598
0.4313084022
-0.006557171368
-0.008668425902
0.860497212
0.005609134562
0.005849258176
-0.005811479923
0.8600055816
-0.002912536069
0.8597304413
0.8595501532
-0.2277366333
0.005815459082
0.2277100341
-0.005788859874
-0.2241755103
0.005678320482
0.2241284855
-0.005631295699
-0.2212432972
0.005461484796
0.2211772732
-0.005395460723
-0.2189877994
0.005169293182
0.2189030888
-0.005084582599
-0.217364586
0.004802963073
0.2172617411
-0.004700118163
0.004365556007
-0.216291849
0.2161683057
-0.004242012686
-0.4312586568
0.007619476159
0.4307176977
-0.007078517101
-0.4306876998
0.006509220745
0.430084886
-0.005906407031
-0.007840460113
0.858000636
0.005060660428
0.00527637567
-0.005266078728
0.8574312002
-0.002642422205
0.8571067848
0.856907731
-0.2276303464
0.005173323493
0.2276038865
-0.005146863579
-0.2239946378
0.005043803373
0.2239522409
-0.005001406374
-0.2209923189
0.004851189727
0.2209346447
-0.004793515485
-0.218667162
0.004597447747
0.218594039
-0.004524324748
-0.2169752307
0.004281439494
0.2168864362
-0.004192645004
0.003902889656
-0.2158369325
0.215729464
-0.00379542113
-0.4302104987
0.0068363663
0.4297346956
-0.006360563215
-0.4295350586
0.00585740801
0.4289997664
-0.00532211585
-0.007090258439
0.8557627998
0.004568138639
0.004759955984
-0.0047694301
0.8551103719
-0.002395729518
0.8547330842
0.8545120015
-0.227524999
0.004625744622
0.2274989135
-0.004599659125
-0.2238309637
0.004503092949
0.2237923753
-0.004464504535
-0.2207720578
0.004330102313
0.2207210605
-0.004279105024
-0.2183891458
0.00410704964
0.218325277
-0.004043180916
-0.2166377718
0.003831376598
0.2165603215
-0.003753926361
0.003500631245
-0.2154401121
0.2153458662
-0.003406385337
-0.4292872705
0.006149315912
0.4288661765
-0.005728221899
-0.4285108038
0.005281168821
0.4280333558
-0.004803720781
-0.006421144205
0.8537508113
0.004132822125
0.004300310538
-0.004324722818
0.8530139505
-0.002174319909
0.8525826813
0.8523376816
-0.2274213843
0.004159461439
0.2273958067
-0.004133883781
-0.2236815401
0.004042986906
0.2236461255
-0.004007572366
-0.2205765238
0.003886112433
0.2205309388
-0.003840527421
-0.2181453577
0.003687867371
0.2180889619
-0.00363147157
-0.2163423928
0.003444841385
0.2162741721
-0.003376620741
0.003153174759
-0.2150911248
0.2150078037
-0.003069853657
-0.4284689099
0.005551648142
0.4280937663
-0.00517650458
-0.4275963476
0.004776950944
0.4271682604
-0.004348863738
-0.005831727675
0.8519343571
0.003752212474
0.003895969448
-0.003931777407
0.8511140002
-0.0019783168
0.8506292207
0.8503593648
-0.2273199477
0.00376232449
0.2272949538
-0.00373733057
-0.2235440569
0.003651423318
0.2235113196
-0.003618686001
-0.2204011408
0.003507955266
0.2203599982
-0.003466812663
-0.2179293322
0.00332999948
0.2178790334
-0.00327970071
-0.2160813636
0.003113641759
0.2160207071
-0.003052985249
0.002854112993
-0.2147816595
0.2147074023
-0.002779855805
-0.427738608
0.005036646236
0.4274020078
-0.004700046097
-0.4267754571
0.004340559059
0.4263892521
-0.003954354084
-0.005319450183
0.8502855712
0.003423707126
0.003544528883
-0.003589439199
0.8493839892
-0.001807309627
0.8488470911
0.8485520552
-0.2272208916
0.003427284555
0.2271965039
-0.003402896873
-0.2234166259
0.003321343629
0.2233861431
-0.00329086085
-0.2202422881
0.003189028683
0.2202047957
-0.003151536344
-0.2177359399
0.003027681821
0.2176906177
-0.002982359577
-0.2158484408
0.002833105564
0.2157939754
-0.002778640184
0.002599915993
-0.2145047443
0.2144379274
-0.002533099013
-0.4270821303
0.00459858286
0.4267776649
-0.004294117419
-0.4260338214
0.003968129714
0.4256828276
-0.003617135932
-0.004881132804
0.8487785486
0.003144474917
0.003243680485
-0.003295997286
0.8477988537
-0.001660561154
0.847211655
0.846891494
-0.2271242478
0.003147087697
0.2271004617
-0.003123301601
-0.2232976437
0.003045530472
0.2232690577
-0.003016944534
-0.2200970034
0.002922491065
0.2200625102
-0.002887997772
-0.217561003
0.00277473669
0.2175197412
-0.002733474905
-0.2156385207
0.002597955874
0.2155891372
-0.002548572349
0.002386571159
-0.2142545611
0.2141943044
-0.002326314423
-0.4264868125
0.004230839846
0.426208428
-0.003952455352
-0.4253586395
0.003654142224
0.4250368675
-0.003332370204
-0.004512224597
0.8473902796
0.002911435021
0.002989058586
-0.003048727613
0.8463353567
-0.001536838567
0.8456997659
0.8453546555
-0.2270299497
0.002918034485
0.2270067261
-0.002894810824
-0.2231857321
0.002820245
0.2231587121
-0.002793225006
-0.2199628155
0.002704785408
0.2199307454
-0.002672715285
-0.217401053
0.002567967961
0.2173630461
-0.002529961105
-0.2154473927
0.00240545836
0.215402097
-0.002360162689
0.002211740187
-0.2140268863
0.2139721904
-0.002157044341
-0.4259410386
0.003929086033
0.4256837746
-0.00367182207
-0.4247384216
0.003396021964
0.4244406424
-0.003098242756
-0.004209591235
0.8460968654
0.002722698052
0.002780307314
-0.00284583588
0.8449716013
-0.001435204915
0.844289135
0.8439194505
-0.2269378294
0.002735791427
0.2269151115
-0.002713073537
-0.2230796344
0.002641159419
0.2230538789
-0.002615403909
-0.2198375507
0.00253175856
0.2198073947
-0.002501602566
-0.2172530418
0.002403536143
0.2172175778
-0.002368072083
-0.2152712137
0.002252143493
0.2152290823
-0.002210012117
0.002071853079
-0.2138172173
0.2137660675
-0.00202070332
-0.4254358398
0.003687243778
0.4251960544
-0.003447458366
-0.4241627749
0.003189463333
0.4238829918
-0.002909680301
-0.003970446541
0.8448867168
0.002572844296
0.002607750883
-0.002685766851
0.8436869216
-0.001355330709
0.8429586988
0.8425641198
-0.2268476591
0.002595823326
0.2268253863
-0.002573550594
-0.2229781994
0.002503777085
0.2229534379
-0.002479015538
-0.2197192779
0.002399085551
0.21969059
-0.002370397622
-0.2171142774
0.002277417718
0.2170807409
-0.002243881277
-0.2151065406
0.002134449032
0.2150668129
-0.002094721383
0.00196446039
-0.2136207858
0.2135725525
-0.001916227093
-0.4249631398
0.003504000583
0.42473637
-0.003277230879
-0.423621637
0.003033406176
0.4233582155
-0.002769984693
-0.003790563799
0.8437255542
0.002465585987
0.002486140325
-0.002564527838
0.8424608857
-0.001294071372
0.8416882423
0.8412700485
-0.2267591453
0.00249578318
0.2267372395
-0.002473877338
-0.2228803331
0.002405723459
0.2228563048
-0.002381695211
-0.2196062342
0.002304467593
0.2195786028
-0.002276836214
-0.2169823531
0.002187488637
0.2169501871
-0.002155322671
-0.2149504049
0.002050508276
0.2149123886
-0.002012491956
0.001887847304
-0.2134345301
0.2133883286
-0.001841645814
-0.4245144752
0.003375780597
0.4242968409
-0.003158146323
-0.4231088538
0.002923829138
0.4228554417
-0.002670416961
-0.003678133308
0.8426085477
0.002383181765
0.002411958075
-0.002489657772
0.8412724101
-0.001259708673
0.8404582932
0.8400103398
-0.2266719349
0.002435122702
0.2266502866
-0.002413474481
-0.2227849844
0.002346355358
0.2227614161
-0.002322786988
-0.2194968013
0.002247251156
0.2194698284
-0.002220278249
-0.2168550917
0.002133175243
0.2168237656
-0.002101849179
-0.2148001013
0.001999855859
0.2147631369
-0.001962891407
0.001841784503
-0.2132551383
0.2132104231
-0.001797069247
-0.4240824861
0.003301559777
0.4238704293
-0.003089502943
-0.4226157895
0.00286243684
0.4223758039
-0.002622451318
-0.003589104858
0.00230104565
0.002370443234
-0.002425905305
-0.00122001326
-0.006542969869
0.02899149377
-0.02913918137
0.006690657464
0.006565344124
-0.01262246159
-0.05875730058
0.1238910011
-0.01565393175
-0.1250048634
0.01676779407
-0.008816908211
0.05528016523
-0.05526303663
0.008799779612
0.006538916869
0.02876907116
-0.0175724568
0.0008247486518
-0.05205651184
-0.05208510827
0.2326838421
-0.02106835433
0.01296586936
0.01258065263
-0.1187581777
-0.1184038321
0.01615692318
0.1228619041
-0.009330310296
0.1120802414
-0.1117143151
0.008964383965
0.008352648111
0.05520735218
0.1222369417
-0.02029912865
-0.1234891643
0.01067789941
0.01087345187
-0.05406357543
-0.009266063196
0.009618827888
0.05371081074
-0.00956869081
-0.05452032206
0.01002543744
0.05521650981
-0.009273949133
-0.05551125149
0.1189834249
-0.01682214504
-0.1193705121
0.01720923219
-0.01954126893
0.1210312479
0.0102734628
0.01047349993
-0.03040898935
-0.007123106805
0.007453219145
0.03007887701
0.05567736676
-0.01152641546
-0.05611935671
0.005957887497
0.006010517907
-0.007179335853
-0.03066945542
0.007439801922
0.03037383939
-0.006975418717
-0.03057775652
0.06138779274
-0.01219643574
-0.06179761584
0.01260625884
-0.01119750036
0.01153844896
0.05533641817
-0.01978176171
0.009821796714
-0.1125393033
-0.1130194203
-0.02248488948
0.2359035991
-0.2327208213
0.01930997183
0.2344357455
0.01338280062
0.01012774069
0.05974305356
-0.01138574362
-0.0601434617
0.01178615176
-0.01205082027
0.01247565163
0.06096296138
0.03015427817
-0.006903545587
0.1159112851
-0.0111029628
-0.1159586799
0.01115035764
-0.01595398192
0.01586603669
0.1190713701
0.05479699481
-0.008846548196
-0.01252271223
0.1108436308
-0.1105394135
0.01221849491
0.01704706223
-0.01654836634
-0.000498695894
0.03033503822
-0.007203265938
-0.03049592735
0.007364155068
0.04884051962
-0.008344039528
-0.04901196094
0.0520205426
-0.00776298115
-0.05278081098
0.008523249529
0.006671261362
-0.02536176355
0.02648953665
-0.007799034467
0.006180878322
0.02754336918
-0.006806367257
-0.02691788025
0.02950741377
-0.006864906224
-0.02956037736
0.00691786981
0.02522341354
-0.02366402806
0.004621492846
-0.01712178339
0.02419325904
-0.0004002142891
0.02708875071
-0.007350649608
-0.02703913446
0.007301033356
-0.00551103196
0.003761978931
0.02697246657
0.02767101375
-0.005971203176
-0.02125312255
0.02695481914
-0.006722420243
-0.02695449502
0.006722096125
-0.00719651958
0.007060996057
0.02722427423
0.02720088223
-0.006084174453
-0.02721949204
0.006102784269
-0.006524871011
0.006520135917
0.02695955424
0.02089787182
-0.006182929934
-0.01666771071
-0.0004540726793
-0.00707325411
0.006993647613
0.03041464472
0.02239505314
-0.005044021842
-0.0003039690679
-0.008339302147
-0.03369017211
-0.01471783504
-0.1253889289
-0.02313555072
0.2647071459
-0.2650772699
0.02355201313
-0.006635757682
0.006806820797
0.02933635066
0.02847252203
-0.006440184807
0.02831281944
-0.007123908116
-0.02853956093
-0.005999846026
0.004269848374
0.02906525144
-0.006829018028
0.03028828937
0.03078464353
-0.007081125172
-0.0309067843
0.03089169842
-0.006703403718
-0.03098505506
0.006796760355
-0.01588006455
0.02240658979
-0.006132544713
-0.0003939805309
-0.01527551677
-0.0006045477787
-0.01447119268
0.01509219622
-0.02932481784
0.02221694655
-0.007363321396
-0.006514612732
-0.0004036153126
-0.005831372424
0.02663051835
-0.02670875619
0.005909610272
-0.005962616991
0.006183065907
0.02698043331
0.02751685494
-0.0002253074445
-0.03435859118
0.0255948103
-0.007784585459
-0.006587473913
-0.0002542623238
0.01528328039
-0.03152272082
-0.007424587638
0.01579919274
-0.0005159123524
0.0207566167
-0.0003359311074
-0.006952722692
-0.0003767390853
0.00770469573
-0.0274108155
-0.007333014692
0.02370756611
-0.03127838715
0.02487605476
0.02485267014
-0.0003340745075
-0.006019914987
-0.0004058020209
-0.006458263913
-0.02338891286
0.02387931501
-0.006461605324
0.005704621304
-0.006876587609
-0.005177759541
0.02239130762
-0.02408843238
0.02475683518
-0.005846162337
-0.006392047303
-0.004066535613
0.02683026453
-0.0003686757751
-0.02706575675
0.02885563454
-0.0058564134
-0.006514968288
-0.02920707594
-0.007792007486
0.02865978127
0.006503325586
-0.006854766985
-0.0003565819888
-0.02236730602
-0.2729723976
-0.01991732822
0.2877450208
-0.2883358387
0.02065262525
-0.02197167301
-0.286780249
-0.02043923156
0.2836933732
-0.2845565963
0.02145812517
-0.01917651336
-0.2792887078
0.2545108279
-0.01296799185
-0.2569826491
0.0155103533
0.05665964153
-0.01119969647
-0.05698636051
0.05835006022
-0.01022834066
-0.05874268751
0.01062096795
-0.01112877189
0.01149826587
0.05937355959
-0.01979447929
-0.2396596871
-0.02204068993
0.2653889831
-0.2673266674
0.0240558081
0.02330127653
0.2660224743
-0.02374892937
-0.2717399403
-0.02854864957
0.2879773122
-0.2872580728
0.02798284572
0.02425262074
0.2870197716
-0.02442992872
-0.28879662
-0.01959730616
0.2782084834
-0.2798534343
0.02138229295
0.02005799805
0.2821635003
-0.01775075125
-0.2736279068
0.2439468602
-0.01254372129
-0.2472180298
0.01585640471
0.01353160512
0.2525808531
0.1120931899
-0.01263471569
-0.1119811864
0.114607507
-0.01251438001
-0.1147704022
0.01267727512
-0.01502440488
0.01546435897
0.115471331
-0.02585702645
-0.2413453673
-0.03097469033
0.2711207159
-0.2700555638
0.03001253312
0.02350585835
0.2661796317
-0.03130253171
-0.2775094229
-0.02915782808
0.2873904662
-0.2884081187
0.03033228752
0.02436610051
0.2873592756
-0.03198150791
-0.2832309903
-0.02843113848
0.2700384652
-0.27221681
0.03072576784
0.0262153925
0.2766649907
-0.01969744981
-0.2666848618
0.2317430107
-0.009953519887
-0.2344741999
0.01269349797
0.01393596946
0.2412424791
-0.0287824918
0.2309349971
-0.2282529839
0.2240843746
-0.1109456007
-0.03191892334
-0.2324473448
-0.04187513928
0.251650802
-0.248432934
0.03870658971
0.02091068737
0.2403712359
-0.04444590826
-0.2551999843
-0.04748775164
0.2744802239
-0.2741998349
0.04732027155
0.03364256036
0.2723180878
-0.04679642278
-0.2786640588
-0.04003297102
0.2792520795
-0.2820742508
0.04299060091
0.03378860852
0.2860596534
-0.03650573934
-0.2793362485
-0.02363370583
0.2555414298
-0.2600176779
0.02818954208
0.02538170279
0.2672615245
-0.01896672589
-0.2505913575
0.2271075875
-0.01130791342
-0.2277532749
0.01195360085
0.0140809605
0.2293168495
-0.065202838
0.237217218
-0.2364178723
0.2332290089
-0.06581756586
-0.2411367772
-0.06644593219
0.2563214715
-0.2564048256
0.06659026656
0.04628520235
0.2540537164
-0.06575047332
-0.2611433555
-0.05947102832
0.2683087662
-0.2710639287
0.06232569045
0.0520491086
0.2741125922
-0.05585772166
-0.2722336487
-0.04102071063
0.2614509957
-0.2668853786
0.04654744455
0.04517750892
0.2757948035
-0.03506452171
-0.261955607
-0.01599499091
0.2325802971
-0.2389673168
0.02240704354
0.02795361824
0.2505129628
-0.01223967033
-0.229438988
0.2248086226
-0.01059888035
-0.2253417526
0.01113201032
0.01177097227
0.2264905076
-0.07788700919
0.2360417451
-0.2368217133
0.2375006754
-0.07669469647
-0.24069138
-0.06960462789
0.2484717636
-0.2514079776
0.07258797414
0.07102916926
0.2554180107
-0.06596152877
-0.2538083686
-0.05110278588
0.2499760484
-0.2554935061
0.0566803479
0.06341260343
0.2647576331
-0.04497629632
-0.2538963316
-0.02417082897
0.2347804738
-0.2419721421
0.03139408847
0.04475200058
0.2554279341
-0.01683896704
-0.2357268226
-0.01149594238
0.2236151848
-0.2240555365
0.01193629403
0.01875325849
0.226631086
-0.01105454858
-0.2238677451
0.2229310658
-0.009744136703
-0.2233638326
0.01017690356
0.0108990931
0.224301614
-0.05099588099
0.2316103621
-0.2328107077
0.2350747879
-0.04904222782
-0.2344799804
-0.03876250436
0.2331644997
-0.2372815898
0.04289713909
0.06853201708
0.2450565595
-0.03398798401
-0.2370143328
-0.01670438644
0.2254703284
-0.2315866008
0.02282872089
0.05074088006
0.2440557692
-0.01280326923
-0.2281261681
-0.01153708215
0.2231748529
-0.2234742944
0.01183652373
0.02427521441
0.2274741258
-0.01122448574
-0.2231881135
-0.01022932274
0.2221169131
-0.2224561756
0.01056858528
0.01158113285
0.2232033369
-0.009884975424
-0.2222570086
0.2214116724
-0.008837201642
-0.2217619009
0.00918743018
0.009927268769
0.2225203831
-0.0116701927
0.228933703
-0.2289236189
0.2304245046
-0.01165531535
-0.2282145206
-0.01145903488
0.2261795547
-0.226268734
0.01154821419
0.03051183952
0.2290742013
-0.01134845419
-0.2256715118
-0.01090086932
0.2238947764
-0.2240622823
0.0110683752
0.01320592036
0.2244345298
-0.0107165524
-0.223591182
-0.01007497171
0.2221660857
-0.2223934217
0.01030230766
0.01143022508
0.2228961619
-0.009835945793
-0.2220566533
-0.009062027367
0.2209499703
-0.2212161104
0.009328167413
0.01024608804
0.2217981798
-0.008789369561
-0.2209939005
0.2201761756
-0.007943322847
-0.2204617715
0.008228918803
0.00894342676
0.2210785781
-0.01008294177
0.2289430747
-0.2289455677
0.2289408512
-0.01006372214
-0.2281489654
-0.00989848609
0.2258686159
-0.225940518
0.009970388219
0.01112577447
0.2260954298
-0.00981103952
-0.225267384
-0.009462231876
0.2233230158
-0.2234530887
0.009592304841
0.0106757062
0.2237380751
-0.009319183245
-0.2229207946
-0.008819144527
0.2213861508
-0.2215638948
0.00899688854
0.009958537696
0.2219528157
-0.008631397659
-0.2211828903
-0.00801639143
0.2200237426
-0.2202365426
0.0082291914
0.009042555695
0.2206986811
-0.007796861541
-0.2199876836
0.219162136
-0.007105232603
-0.2193973927
0.00734048929
0.008001548807
0.2199036696
-0.008781337059
0.2289090529
-0.2289206213
0.2289378836
-0.008758462279
-0.2280661362
-0.008612308723
0.2256094077
-0.2256704781
0.008673379099
0.009624706336
0.225799829
-0.008539731882
-0.2249417003
-0.008257074653
0.2228690391
-0.2229737419
0.008361777476
0.00926567977
0.2232001705
-0.008142327742
-0.2223941988
-0.007741522998
0.2207665836
-0.2209092007
0.007884140133
0.008703640864
0.2212182804
-0.007590500128
-0.2204906292
-0.007092016191
0.2192750343
-0.2194482478
0.007265229699
0.007977527491
0.2198218995
-0.006912427054
-0.2191728739
0.2183215927
-0.006340311033
-0.2185172624
0.006535980743
0.007132685793
0.2189369132
-0.007692488533
0.2288482681
-0.2288652882
0.2288958456
-0.007667411118
-0.2279709299
-0.007534958759
0.2253849629
-0.2254384012
0.007588396959
0.008382108224
0.2255504882
-0.007472809665
-0.2246681085
-0.007236768723
0.222496972
-0.2225837236
0.007323520266
0.008083724059
0.2227694146
-0.007142173078
-0.2219675088
-0.0068131536
0.2202626346
-0.2203796376
0.006930156574
0.007629857913
0.2206311525
-0.006689146908
-0.2199296193
-0.006277995795
0.2186596652
-0.2188029301
0.006421260711
0.007041681921
0.2191101294
-0.006128927518
-0.2185028751
0.2176182972
-0.005650146436
-0.217782711
0.005814560234
0.006346332772
0.2181339
-0.006771736353
0.2287716038
-0.228791844
0.2288302799
-0.006745559437
-0.2278686924
-0.006623981136
0.2251861498
-0.2252337901
0.006671621425
0.007343390365
0.2253331233
-0.006569611975
-0.2244318296
-0.006367962616
0.2221842141
-0.222257738
0.006441486541
0.007088167245
0.2224139103
-0.006288241722
-0.2216127642
-0.006012674186
0.2198442022
-0.2199420347
0.006110506655
0.006712187953
0.2201509582
-0.005909015975
-0.2194658376
-0.005564572178
0.2181460176
-0.2182662447
0.005684799249
0.0062263348
0.2185227473
-0.005439163711
-0.2179439006
0.2170233597
-0.005033902958
-0.2171629655
0.005173508691
0.005645867985
0.2174601155
-0.005990696382
0.228685617
-0.2287077326
0.2287507877
-0.005964124344
-0.2277632053
-0.005851571285
0.225007367
-0.2250504089
0.005894613162
0.00646696909
0.2251397421
-0.005803246927
-0.2242238346
-0.005627855469
0.2219160448
-0.2219795077
0.005691318323
0.006244110822
0.2221134381
-0.005559438648
-0.2213117141
-0.005324635777
0.219490651
-0.2195738222
0.005407807007
0.005926104143
0.2197503735
-0.005236605024
-0.2190758302
-0.00494392962
0.2177113349
-0.2178135854
0.005046180114
0.005517858692
0.2180306685
-0.00483709665
-0.2174714189
0.2165148765
-0.004490287221
-0.2166346415
0.004610052224
0.005026938322
0.2168886101
-0.005325442656
0.2285943468
-0.228617502
0.2286631734
-0.005298915691
-0.2276568734
-0.005194065363
0.2248448189
-0.2248840985
0.005233344983
0.005720361913
0.2249653256
-0.005150588705
-0.2240381145
-0.004995841814
0.2216824293
-0.2217380226
0.005051435113
0.00552281551
0.2218547141
-0.004936245077
-0.2210519157
-0.004733254218
0.2191874363
-0.2192591524
0.004804970367
0.005249355411
0.2194105888
-0.004657464645
-0.2187429516
-0.004405647545
0.2173389331
-0.2174269366
0.004493650975
0.004901363901
0.2176129341
-0.004313607008
-0.2170672713
0.2160760965
-0.004013819309
-0.2161798199
0.004117542724
0.004481447616
0.2163989849
-0.004755762254
0.2285003606
-0.2285240128
0.2285710312
-0.004729560696
-0.2275512006
-0.004631428533
0.224695778
-0.2247319009
0.004667551422
0.005082233375
0.2248063889
-0.004591943361
-0.2238704489
-0.004453850947
0.2214762792
-0.2215255613
0.004503133094
0.004905063429
0.2216285556
-0.004401302838
-0.2208246059
-0.004223679981
0.2189240704
-0.218986651
0.004286260615
0.004666670863
0.2191182132
-0.004157666024
-0.2184551597
-0.003938647924
0.2170163979
-0.2170929297
0.004015179724
0.004366322223
0.2172540504
-0.003858561914
-0.2167178578
0.2156941259
-0.003597087144
-0.2157847242
0.003687685493
0.004003445094
0.215975541
-0.004269370798
0.2284053081
-0.2284291072
0.22847665
-0.004243655787
-0.2274470993
-0.004151404946
0.2245581237
-0.2245915721
0.004184853335
0.004538497842
0.2246603731
-0.004115245966
-0.2237176991
-0.003990772421
0.221292321
-0.2213364725
0.004034923885
0.004377992004
0.2214283895
-0.003943932251
-0.220623364
-0.003786782219
0.2186926791
-0.2187478913
0.003841994418
0.0041676262
0.2188634938
-0.00372865726
-0.2182034826
-0.003536197918
0.2167341722
-0.2168013951
0.003603420811
0.003905381924
0.2169423925
-0.003465839288
-0.2164127514
0.2153587265
-0.003235742951
-0.215438539
0.003315555492
0.003588655411
0.2156061017
-0.003854604965
0.2283102727
-0.2283339834
0.2283815119
-0.003829467305
-0.2273450854
-0.003742394625
0.2244301585
-0.2244613193
0.003773555441
0.00407583091
0.2245252797
-0.00370903812
-0.2235774134
-0.003595836671
0.2211265211
-0.2211664506
0.003635766173
0.003929132735
0.2212493007
-0.003553673804
-0.2204433037
-0.003413225674
0.2184872184
-0.2185364261
0.003462433322
0.003741464565
0.2186390819
-0.00336152881
-0.217981029
-0.003190750643
0.2164847773
-0.2165443904
0.003250363806
0.003510019375
0.2166689942
-0.003128359192
-0.2161437551
0.215061672
-0.002924089032
-0.2151325844
0.002995001401
0.003230904974
0.2152809963
-0.003504788996
0.2282159546
-0.2282394373
0.2282866028
-0.003480255312
-0.2272454253
-0.003397689605
0.2243104616
-0.2243396771
0.003426905101
0.003682075481
0.2243995063
-0.003366686485
-0.223447629
-0.003262807924
0.2209756781
-0.2210121339
0.003299263672
0.003546961909
0.2210875145
-0.003224478122
-0.2202806179
-0.003097654064
0.2183029044
-0.2183472204
0.00314197006
0.003377901062
0.2184393168
-0.003051191733
-0.2177824023
-0.002898085479
0.2162622071
-0.2163156127
0.002951491
0.003171597757
0.2164268213
-0.002842200745
-0.2159043255
0.2147961505
-0.002659064248
-0.2148597758
0.00272268957
0.002923346918
0.2149924381
-0.003212778072
0.2281227653
-0.2281459429
0.2281925382
-0.003188839785
-0.2271481861
-0.003110162945
0.2241977979
-0.2242253671
0.003137732162