/*--------------------------------*- C++ -*----------------------------------*\
| =========                 |                                                 |
| \\      /  F ield         | OpenFOAM: The Open Source CFD Toolbox           |
|  \\    /   O peration     | Version:  v2012                                 |
|   \\  /    A nd           | Website:  www.openfoam.com                      |
|    \\/     M anipulation  |                                                 |
\*---------------------------------------------------------------------------*/
FoamFile
{
    version     2.0;
    format      ascii;
    class       pointVectorField;
    location    "2";
    object      pointDisplacement;
}
// * * * * * * * * * * * * * * * * * * * * * * * * * * * * * * * * * * * * * //

dimensions      [0 1 0 0 0 0 0];


internalField   nonuniform List<vector> 
6426
(
(0 0 0)
(0 0 0)
(0 0 0)
(0 0 0)
(0 0 0)
(0 0 0)
(0 0 0)
(0 0 0)
(0 0 0)
(0 0 0)
(-0.001292708378 -0.08974846331 0)
(-0.001311754806 -0.09009211284 0)
(-0.001328490909 -0.0904359008 0)
(-0.0006173040054 -0.09045064709 0)
(-0.0005804407937 -0.08976375812 0)
(0.01028414759 -0.09005794051 0)
(0.01021738182 -0.09143296963 0)
(0.01015005096 -0.09280759523 0)
(0.01306938288 -0.09289408867 0)
(0.01320037886 -0.09014298559 0)
(0.01174280448 -0.09010060888 0)
(0.02105932404 -0.08633606061 3.43489126e-13)
(0.0206702541 -0.08769604099 3.386041447e-13)
(0.02210427989 -0.08248508521 3.183286967e-13)
(0.02270859927 -0.08198022196 3.259753578e-13)
(0.02302055467 -0.06093024621 2.422784195e-13)
(0.02218481041 -0.06057973077 2.33812969e-13)
(0.02061104442 -0.051605765 1.992850329e-13)
(0.02148451262 -0.05215664375 2.075006833e-13)
(0.0131149637 -0.02545075451 1.015576512e-13)
(0.01232516767 -0.02465466802 9.549305791e-14)
(0.00902366769 -0.0169168867 6.560030297e-14)
(0.009719486085 -0.017677769 7.063793994e-14)
(0.001384015814 -0.00212182102 8.507083926e-15)
(0.001125102199 -0.001778140524 6.911138328e-15)
(8.921719495e-05 -0.0001341546782 5.273559367e-16)
(0.00017045332 -0.0002486070597 9.992007222e-16)
(0 0 0)
(0 0 0)
(0 0 0)
(0 0 0)
(0 0 0)
(0 0 0)
(0 0 0)
(0 0 0)
(0 0 0)
(0 0 0)
(0 0 0)
(0 0 0)
(0 0 0)
(0 0 0)
(-0.002074627733 -0.1006495994 0)
(-0.002096797294 -0.1013399789 0)
(-0.002118988075 -0.102031 0)
(-0.0006486141943 -0.1020782195 0)
(-0.0006042520079 -0.1006968189 0)
(0.009688324805 -0.1010273538 0)
(0.009599621037 -0.1037895135 0)
(0.01249905028 -0.1034852181 3.581995811e-13)
(0.01262042275 -0.1010415231 3.592959263e-13)
(0.01953648968 -0.09141891431 3.243100233e-13)
(0.01903689377 -0.0918769029 3.173850072e-13)
(0.02005752814 -0.08479906398 2.928490783e-13)
(0.02065435425 -0.08475864837 3.005928839e-13)
(0.01930472991 -0.05754502713 2.041700142e-13)
(0.01852200984 -0.05677128686 1.961486529e-13)
(0.01654307114 -0.04640220252 1.604133493e-13)
(0.01767418943 -0.04826037969 1.713212905e-13)
(0.009304079667 -0.02026394072 7.213674103e-14)
(0.008109741731 -0.01813712009 6.286637877e-14)
(0.005514515669 -0.01156151008 4.010680676e-14)
(0.006283274368 -0.01282453298 4.568567746e-14)
(0.0002316647039 -0.0003990251839 1.429412144e-15)
(0.0001046428492 -0.0001852194605 6.383782392e-16)
(0 0 0)
(0 0 0)
(0 0 0)
(0 0 0)
(0 0 0)
(0 0 0)
(0 0 0)
(0 0 0)
(0 0 0)
(0 0 0)
(0 0 0)
(0 0 0)
(0 0 0)
(0 0 0)
(0 0 0)
(0 0 0)
(-0.002429481905 -0.1116995213 0)
(-0.002518206278 -0.1144623225 0)
(0.0004225345373 -0.1145567613 0)
(0.0005112589101 -0.11179396 0)
(0.009267876892 -0.1110755509 3.563677131e-13)
(0.009069250583 -0.1120392078 3.508304758e-13)
(0.01163169588 -0.1086820789 3.400751902e-13)
(0.01194755598 -0.108615818 3.482075739e-13)
(0.01741342589 -0.09107868933 2.915445663e-13)
(0.01666193276 -0.08926793217 2.789435349e-13)
(0.01710319443 -0.08005167951 2.501193697e-13)
(0.01798526839 -0.08221542475 2.631367346e-13)
(0.01532906512 -0.05066211674 1.622868506e-13)
(0.0142449085 -0.04818491928 1.5068502e-13)
(0.01211170703 -0.03748552454 1.172950626e-13)
(0.01317767378 -0.03984678604 1.277172812e-13)
(0.005192555465 -0.01252173395 4.023170685e-14)
(0.004462064722 -0.01101828165 3.455569164e-14)
(0.002284542783 -0.005290735244 1.659783422e-14)
(0.003102703887 -0.007017876653 2.256528298e-14)
(0 0 0)
(0 0 0)
(0 0 0)
(0 0 0)
(0 0 0)
(0 0 0)
(0 0 0)
(0 0 0)
(0 0 0)
(0 0 0)
(0 0 0)
(0 0 0)
(0 0 0)
(0 0 0)
(0 0 0)
(0 0 0)
(0 0 0)
(0 0 0)
(-0.002583810259 -0.1178546332 3.452238495e-13)
(-0.002441549635 -0.1148797508 3.290839823e-13)
(0.0002792439041 -0.1130466812 3.236161339e-13)
(0.0002635915801 -0.1164496217 3.408662241e-13)
(0.008048496887 -0.1066053069 3.114175584e-13)
(0.007555225551 -0.1015778147 2.90253932e-13)
(0.009422962799 -0.09552115211 2.728095527e-13)
(0.01012383275 -0.101020768 2.949446243e-13)
(0.01355182937 -0.07725173732 2.253613962e-13)
(0.01225356866 -0.07107364297 2.028655022e-13)
(0.01210817758 -0.0613811043 1.752070711e-13)
(0.01355110078 -0.06748180998 1.968702978e-13)
(0.0101507772 -0.0365839241 1.068312105e-13)
(0.008608490428 -0.03163051758 9.035827642e-14)
(0.006734549826 -0.02267078849 6.480926906e-14)
(0.00817447916 -0.02697795979 7.882583475e-14)
(0.002056646584 -0.005431176985 1.589006704e-14)
(0.001324865982 -0.003574109985 1.022792961e-14)
(0.0002970022699 -0.000752575783 2.15105711e-15)
(0.0006865061714 -0.001702033655 4.996003611e-15)
(0 0 0)
(0 0 0)
(0 0 0)
(0 0 0)
(0 0 0)
(0 0 0)
(0 0 0)
(0 0 0)
(0 0 0)
(0 0 0)
(0 0 0)
(0 0 0)
(0 0 0)
(0 0 0)
(0 0 0)
(0 0 0)
(0 0 0)
(0 0 0)
(-0.001629515028 -0.09357692875 2.514238817e-13)
(-0.001302771933 -0.08313238045 2.188110804e-13)
(0.000503252787 -0.08062100429 2.121219866e-13)
(0.0004504488093 -0.09109164789 2.446098879e-13)
(0.005642886018 -0.07747890508 2.078059946e-13)
(0.004887942595 -0.06716963675 1.765532165e-13)
(0.00580102026 -0.06094249559 1.601496713e-13)
(0.006799617761 -0.0710342246 1.904587599e-13)
(0.007863549141 -0.04765013128 1.277450368e-13)
(0.006351403944 -0.03897546081 1.02418074e-13)
(0.00580557498 -0.03127436591 8.219813719e-14)
(0.007378960947 -0.03919614459 1.050964871e-13)
(0.00405737683 -0.01573779528 4.22301083e-14)
(0.002744199928 -0.01083031837 2.847722058e-14)
(0.001619356419 -0.00587329453 1.544597783e-14)
(0.00269133257 -0.009584967844 2.57294186e-14)
(2.265054056e-05 -6.502390728e-05 1.665334537e-16)
(0 0 0)
(0 0 0)
(0 0 0)
(0 0 0)
(0 0 0)
(0 0 0)
(0 0 0)
(0 0 0)
(0 0 0)
(0 0 0)
(0 0 0)
(0 0 0)
(0 0 0)
(0 0 0)
(0 0 0)
(0 0 0)
(0 0 0)
(0 0 0)
(0 0 0)
(0 0 0)
(0 0 0)
(-0.0004700348134 -0.04723279434 1.17197918e-13)
(-0.0002879310932 -0.03540790906 8.620881786e-14)
(0.0004046411369 -0.03355786054 8.168465904e-14)
(0.0004809436411 -0.045120859 1.119382365e-13)
(0.002513844651 -0.03439453426 8.529288387e-14)
(0.001779961413 -0.0243398829 5.923039836e-14)
(0.001912342621 -0.0204297347 4.971023593e-14)
(0.002795761778 -0.02972532563 7.370493105e-14)
(0.002319646521 -0.01476397679 3.660960424e-14)
(0.001319610771 -0.008508783028 2.070565941e-14)
(0.0009047537509 -0.005155153934 1.254552018e-14)
(0.001811353483 -0.01017068702 2.522981823e-14)
(0.0002084925648 -0.0008672029174 2.164934898e-15)
(5.854456473e-07 -2.48013345e-06 0)
(0 0 0)
(2.437923246e-06 -9.345729497e-06 2.775557562e-17)
(0 0 0)
(0 0 0)
(0 0 0)
(0 0 0)
(0 0 0)
(0 0 0)
(0 0 0)
(0 0 0)
(0 0 0)
(0 0 0)
(0 0 0)
(0 0 0)
(0 0 0)
(0 0 0)
(0 0 0)
(0 0 0)
(0 0 0)
(0 0 0)
(0 0 0)
(0 0 0)
(0 0 0)
(0 0 0)
(-3.02803749e-05 -0.00766167125 1.766642388e-14)
(-8.151463788e-06 -0.002558980011 5.800915304e-15)
(3.229953782e-05 -0.0020952553 4.74620343e-15)
(0.000102587298 -0.006825593737 1.573741137e-14)
(0.0002271330071 -0.003148639005 7.258083023e-15)
(2.817242674e-05 -0.0003953403032 8.881784197e-16)
(5.1931015e-06 -5.780040264e-05 1.387778781e-16)
(0.0001725675196 -0.001892638201 4.357625372e-15)
(0 0 0)
(0 0 0)
(0 0 0)
(0 0 0)
(0 0 0)
(0 0 0)
(0 0 0)
(0 0 0)
(0 0 0)
(0 0 0)
(0 0 0)
(0 0 0)
(0 0 0)
(0 0 0)
(0 0 0)
(0 0 0)
(0 0 0)
(0 0 0)
(0 0 0)
(0 0 0)
(0 0 0)
(0 0 0)
(0 0 0)
(0 0 0)
(0 0 0)
(0 0 0)
(0 0 0)
(0 0 0)
(0 0 0)
(0 0 0)
(0 0 0)
(0 0 0)
(0 0 0)
(0 0 0)
(0 0 0)
(0 0 0)
(0 0 0)
(0 0 0)
(0 0 0)
(0 0 0)
(0 0 0)
(0 0 0)
(0 0 0)
(0 0 0)
(0 0 0)
(0 0 0)
(0 0 0)
(0 0 0)
(0 0 0)
(0 0 0)
(0 0 0)
(0 0 0)
(0 0 0)
(0 0 0)
(0 0 0)
(0 0 0)
(0 0 0)
(0 0 0)
(0 0 0)
(0 0 0)
(0 0 0)
(0 0 0)
(0 0 0)
(0 0 0)
(0 0 0)
(0 0 0)
(0 0 0)
(0 0 0)
(0 0 0)
(0 0 0)
(0 0 0)
(0 0 0)
(0 0 0)
(0 0 0)
(0 0 0)
(0 0 0)
(0 0 0)
(0 0 0)
(0 0 0)
(0 0 0)
(0 0 0)
(0 0 0)
(0 0 0)
(0 0 0)
(0 0 0)
(0 0 0)
(0 0 0)
(0 0 0)
(0 0 0)
(0 0 0)
(0 0 0)
(0 0 0)
(0 0 0)
(0 0 0)
(0 0 0)
(0 0 0)
(0 0 0)
(0 0 0)
(0 0 0)
(0 0 0)
(0 0 0)
(0 0 0)
(0 0 0)
(0 0 0)
(0 0 0)
(0 0 0)
(0 0 0)
(0 0 0)
(0 0 0)
(0 0 0)
(0 0 0)
(0 0 0)
(0 0 0)
(0 0 0)
(0 0 0)
(0 0 0)
(0 0 0)
(0 0 0)
(0 0 0)
(0 0 0)
(0 0 0)
(0 0 0)
(0 0 0)
(0 0 0)
(0 0 0)
(0 0 0)
(0 0 0)
(0 0 0)
(0 0 0)
(0 0 0)
(0 0 0)
(0 0 0)
(0 0 0)
(0 0 0)
(0 0 0)
(0 0 0)
(0 0 0)
(0 0 0)
(0 0 0)
(0 0 0)
(0 0 0)
(0 0 0)
(0 0 0)
(0 0 0)
(0 0 0)
(0 0 0)
(0 0 0)
(0 0 0)
(0 0 0)
(0 0 0)
(0 0 0)
(0 0 0)
(0 0 0)
(0 0 0)
(0 0 0)
(0 0 0)
(0 0 0)
(0 0 0)
(0 0 0)
(0 0 0)
(0 0 0)
(0 0 0)
(0 0 0)
(0 0 0)
(0 0 0)
(0 0 0)
(0 0 0)
(0 0 0)
(0 0 0)
(0 0 0)
(0 0 0)
(0 0 0)
(0 0 0)
(0 0 0)
(0 0 0)
(0 0 0)
(0 0 0)
(0 0 0)
(0 0 0)
(0 0 0)
(0 0 0)
(0 0 0)
(0 0 0)
(0 0 0)
(0 0 0)
(0 0 0)
(0 0 0)
(0 0 0)
(0 0 0)
(0 0 0)
(0 0 0)
(0 0 0)
(0 0 0)
(0 0 0)
(0 0 0)
(0 0 0)
(0 0 0)
(0 0 0)
(0 0 0)
(0 0 0)
(0 0 0)
(0 0 0)
(0 0 0)
(0 0 0)
(0 0 0)
(0 0 0)
(0 0 0)
(0 0 0)
(0 0 0)
(0 0 0)
(0 0 0)
(0 0 0)
(0 0 0)
(0 0 0)
(0 0 0)
(0 0 0)
(0 0 0)
(0 0 0)
(0 0 0)
(0 0 0)
(0 0 0)
(0 0 0)
(0 0 0)
(0 0 0)
(0 0 0)
(0 0 0)
(0 0 0)
(0 0 0)
(0 0 0)
(0 0 0)
(0 0 0)
(0 0 0)
(0 0 0)
(0 0 0)
(0 0 0)
(0 0 0)
(0 0 0)
(0 0 0)
(0 0 0)
(0 0 0)
(0 0 0)
(0 0 0)
(0 0 0)
(0 0 0)
(0 0 0)
(0 0 0)
(0 0 0)
(0 0 0)
(0 0 0)
(0 0 0)
(0 0 0)
(0 0 0)
(0 0 0)
(0 0 0)
(0 0 0)
(0 0 0)
(0 0 0)
(0 0 0)
(0 0 0)
(0 0 0)
(0 0 0)
(0 0 0)
(0 0 0)
(0 0 0)
(0 0 0)
(0 0 0)
(0 0 0)
(0 0 0)
(0 0 0)
(0 0 0)
(0 0 0)
(0 0 0)
(0 0 0)
(0 0 0)
(0 0 0)
(0 0 0)
(0 0 0)
(0 0 0)
(0 0 0)
(0 0 0)
(0 0 0)
(0 0 0)
(0 0 0)
(0 0 0)
(0 0 0)
(0 0 0)
(0 0 0)
(0 0 0)
(0 0 0)
(0 0 0)
(0 0 0)
(0 0 0)
(0 0 0)
(0 0 0)
(0 0 0)
(0 0 0)
(0 0 0)
(0 0 0)
(0 0 0)
(0 0 0)
(0 0 0)
(0 0 0)
(0 0 0)
(0 0 0)
(0 0 0)
(0 0 0)
(0 0 0)
(0 0 0)
(0 0 0)
(0 0 0)
(0 0 0)
(0 0 0)
(0 0 0)
(0 0 0)
(0 0 0)
(0 0 0)
(0 0 0)
(0 0 0)
(0 0 0)
(0 0 0)
(0 0 0)
(0 0 0)
(0 0 0)
(0 0 0)
(0 0 0)
(0 0 0)
(0 0 0)
(0 0 0)
(0 0 0)
(0 0 0)
(0 0 0)
(0 0 0)
(0 0 0)
(0 0 0)
(0 0 0)
(0 0 0)
(0 0 0)
(0 0 0)
(0 0 0)
(0 0 0)
(0 0 0)
(0 0 0)
(0 0 0)
(0 0 0)
(0 0 0)
(0 0 0)
(0 0 0)
(0 0 0)
(0 0 0)
(0 0 0)
(0 0 0)
(0 0 0)
(0 0 0)
(0 0 0)
(0 0 0)
(0 0 0)
(0 0 0)
(0 0 0)
(0 0 0)
(0 0 0)
(0 0 0)
(0 0 0)
(0 0 0)
(0 0 0)
(0 0 0)
(0 0 0)
(0 0 0)
(0 0 0)
(0 0 0)
(0 0 0)
(0 0 0)
(0 0 0)
(0 0 0)
(0 0 0)
(0 0 0)
(0 0 0)
(0 0 0)
(0 0 0)
(0 0 0)
(0 0 0)
(0 0 0)
(0 0 0)
(0 0 0)
(0 0 0)
(0 0 0)
(0 0 0)
(0 0 0)
(0 0 0)
(0 0 0)
(0 0 0)
(0 0 0)
(0 0 0)
(0 0 0)
(0 0 0)
(0 0 0)
(0 0 0)
(0 0 0)
(0 0 0)
(0 0 0)
(0 0 0)
(0 0 0)
(0 0 0)
(0 0 0)
(0 0 0)
(0 0 0)
(0 0 0)
(0 0 0)
(0 0 0)
(0 0 0)
(0 0 0)
(0 0 0)
(0 0 0)
(0 0 0)
(0 0 0)
(0 0 0)
(0 0 0)
(0 0 0)
(0 0 0)
(0 0 0)
(0 0 0)
(0 0 0)
(0 0 0)
(0 0 0)
(0 0 0)
(0 0 0)
(0 0 0)
(0 0 0)
(0 0 0)
(0 0 0)
(0 0 0)
(0 0 0)
(0 0 0)
(0 0 0)
(0 0 0)
(0 0 0)
(0 0 0)
(0 0 0)
(0 0 0)
(0 0 0)
(0 0 0)
(0 0 0)
(0 0 0)
(0 0 0)
(0 0 0)
(0 0 0)
(0 0 0)
(0 0 0)
(0 0 0)
(0 0 0)
(0 0 0)
(0 0 0)
(0 0 0)
(0 0 0)
(0 0 0)
(0 0 0)
(0 0 0)
(0 0 0)
(0 0 0)
(0 0 0)
(0 0 0)
(0 0 0)
(0 0 0)
(0 0 0)
(0 0 0)
(0 0 0)
(0 0 0)
(0 0 0)
(0 0 0)
(0 0 0)
(0 0 0)
(0 0 0)
(0 0 0)
(0 0 0)
(0 0 0)
(0 0 0)
(0 0 0)
(0 0 0)
(0 0 0)
(0 0 0)
(0 0 0)
(0 0 0)
(0 0 0)
(0 0 0)
(0 0 0)
(0 0 0)
(0 0 0)
(0 0 0)
(0 0 0)
(0 0 0)
(0 0 0)
(0 0 0)
(0 0 0)
(0 0 0)
(0 0 0)
(0 0 0)
(0 0 0)
(0 0 0)
(0 0 0)
(0 0 0)
(0 0 0)
(0 0 0)
(0 0 0)
(0 0 0)
(0 0 0)
(0 0 0)
(0 0 0)
(0 0 0)
(0 0 0)
(0 0 0)
(0 0 0)
(0 0 0)
(0 0 0)
(0 0 0)
(0 0 0)
(0 0 0)
(0 0 0)
(0 0 0)
(0 0 0)
(0 0 0)
(0 0 0)
(0 0 0)
(0 0 0)
(0 0 0)
(0 0 0)
(0 0 0)
(0 0 0)
(0 0 0)
(0 0 0)
(0 0 0)
(0 0 0)
(0 0 0)
(0 0 0)
(0 0 0)
(0 0 0)
(0 0 0)
(0 0 0)
(0 0 0)
(0 0 0)
(0 0 0)
(0 0 0)
(0 0 0)
(0 0 0)
(0 0 0)
(0 0 0)
(0 0 0)
(0 0 0)
(0 0 0)
(0 0 0)
(0 0 0)
(0 0 0)
(0 0 0)
(0 0 0)
(0 0 0)
(0 0 0)
(0 0 0)
(0 0 0)
(0 0 0)
(0 0 0)
(0 0 0)
(0 0 0)
(0 0 0)
(0 0 0)
(0 0 0)
(0 0 0)
(0 0 0)
(0 0 0)
(0 0 0)
(0 0 0)
(0 0 0)
(0 0 0)
(0 0 0)
(0 0 0)
(0 0 0)
(0 0 0)
(0 0 0)
(0 0 0)
(0 0 0)
(0 0 0)
(0 0 0)
(0 0 0)
(0 0 0)
(0 0 0)
(0 0 0)
(0 0 0)
(0 0 0)
(0 0 0)
(0 0 0)
(0 0 0)
(0 0 0)
(0 0 0)
(0 0 0)
(0 0 0)
(0 0 0)
(0 0 0)
(0 0 0)
(0 0 0)
(0 0 0)
(0 0 0)
(0 0 0)
(0 0 0)
(0 0 0)
(0 0 0)
(0 0 0)
(0 0 0)
(0 0 0)
(0 0 0)
(0 0 0)
(0 0 0)
(0 0 0)
(0 0 0)
(0 0 0)
(0 0 0)
(0 0 0)
(0 0 0)
(0 0 0)
(0 0 0)
(0 0 0)
(0 0 0)
(0 0 0)
(0 0 0)
(0 0 0)
(0 0 0)
(0 0 0)
(0 0 0)
(0 0 0)
(0 0 0)
(0 0 0)
(0 0 0)
(0 0 0)
(0 0 0)
(0 0 0)
(0 0 0)
(0 0 0)
(0 0 0)
(0 0 0)
(0 0 0)
(0 0 0)
(0 0 0)
(0 0 0)
(0 0 0)
(0 0 0)
(0 0 0)
(0 0 0)
(0 0 0)
(0 0 0)
(0 0 0)
(0 0 0)
(0 0 0)
(0 0 0)
(0 0 0)
(0 0 0)
(0 0 0)
(0 0 0)
(0 0 0)
(0 0 0)
(0 0 0)
(0 0 0)
(0 0 0)
(0 0 0)
(0 0 0)
(0 0 0)
(0 0 0)
(0 0 0)
(0 0 0)
(0 0 0)
(0 0 0)
(0 0 0)
(0 0 0)
(0 0 0)
(0 0 0)
(0 0 0)
(0 0 0)
(0 0 0)
(0 0 0)
(0 0 0)
(0 0 0)
(-0.001275591994 -0.08940417374 0)
(-0.001633379788 -0.08939628053 0)
(-0.001649777696 -0.0897406574 0)
(-0.0005451014474 -0.08907592103 0)
(-0.001258208699 -0.08905989274 0)
(0.01034768645 -0.08868139475 0)
(0.00889355207 -0.08863989925 0)
(0.00882943988 -0.09001629814 0)
(-0.002052439755 -0.09995857812 0)
(-0.002787643492 -0.09993496784 0)
(-0.002809822056 -0.1006259894 0)
(-0.001667290697 -0.09008467732 0)
(-0.0005598898215 -0.09931541824 0)
(-0.001242782867 -0.09931532534 0)
(-0.001932113852 -0.09932594441 0)
(0.00985416727 -0.09829516093 0)
(0.008399496648 -0.09825236365 0)
(0.006936130946 -0.09820832373 0)
(0.006858916554 -0.09957871404 0)
(0.006791153618 -0.1009567941 0)
(0.008762487807 -0.09139112859 0)
(0.004721302968 -0.0843817785 0)
(-0.002385119719 -0.1103181206 0)
(-0.003855493334 -0.1102709012 0)
(-0.003899855521 -0.1116523018 0)
(-0.00283198643 -0.1013163691 0)
(-0.001417476395 -0.08456769305 0)
(-0.001058621703 -0.08457658394 0)
(0.004461012621 -0.08989039786 0)
(0.004529052443 -0.08851489584 0)
(0.003080787084 -0.08847564411 0)
(0.003046033904 -0.08916362848 0)
(0.003010653062 -0.08985075774 0)
(0.003966674848 -0.08505165464 0)
(0.004690089034 -0.08507135377 0)
(-0.0006972529945 -0.08458639052 0)
(-0.001627397891 -0.09522758928 0)
(-0.002330089822 -0.09521677678 0)
(-0.002378046136 -0.09589823551 0)
(-0.00167632686 -0.09590869563 0)
(-0.001577824296 -0.0945459898 0)
(-0.002282422261 -0.09453440959 0)
(-0.0009173368789 -0.09524101486 0)
(-0.0008678916434 -0.0945597324 0)
(0.004166946167 -0.0953809764 0)
(0.00424336678 -0.09401030369 0)
(0.002781866592 -0.09396677327 0)
(0.002697446089 -0.09533455573 0)
(0.002974765342 -0.09053787072 0)
(0.002938575358 -0.09122439595 0)
(0.004390896673 -0.09126454866 0)
(-0.001166244944 -0.08699303986 0)
(-0.001532699465 -0.08698172116 0)
(-0.001543251724 -0.0873284695 0)
(-0.001180029928 -0.08733859251 0)
(-0.003955759602 -0.09243610751 0)
(-0.003932235452 -0.09209478552 0)
(-0.004304697852 -0.09208134705 0)
(-0.001446573359 -0.09249420757 0)
(-0.001405224417 -0.09180919681 0)
(-0.002112865189 -0.091796427 0)
(-0.002133160772 -0.09213939415 0)
(-0.002153116596 -0.09248160147 0)
(-0.001152791811 -0.08664754077 0)
(-0.001521901503 -0.08663530185 0)
(-0.0008040623945 -0.08700274412 0)
(-0.0007892019981 -0.08665780405 0)
(0.001706853564 -0.08706276234 0)
(0.00173997769 -0.08637350531 0)
(0.001021850242 -0.08635558166 0)
(0.0009885253895 -0.08704508914 0)
(0.001084295298 -0.08497649588 0)
(0.001803357915 -0.08499489917 0)
(-0.004594944217 -0.09792697128 0)
(-0.004578319792 -0.09758350087 0)
(-0.002194960729 -0.0931665321 0)
(-0.001488380143 -0.09317907518 0)
(-0.003968811057 -0.09278251869 0)
(-0.004075560103 -0.09519399291 0)
(-0.004057106132 -0.09485135199 0)
(0.0005999626781 -0.1090318003 0)
(-0.0008704045214 -0.1089845811 0)
(-0.002340778137 -0.1089373616 0)
(0.009410001463 -0.1091377227 3.58990615e-13)
(0.006481450725 -0.1092206779 0)
(0.006391686639 -0.1119558239 3.594902154e-13)
(0.006703241052 -0.1023143164 0)
(0.00665889947 -0.1036950754 0)
(0.001569024367 -0.08981364598 0)
(0.001604608701 -0.08912678016 0)
(0.000886672147 -0.08910931223 0)
(0.0008512376799 -0.08979631131 0)
(0.0009553790159 -0.08773363894 0)
(0.001673555263 -0.08775124303 0)
(-0.0008192992843 -0.08734760787 0)
(0.003806862423 -0.100838477 0)
(0.003908510645 -0.09948203811 0)
(0.002443821022 -0.09944142397 0)
(0.002336488807 -0.1007912576 0)
(0.002608390766 -0.09670026251 0)
(0.004090296163 -0.09675119215 0)
(-0.0009679333727 -0.09592174652 0)
(-0.002252053771 -0.1061745603 0)
(-0.002207691602 -0.1047931597 0)
(-0.003678065194 -0.1047459403 0)
(-0.00372242738 -0.1061273409 0)
(-0.002430165919 -0.08562942124 0)
(-0.002175785843 -0.08558916259 0)
(-0.002271113174 -0.08514665441 0)
(-0.001106081628 -0.08561182552 0)
(-0.001092149504 -0.08526557108 0)
(-0.001460698398 -0.08525424936 0)
(-0.001471912435 -0.0856011049 0)
(-0.00409487178 -0.09553654206 0)
(-0.003909489323 -0.09793389038 0)
(-0.003855723529 -0.09725126943 0)
(-0.004543888941 -0.09724715354 0)
(-0.001837412892 -0.09794641726 0)
(-0.001783585868 -0.09726700967 0)
(-0.002479926295 -0.09725967677 0)
(-0.002526774747 -0.09794187758 0)
(-0.004642034686 -0.09826072832 0)
(-0.002620323511 -0.08695276648 0)
(-0.002633887372 -0.08729813355 0)
(-0.002274627648 -0.08730665208 0)
(-0.002271330841 -0.08695787236 0)
(-0.002670710947 -0.08833358825 0)
(-0.002308307582 -0.08834355652 0)
(-0.002292272902 -0.08799981027 0)
(-0.002649426742 -0.08799161628 0)
(-0.001225069357 -0.0883722419 0)
(-0.001209729782 -0.08802828064 0)
(-0.001568509035 -0.08801952063 0)
(-0.001584031335 -0.0883634118 0)
(-0.00298673236 -0.08799022556 0)
(-0.003025423545 -0.08832643608 0)
(-0.002883657279 -0.08698875546 0)
(-0.002980835338 -0.08727279734 0)
(-0.002736339595 -0.08971160837 0)
(-0.002728103264 -0.08936433606 0)
(-0.003096281674 -0.08935289777 0)
(-0.00310195519 -0.08970076621 0)
(-0.003075667351 -0.08865938535 0)
(-0.002700850217 -0.08867289943 0)
(-0.004278064682 -0.09098461288 0)
(-0.00385353249 -0.09107384243 0)
(-0.003835989902 -0.09072918118 0)
(-0.004177796405 -0.09070574424 0)
(-0.00278554111 -0.09109510157 0)
(-0.002770334475 -0.09074997994 0)
(-0.003128055134 -0.0907418962 0)
(-0.00314222188 -0.0910874366 0)
(-0.003111355846 -0.09004729463 0)
(-0.002746542507 -0.09005791834 0)
(-0.002861447908 -0.09246797453 0)
(-0.002841592448 -0.09212589244 0)
(-0.003200077335 -0.09211720611 0)
(-0.003219823485 -0.09245948439 0)
(-0.003158741768 -0.09143245183 0)
(-0.002802707205 -0.09143983914 0)
(-0.004201639966 -0.09142041238 0)
(-0.003867893782 -0.09141944081 0)
(-0.002722512108 -0.08650843226 0)
(-0.001487585155 -0.08594634002 0)
(-0.001121382518 -0.08595752217 0)
(-0.002527292336 -0.08592425505 0)
(-0.002210707145 -0.08592774215 0)
(-0.002275706195 -0.08660627714 0)
(-0.004504948665 -0.09656238656 0)
(0.01180538915 -0.08872377557 0)
(0.02138199516 -0.08460953554 3.471806176e-13)
(0.01903406853 -0.08689164129 3.568395579e-13)
(0.01880732524 -0.08907883602 3.54674623e-13)
(-0.001600419817 -0.08870727515 0)
(-0.001242423806 -0.08871562464 0)
(-0.002328918397 -0.08868599972 0)
(-0.002371059702 -0.08972250398 0)
(-0.002358837523 -0.08937651577 0)
(0.006171120152 -0.08442210771 0)
(0.01053461197 -0.08454669339 0)
(0.009080930846 -0.08450508399 0)
(-0.001768628094 -0.08456129751 0)
(-0.001812990393 -0.08489726167 0)
(-0.001443409582 -0.08490913036 0)
(-0.001076246444 -0.08492034336 0)
(-0.0007422906186 -0.08562222372 0)
(-0.000727378006 -0.08527625768 0)
(0.0003369965527 -0.08564834155 0)
(0.000352718776 -0.08530336493 0)
(-5.992736828e-06 -0.08529473555 0)
(-2.196289537e-05 -0.08563983267 0)
(2.374159259e-05 -0.0846054339 0)
(0.0003833007435 -0.08461466855 0)
(-0.003462033581 -0.08969190025 0)
(-0.00344516375 -0.08934798813 0)
(-0.003708956718 -0.08938447619 0)
(-0.003808273473 -0.08966671524 0)
(-0.003541004412 -0.08890578461 0)
(-0.004076370792 -0.09042363714 0)
(-0.003815355138 -0.09038603225 0)
(-0.003906480804 -0.08994500779 0)
(-0.003475673479 -0.09038743504 0)
(-0.003474418693 -0.09003756209 0)
(-0.004524636601 -0.09690505208 0)
(-0.004248552895 -0.09175244097 0)
(-0.004008292047 -0.09381872301 0)
(-0.00399530311 -0.09347365861 0)
(-0.002940319445 -0.09384036691 0)
(-0.002920729813 -0.09349776246 0)
(-0.003274237058 -0.09349167664 0)
(-0.003293193551 -0.09383436565 0)
(-0.003238237082 -0.09280366808 0)
(-0.002882179149 -0.09281092768 0)
(-0.00208317139 -0.08455774753 0)
(-0.002179752654 -0.08486242571 0)
(-0.00183389987 -0.08559198495 0)
(-0.001830390986 -0.08524244131 0)
(-0.002644584798 -0.08764404227 0)
(-0.003076199838 -0.08755156655 0)
(-0.003240203202 -0.08803109146 0)
(-0.003340104455 -0.08832333128 0)
(-0.002719719831 -0.0890166831 0)
(-0.003096785622 -0.0890023903 0)
(-0.003443089329 -0.08862459242 0)
(-0.003499276848 -0.09107982383 0)
(-0.003484412566 -0.09073456275 0)
(-0.003896358433 -0.09175880577 0)
(-0.003537687947 -0.09176711269 0)
(-0.003515142053 -0.09142505277 0)
(-0.002627904585 -0.08622623467 0)
(-0.00225795988 -0.08626207202 0)
(-0.001880984051 -0.08627642617 0)
(-0.001853284431 -0.08593562363 0)
(-0.001902988178 -0.08696931592 0)
(-0.001897351975 -0.08662118937 0)
(0.01199069415 -0.08458953599 0)
(0.01636426817 -0.08471817067 0)
(0.01344696881 -0.08463238478 0)
(0.02312449501 -0.08065835697 3.307631946e-13)
(0.02363640499 -0.06056142072 2.48329135e-13)
(0.02431140574 -0.06839990203 2.803868249e-13)
(0.02374546096 -0.06904918941 2.744748873e-13)
(0.02239128422 -0.05265411403 2.16021645e-13)
(0.01418868091 -0.02669228109 1.098426905e-13)
(0.01742516108 -0.03513156891 1.443983821e-13)
(0.01636028768 -0.03402963132 1.35641498e-13)
(0.01074667909 -0.01894964825 7.807643421e-14)
(0.00189084346 -0.002809778353 1.16157084e-14)
(0.004308272699 -0.006753451596 2.789435349e-14)
(0.003563680649 -0.005762452651 2.307876112e-14)
(-0.0007350289392 -0.09250890112 0)
(-0.0006941196044 -0.09182361932 0)
(0.001415736877 -0.09255908765 0)
(0.001456021548 -0.09187365734 0)
(0.000737013495 -0.091856155 0)
(0.0006975012934 -0.09254193125 0)
(0.0008145628321 -0.09048333479 0)
(0.001532418036 -0.09050073588 0)
(0.01278477985 -0.09838638413 0)
(0.0199138501 -0.0902394589 3.290145933e-13)
(0.01803093796 -0.09486058301 3.460981501e-13)
(0.0177448257 -0.09643882467 3.422956363e-13)
(0.01857162961 -0.09118510145 3.523292769e-13)
(0.02119174748 -0.08432948585 3.073652444e-13)
(0.02042038902 -0.05918553321 2.157857226e-13)
(0.02149442153 -0.0685388667 2.497863028e-13)
(0.02054961845 -0.06742693941 2.391281617e-13)
(0.02297797111 -0.06896769959 2.661065812e-13)
(0.01859969801 -0.04938158563 1.801475635e-13)
(0.01007521868 -0.02134300797 7.807643421e-14)
(0.01322521315 -0.03003574755 1.097733016e-13)
(0.01236625166 -0.02887642628 1.02681752e-13)
(0.01550583144 -0.03324729703 1.286193374e-13)
(0.006934317293 -0.01376612444 5.041800311e-14)
(0.0005369059758 -0.0008993503124 3.302913498e-15)
(0.002075477801 -0.003665220286 1.344757639e-14)
(0.001471136102 -0.002670874969 9.534040224e-15)
(0.003137253212 -0.005229028088 2.031708135e-14)
(-0.0007816801487 -0.1062217798 0)
(-0.0007373179623 -0.1048403792 0)
(0.003629434282 -0.106363438 0)
(0.003673796469 -0.1049820373 0)
(0.002203422853 -0.1049348179 0)
(0.002159060667 -0.1063162185 0)
(0.002292126621 -0.1021726582 0)
(0.003762500237 -0.1022198777 0)
(0.01218648876 -0.1075619335 3.535227666e-13)
(0.01802351858 -0.09188594135 3.014949401e-13)
(0.01663565798 -0.09887181465 3.245459457e-13)
(0.01615089691 -0.09856074522 3.156086503e-13)
(0.01735028405 -0.0973975323 3.366334989e-13)
(0.01870836061 -0.0834040909 2.736144644e-13)
(0.01623592582 -0.05236958385 1.719457909e-13)
(0.0177915622 -0.06324892341 2.075561945e-13)
(0.01691353751 -0.0616164354 1.972727537e-13)
(0.01980398554 -0.06684490607 2.308431224e-13)
(0.0143679256 -0.04242513569 1.39374623e-13)
(0.006444573398 -0.01517634028 4.99739139e-14)
(0.009209080952 -0.02325002829 7.64943664e-14)
(0.007881776309 -0.02037443375 6.540601394e-14)
(0.01112608969 -0.02667931392 9.238443344e-14)
(0.003860529103 -0.008518716394 2.807476474e-14)
(0 0 0)
(0.0004093854448 -0.0008045245531 2.650657471e-15)
(0.000191104196 -0.0003851375216 1.235123115e-15)
(0.001109445002 -0.002069549333 7.188694084e-15)
(-0.002639173879 -0.1186099734 3.554517791e-13)
(-0.005576211146 -0.1189766322 3.568256801e-13)
(-0.005459460051 -0.1185772974 3.475969512e-13)
(-0.00537022272 -0.1116050826 0)
(-0.005458947093 -0.1143678838 0)
(0.000283162614 -0.1177500079 3.525929548e-13)
(0.008464367156 -0.1099788046 3.286121375e-13)
(0.005907096018 -0.1136522907 3.398115123e-13)
(0.005653906062 -0.1109738375 3.243794122e-13)
(0.006274115591 -0.1139349266 3.570338469e-13)
(0.01072536165 -0.1050188804 3.136102489e-13)
(0.01472700019 -0.08237227542 2.457201109e-13)
(0.01394619667 -0.09112824711 2.719074965e-13)
(0.012951105 -0.08623560044 2.51604293e-13)
(0.01554542788 -0.09723755945 3.039513086e-13)
(0.01487624968 -0.07267207905 2.167849233e-13)
(0.01162788368 -0.04107103229 1.226241331e-13)
(0.01327130741 -0.05165590089 1.54154467e-13)
(0.01178589949 -0.04679164817 1.365713098e-13)
(0.01585729686 -0.05912721156 1.848105002e-13)
(0.00957730925 -0.03096478241 9.250933353e-14)
(0.002853801941 -0.007373854631 2.206568261e-14)
(0.004971968031 -0.0137605007 4.116151864e-14)
(0.003914245241 -0.01106714949 3.236300117e-14)
(0.006994919905 -0.0185122184 5.800915304e-14)
(0.001177117346 -0.002854308735 8.54871729e-15)
(0 0 0)
(0 0 0)
(0 0 0)
(1.8318234e-05 -3.78244486e-05 1.110223025e-16)
(-0.001944439375 -0.1025518893 2.8135827e-13)
(-0.004327141448 -0.103910449 2.852440506e-13)
(-0.00376649113 -0.09502106604 2.554206846e-13)
(-0.005200980731 -0.1158820013 3.321926068e-13)
(0.0003855518892 -0.1001845188 2.746969319e-13)
(0.006346471993 -0.08683723555 2.377681385e-13)
(0.004604253599 -0.09233104231 2.52908805e-13)
(0.004156384059 -0.08301452633 2.227384943e-13)
(0.005352932721 -0.1064868544 3.044509089e-13)
(0.007748817236 -0.08034625243 2.199213034e-13)
(0.009378204338 -0.056071314 1.534189442e-13)
(0.009300679159 -0.06479291984 1.772887392e-13)
(0.007933754819 -0.05593415774 1.499494973e-13)
(0.01183411463 -0.0801385892 2.287475764e-13)
(0.008984656322 -0.04703166146 1.287026041e-13)
(0.005510236254 -0.021000781 5.752343046e-14)
(0.006962032224 -0.02917307849 7.988054662e-14)
(0.005381703448 -0.02293049717 6.150635556e-14)
(0.01021206222 -0.04131319588 1.179889519e-13)
(0.003939231696 -0.01377349039 3.773370505e-14)
(0.0002574472147 -0.0007240465907 1.984523657e-15)
(0.001123185132 -0.003376464809 9.256484468e-15)
(0.0004950868242 -0.001518182548 4.080069615e-15)
(0.00288598284 -0.008331627909 2.384203945e-14)
(0 0 0)
(0 0 0)
(0 0 0)
(0 0 0)
(0 0 0)
(-0.000705767945 -0.05947884259 1.504629754e-13)
(-0.001994812554 -0.06085639159 1.539879335e-13)
(-0.001476603702 -0.04849620887 1.203620537e-13)
(-0.003168349599 -0.08460538231 2.227940055e-13)
(0.0005243331415 -0.05716263727 1.445510378e-13)
(0.003297771609 -0.04519473054 1.142141937e-13)
(0.002576542961 -0.04993325924 1.262184801e-13)
(0.002014817163 -0.03860485361 9.57289803e-14)
(0.003663237089 -0.07258613139 1.908473379e-13)
(0.003764750643 -0.03987199707 1.007527395e-13)
(0.003526957606 -0.0221731868 5.603850717e-14)
(0.003871178781 -0.02815505823 7.115141809e-14)
(0.002681834714 -0.0197058656 4.886369087e-14)
(0.006545045137 -0.04664848461 1.225686219e-13)
(0.002966307653 -0.01642374535 4.152234112e-14)
(0.0007657290097 -0.003128816011 7.91033905e-15)
(0.001485215317 -0.006645626962 1.680600104e-14)
(0.0006568083418 -0.002988393403 7.410738689e-15)
(0.003903910155 -0.01690806942 4.445055435e-14)
(0.0002247674515 -0.0008456361756 2.137179322e-15)
(0 0 0)
(0 0 0)
(0 0 0)
(0.0001062272948 -0.0003322594452 8.881784197e-16)
(0 0 0)
(0 0 0)
(0 0 0)
(0 0 0)
(0 0 0)
(-7.664727622e-05 -0.01512580822 3.549938121e-14)
(-0.0003866032319 -0.01585846067 3.72202269e-14)
(-0.0001872313681 -0.008179322516 1.885991363e-14)
(-0.001030701604 -0.03652107675 8.892886427e-14)
(0.0001992437314 -0.01392609983 3.268219029e-14)
(0.0006031185122 -0.008294793563 1.945665851e-14)
(0.0005538358334 -0.01040857461 2.442490654e-14)
(0.0002373862352 -0.004471608298 1.031119634e-14)
(0.001471513112 -0.02792165641 6.795952689e-14)
(0.0005642635835 -0.00611853912 1.434963259e-14)
(0.0001260996902 -0.0008373625165 1.970645869e-15)
(0.0002905611596 -0.002214861801 5.19029264e-15)
(2.196785115e-05 -0.000170092574 3.885780586e-16)
(0.001657893522 -0.01231611496 2.997602166e-14)
(1.458959349e-05 -8.586826357e-05 1.942890293e-16)
(0 0 0)
(0 0 0)
(0 0 0)
(0.000149493436 -0.0006920244033 1.679212325e-15)
(0 0 0)
(0 0 0)
(0 0 0)
(0 0 0)
(0 0 0)
(0 0 0)
(0 0 0)
(0 0 0)
(0 0 0)
(0 0 0)
(0 0 0)
(0 0 0)
(0 0 0)
(-6.214713324e-05 -0.002855547573 6.467049118e-15)
(0 0 0)
(0 0 0)
(0 0 0)
(0 0 0)
(4.858999584e-05 -0.0009228643259 2.095545959e-15)
(0 0 0)
(0 0 0)
(0 0 0)
(0 0 0)
(0 0 0)
(0 0 0)
(0 0 0)
(0 0 0)
(0 0 0)
(0 0 0)
(0 0 0)
(0 0 0)
(0 0 0)
(0 0 0)
(0 0 0)
(0 0 0)
(0 0 0)
(0 0 0)
(0 0 0)
(0 0 0)
(0 0 0)
(0 0 0)
(0 0 0)
(0 0 0)
(0 0 0)
(0 0 0)
(0 0 0)
(0 0 0)
(0 0 0)
(0 0 0)
(0 0 0)
(0 0 0)
(0 0 0)
(0 0 0)
(0 0 0)
(0 0 0)
(0 0 0)
(0 0 0)
(0 0 0)
(0 0 0)
(0 0 0)
(0 0 0)
(0 0 0)
(0 0 0)
(0 0 0)
(0 0 0)
(0 0 0)
(0 0 0)
(0 0 0)
(0 0 0)
(0 0 0)
(0 0 0)
(0 0 0)
(0 0 0)
(0 0 0)
(0 0 0)
(0 0 0)
(0 0 0)
(0 0 0)
(0 0 0)
(0 0 0)
(0 0 0)
(0 0 0)
(0 0 0)
(0 0 0)
(0 0 0)
(0 0 0)
(0 0 0)
(0 0 0)
(0 0 0)
(0 0 0)
(0 0 0)
(0 0 0)
(0 0 0)
(0 0 0)
(0 0 0)
(0 0 0)
(0 0 0)
(0 0 0)
(0 0 0)
(0 0 0)
(0 0 0)
(0 0 0)
(0 0 0)
(0 0 0)
(0 0 0)
(0 0 0)
(0 0 0)
(0 0 0)
(0 0 0)
(0 0 0)
(0 0 0)
(0 0 0)
(0 0 0)
(0 0 0)
(0 0 0)
(0 0 0)
(0 0 0)
(0 0 0)
(0 0 0)
(0 0 0)
(0 0 0)
(0 0 0)
(0 0 0)
(0 0 0)
(0 0 0)
(0 0 0)
(0 0 0)
(0 0 0)
(0 0 0)
(0 0 0)
(0 0 0)
(0 0 0)
(0 0 0)
(0 0 0)
(0 0 0)
(0 0 0)
(0 0 0)
(0 0 0)
(0 0 0)
(0 0 0)
(0 0 0)
(0 0 0)
(0 0 0)
(0 0 0)
(0 0 0)
(0 0 0)
(0 0 0)
(0 0 0)
(0 0 0)