/*--------------------------------*- C++ -*----------------------------------*\
| =========                 |                                                 |
| \\      /  F ield         | OpenFOAM: The Open Source CFD Toolbox           |
|  \\    /   O peration     | Version:  v2012                                 |
|   \\  /    A nd           | Website:  www.openfoam.com                      |
|    \\/     M anipulation  |                                                 |
\*---------------------------------------------------------------------------*/
FoamFile
{
    version     2.0;
    format      ascii;
    class       volVectorField;
    location    "2";
    object      U;
}
// * * * * * * * * * * * * * * * * * * * * * * * * * * * * * * * * * * * * * //

dimensions      [0 1 -1 0 0 0 0];


internalField   nonuniform List<vector> 
3019
(
(103.0753082 -31.44100367 3.305250393e-19)
(107.5101967 -20.85216775 2.617649032e-19)
(107.4462887 -14.69027172 0)
(105.9488081 -10.06875915 3.632761361e-20)
(104.1483526 -6.904422931 1.014360091e-18)
(102.6317457 -4.920558051 0)
(101.2590114 -3.582304658 -6.457230455e-20)
(100.5371976 -2.672718774 0)
(99.70860271 -1.855086717 0)
(99.35426938 -1.260879598 1.157770306e-20)
(99.13370862 -0.7378780783 2.13335681e-21)
(99.02013346 -0.2432769278 -6.923596504e-21)
(96.53383733 -20.60802448 2.203357189e-19)
(102.4077608 -17.09498023 0)
(103.656544 -13.23236032 2.489556672e-19)
(103.2416555 -9.701004479 0)
(102.2526398 -7.033353828 -2.051932361e-19)
(101.263466 -5.228890079 -4.270211306e-20)
(100.2729525 -3.862464462 -9.026003088e-20)
(99.75005177 -2.917653813 -3.39447359e-20)
(99.08909929 -2.013103983 -1.885661253e-20)
(98.80496008 -1.372882343 1.859322288e-20)
(98.62546383 -0.8052989366 0)
(98.53211841 -0.2654076695 1.857403619e-20)
(98.1323773 -13.60822358 -3.088891665e-19)
(100.4097614 -13.20364616 -1.72200166e-19)
(101.2801053 -11.20185412 -2.183427964e-19)
(101.1748722 -8.801655844 -5.541106971e-19)
(100.6162776 -6.748293922 3.399514364e-19)
(99.98712445 -5.245379913 -2.433259777e-20)
(99.29394487 -3.945786185 0)
(98.95253367 -3.027982267 0)
(98.44159424 -2.087307013 -3.515368059e-20)
(98.22343347 -1.433389935 1.734674727e-20)
(98.08443554 -0.8428854176 7.259936475e-22)
(98.01110318 -0.2778020524 -1.279708203e-20)
(99.17781834 -10.46826515 -2.146436303e-19)
(99.77339113 -10.40785522 3.466511277e-21)
(99.89453078 -9.307473286 5.311186525e-19)
(99.67339509 -7.737128029 -4.232671005e-19)
(99.28189803 -6.245263899 0)
(98.86348608 -5.042192805 0)
(98.38610176 -3.874527254 -2.993096202e-20)
(98.18313853 -3.026388088 4.532439184e-20)
(97.79478373 -2.091389891 1.094983355e-20)
(97.63421803 -1.448182849 1.866780805e-20)
(97.53084432 -0.8535074508 -2.120782327e-20)
(97.47527757 -0.2813246024 0)
(99.71561061 -8.512464092 7.203605232e-20)
(99.39018244 -8.456738452 0)
(98.97594547 -7.751148661 0)
(98.58175517 -6.718782442 -2.802475206e-19)
(98.22354368 -5.67259476 -7.47308026e-21)
(97.91323896 -4.713710841 0)
(97.58070055 -3.704704556 0)
(97.46383082 -2.936757239 0)
(97.17113315 -2.040419431 3.795815384e-20)
(97.05676778 -1.425155124 -3.5512583e-20)
(96.98181619 -0.841296656 -2.395804693e-21)
(96.94058089 -0.2776743667 2.403906237e-21)
(99.75570944 -7.174268641 1.625907644e-20)
(98.97187319 -7.034062091 -4.745810874e-21)
(98.28271321 -6.531815086 -2.210244639e-19)
(97.77815247 -5.847964573 2.070012278e-20)
(97.40035838 -5.092832796 0)
(97.12850082 -4.328499165 0)
(96.87360421 -3.466274213 0)
(96.80657497 -2.783836523 0)
(96.583764 -1.947117171 0)
(96.50364001 -1.370990886 0)
(96.45047731 -0.8118708759 0)
(96.42007255 -0.2690004887 0)
(99.61900397 -6.090035982 5.32338129e-20)
(98.61371188 -5.945922363 -3.042710808e-20)
(97.79455743 -5.601571288 0)
(97.18956179 -5.113199037 0)
(96.76025884 -4.536135601 0)
(96.48538188 -3.923681798 0)
(96.26264432 -3.192470327 0)
(96.21861707 -2.594599692 0)
(96.0408934 -1.82734319 0)
(95.98352933 -1.296116697 0)
(95.94505709 -0.7694556381 0)
(95.92316519 -0.255519456 0)
(99.5749338 -5.222187955 0)
(98.40170692 -5.106732329 0)
(97.44840817 -4.847512736 0)
(96.74326992 -4.475468354 0)
(96.25543303 -4.024053605 0)
(95.95591276 -3.527133611 0)
(95.73871438 -2.907658741 0)
(95.69828842 -2.38825384 0)
(95.54604679 -1.693460062 0)
(95.50182657 -1.208926036 0)
(95.47198576 -0.7192487349 0)
(95.45551791 -0.2392824882 0)
(99.54330595 -4.51939349 -3.110658429e-35)
(98.24028248 -4.420797309 0)
(97.18247222 -4.216618335 0)
(96.39509838 -3.92446561 0)
(95.85073353 -3.563861618 0)
(95.51706189 -3.155483604 0)
(95.28970105 -2.62875923 0)
(95.24023853 -2.178676437 0)
(95.09908045 -1.554641351 0)
(95.06039921 -1.115985723 0)
(95.03431451 -0.6652038558 0)
(95.02091391 -0.2217170641 0)
(99.5047945 -3.939833438 0)
(98.10776582 -3.851839123 0)
(96.97096065 -3.684995577 0)
(96.11676825 -3.449328106 0)
(95.52105871 -3.155731577 0)
(95.15070702 -2.816844139 0)
(94.9035214 -2.366164909 0)
(94.83772937 -1.975216112 0)
(94.69767921 -1.417377344 0)
(94.65887771 -1.022264454 0)
(94.63290666 -0.6103284717 0)
(94.62071405 -0.2038198359 0)
(99.46184289 -3.454641315 -4.401569357e-35)
(97.99512268 -3.374501268 0)
(96.79778937 -3.234264659 0)
(95.88943625 -3.039720861 0)
(95.24846443 -2.796525565 0)
(94.84240175 -2.511999905 0)
(94.56990748 -2.124419449 0)
(94.48385806 -1.783489477 0)
(94.33831426 -1.286071822 0)
(94.29546168 -0.9312702943 0)
(94.26706816 -0.5567643662 0)
(94.25469828 -0.1862912182 0)
(99.41653143 -3.044434514 0)
(97.89705389 -2.970640841 0)
(96.65260766 -2.850213082 0)
(95.7002202 -2.686474144 0)
(95.01987049 -2.481918034 0)
(94.58022649 -2.240307903 0)
(94.28058376 -1.905135569 0)
(94.17220819 -1.606617912 0)
(94.01698657 -1.163498528 0)
(93.96753323 -0.8453076594 0)
(93.93505045 -0.5059486092 0)
(93.92151128 -0.1696064488 0)
(99.37025687 -2.695511977 1.573365141e-35)
(97.81021454 -2.627061881 0)
(96.52856309 -2.521908846 0)
(95.54016051 -2.381846557 0)
(94.82574512 -2.207456738 0)
(94.355162 -2.000132995 0)
(94.02831368 -1.708609354 0)
(93.89702262 -1.446064995 0)
(93.72964893 -1.051221845 0)
(93.67206675 -0.7657869811 0)
(93.63447271 -0.458790308 0)
(93.61908168 -0.1540724738 0)
(99.32389879 -2.397695026 0)
(97.73232593 -2.333846917 0)
(96.42092107 -2.240800904 0)
(95.40284868 -2.119340149 0)
(94.65899857 -1.968886988 0)
(94.16024181 -1.789270619 0)
(93.80707127 -1.534233726 0)
(93.65319577 -1.302200125 0)
(93.47238723 -0.9499527577 0)
(93.40587331 -0.6934749663 0)
(93.36261488 -0.4158093618 0)
(93.34492861 -0.1398703285 0)
(99.27800543 -2.143276049 0)
(97.6617566 -2.083439451 0)
(96.3263038 -2.000185532 0)
(95.28360743 -1.89359244 0)
(94.51428727 -1.762381237 0)
(93.99003395 -1.605356573 0)
(93.61189072 -1.380932041 0)
(93.43628958 -1.174753448 0)
(93.24149729 -0.8598398148 0)
(93.16574382 -0.6286850912 0)
(93.11659644 -0.3772423243 0)
(93.09634928 -0.1270878877 0)
(99.23289957 -1.926237976 0)
(97.59726275 -1.869917145 0)
(96.24219119 -1.794694691 0)
(95.17890065 -1.700133986 0)
(94.38746251 -1.584536375 0)
(93.84018525 -1.446044777 0)
(93.43858994 -1.247362241 0)
(93.24238271 -1.063053145 0)
(93.03352008 -0.7806703668 0)
(92.94853966 -0.5714238269 0)
(92.89349387 -0.3431301665 0)
(92.87054459 -0.1157479724 0)
(99.18876233 -1.741852572 0)
(97.53786797 -1.688614055 0)
(96.16665375 -1.620033697 0)
(95.08599939 -1.535284779 0)
(94.27525327 -1.432422081 0)
(93.707168 -1.309162464 0)
(93.28365809 -1.132130721 0)
(93.06804841 -0.9662506132 0)
(92.84528987 -0.7120415247 0)
(92.75128707 -0.521514127 0)
(92.69046366 -0.3133942904 0)
(92.66475496 -0.1058332678 0)
(99.14566982 -1.586330281 0)
(97.48276532 -1.535781672 0)
(96.09815222 -1.472710033 0)
(95.00272353 -1.395985389 0)
(94.17500112 -1.303526731 0)
(93.58799637 -1.192756599 0)
(93.1441061 -1.033910925 0)
(92.91025616 -0.8834446181 0)
(92.67385021 -0.6534412054 0)
(92.5711351 -0.4786741136 0)
(92.50472036 -0.2878841654 0)
(92.47624189 -0.09730108756 0)
(99.10362975 -1.456629743 -2.658900604e-36)
(97.4312699 -1.40840759 0)
(96.03542611 -1.349890055 0)
(94.9272965 -1.279709487 0)
(94.08453839 -1.19573644 0)
(93.48028114 -1.09545335 0)
(93.01723235 -0.9516675304 0)
(92.76629571 -0.8137340801 0)
(92.51665439 -0.6043844198 0)
(92.40558097 -0.4425773279 0)
(92.33379333 -0.266426471 0)
(92.30257725 -0.09010264977 0)
(99.06260526 -1.350321025 0)
(97.38278662 -1.30408158 0)
(95.97741436 -1.249287433 0)
(94.8582304 -1.184380908 0)
(94.00205599 -1.107231764 0)
(93.38216496 -1.015595468 0)
(92.90059355 -0.8842630617 0)
(92.63373089 -0.7563004267 0)
(92.3707295 -0.5642390234 0)
(92.25165067 -0.4128857601 0)
(92.17466434 -0.2488148981 0)
(92.14069954 -0.08416918616 0)
(99.02251912 -1.26545961 0)
(97.33677387 -1.220871721 0)
(95.92318375 -1.16905772 0)
(94.79421635 -1.108304015 0)
(93.92589292 -1.036481549 0)
(93.29148529 -0.951160927 0)
(92.79237615 -0.830224374 0)
(92.51026724 -0.7101623467 0)
(92.23575752 -0.533070062 0)
(92.1090479 -0.3893121348 0)
(92.02709662 -0.2349649278 0)
(91.99053989 -0.07949856446 0)
(98.9832711 -1.20053935 0)
(97.29273622 -1.157277085 0)
(95.87190572 -1.107762678 0)
(94.73410104 -1.050159473 0)
(93.85458109 -0.9823602916 0)
(93.20642877 -0.9018542209 0)
(92.69079848 -0.7890037803 0)
(92.39405194 -0.6755880978 0)
(92.10276594 -0.5081842225 0)
(91.96778379 -0.3714751836 0)
(91.88070582 -0.224469464 0)
(91.84112948 -0.07588348099 0)
(98.94472963 -1.154419466 0)
(97.25019888 -1.11215167 0)
(95.82281894 -1.064298941 0)
(94.67684772 -1.008932821 0)
(93.78684222 -0.9439786245 0)
(93.12562243 -0.8668513968 0)
(92.59422091 -0.7600643083 0)
(92.28364399 -0.6515573935 0)
(91.99743386 -0.495503343 0)
(91.85721375 -0.3603583035 0)
(91.76622721 -0.2182296327 0)
(91.72484615 -0.07387405051 0)
(98.90679699 -1.126294475 0)
(97.20874771 -1.08467052 0)
(95.77525818 -1.037865024 0)
(94.62154592 -0.9838892787 0)
(93.72153656 -0.9206835344 0)
(93.04770125 -0.8457972769 0)
(92.50527443 -0.743276542 0)
(92.18293401 -0.6378687062 0)
(91.80490018 -0.4788773278 0)
(91.65034251 -0.3508045052 0)
(91.5518914 -0.2123672701 0)
(91.50649741 -0.0715071843 0)
(102.7508049 -32.23321969 -3.291472074e-19)
(103.7733109 -31.89151605 1.265277916e-18)
(108.578105 -22.899377 2.417454332e-20)
(95.18578639 -21.71908089 0)
(102.4208821 -32.06991583 5.989644576e-19)
(96.69191509 -21.98475767 -2.949738186e-19)
(102.6402031 -19.31762416 7.105690845e-19)
(107.6004953 -22.59634118 0)
(96.90318111 -14.05314798 0)
(95.17766912 -20.96187511 0)
(107.2990653 -27.60698803 -1.091452165e-18)
(97.29387166 -27.15876509 4.084353551e-20)
(97.77838113 -27.88490279 0)
(98.7745171 -27.41468632 0)
(102.9497576 -24.60178435 3.283635478e-19)
(106.0876713 -26.95477238 -6.257745686e-19)
(104.4905016 -33.41793178 4.577098703e-19)
(100.0382496 -30.48650742 0)
(104.5791666 -33.51482978 1.452841448e-18)
(105.9361924 -33.39409678 9.596619212e-19)
(108.4303261 -31.10104977 0)
(99.43262719 -29.89122948 1.396753189e-19)
(97.82639542 -14.69447396 0)
(100.1986104 -14.46984907 -8.518202848e-20)
(101.690204 -18.01986455 -1.924084078e-19)
(105.6190308 -29.80755855 -4.092835541e-19)
(107.7018296 -30.81588238 5.346143501e-19)
(105.6776452 -33.25878264 -9.215159378e-19)
(100.2104701 -20.82746206 -1.441894425e-19)
(102.105964 -23.68872714 -1.054410338e-19)
(98.28399595 -26.73732042 0)
(95.66058816 -16.97965595 0)
(89.11897355 -30.18482657 2.427539585e-18)
(104.3856213 -33.55167654 -1.138782316e-18)
(90.43376395 -25.16416502 6.41130403e-19)
(96.11898988 -24.87481412 1.187718988e-19)
(92.48606751 -31.21286854 9.830682685e-19)
(95.4447035 -31.99839596 1.255523299e-18)
(103.8907532 -33.01392398 0)
(89.44744673 -30.46774964 8.740259634e-19)
(86.68578615 -29.80011074 -1.258393948e-18)
(92.86046077 -31.33569566 1.606388419e-21)
(90.13328749 -30.69744788 -1.224625766e-18)
(77.07325011 -27.22134801 0)
(95.28177762 -31.51028185 0)
(93.68013522 -31.51586547 2.865622149e-19)
(95.83013632 -30.8663065 0)
(95.55666103 -31.41321545 6.098087045e-19)
(78.48201357 -27.38671941 0)
(85.75514924 -29.58847425 0)
(104.5906994 -33.59568507 -1.08246795e-18)
(89.73782851 -30.38621757 2.460591941e-18)
(90.66612324 -30.70952786 -3.949044902e-19)
(108.7612926 -21.92819357 -3.670827473e-18)
(108.9704946 -16.3526748 -6.919306033e-19)
(103.6211714 -32.89294024 3.720601174e-19)
(96.02423078 -32.17597188 1.920914957e-18)
(97.44084832 -32.23755492 -2.644173615e-19)
(98.75722873 -32.22929629 -3.961345271e-18)
(103.8009159 -33.40452237 0)
(106.7729507 -33.73664273 1.129367918e-18)
(108.9818793 -32.87191706 5.500027822e-19)
(80.4029322 -28.22922362 2.477446277e-18)
(79.50000012 -28.07330738 -1.054716711e-17)
(76.54718927 -27.1680994 -4.946546627e-19)
(81.68772359 -28.39242675 1.824209044e-18)
(80.16010238 -28.15145017 -2.840034033e-18)
(95.56028108 -29.72349296 1.556609864e-19)
(95.79096141 -30.67138251 -9.909842379e-20)
(92.7886781 -30.72512112 9.030281432e-18)
(93.84856793 -31.16372298 0)
(92.38931318 -30.79698321 0)
(87.89538669 -30.0465943 3.510004279e-19)
(83.06386974 -28.92005249 -1.421192984e-17)
(83.6646406 -29.05928601 -7.159759596e-18)
(86.46296598 -29.78886813 1.442257536e-18)
(91.8001395 -31.1020659 -4.791596399e-19)
(84.63488423 -29.26130056 1.340872431e-19)
(86.5285333 -29.74067127 3.258077527e-19)
(83.56015766 -28.98578883 0)
(83.05567196 -28.9446096 7.075558849e-19)
(90.79736152 -30.94710418 -7.007634919e-19)
(84.72570439 -29.1929959 -2.055588146e-19)
(83.53982359 -28.83870771 -5.026531911e-19)
(77.37044197 -27.3155663 2.242656985e-18)
(80.01081025 -27.69440248 0)
(86.71098053 -29.44382808 1.567250746e-19)
(85.77928802 -29.30205701 2.043342764e-19)
(89.60881249 -30.36932246 -5.960126927e-19)
(95.92261557 -31.91843736 -2.238798964e-18)
(95.32401427 -31.65121095 0)
(97.3986408 -32.37038672 -4.757177917e-19)
(96.49981999 -32.19571041 1.044541525e-18)
(89.1106234 -30.36993387 4.941681691e-20)
(108.6181558 -14.86072646 0)
(107.2354334 -11.06890703 2.642226477e-19)
(106.709239 -10.01748582 -5.382517144e-19)
(105.1362617 -7.455451455 5.292288328e-20)
(104.6458099 -6.778731444 -1.278924584e-18)
(103.3459483 -5.188193223 -2.644143595e-19)
(101.0604229 -29.92860487 2.040135312e-19)
(103.1090215 -28.05506909 -5.278169839e-19)
(104.9590711 -29.41039529 -3.561496466e-19)
(103.3501945 -18.14469929 1.079694088e-19)
(104.4119317 -14.7676904 3.43796553e-19)
(107.6688526 -16.10233772 0)
(104.4600003 -13.68291949 0)
(104.0955988 -10.7215573 -5.912204059e-19)
(106.3872433 -11.08183067 -2.053378381e-20)
(103.8596475 -9.857489016 -2.622557055e-21)
(103.0032152 -7.656044662 1.028301818e-18)
(104.5840312 -7.570441738 1.986938989e-18)
(102.705307 -7.048806228 -2.136273995e-19)
(101.861823 -5.575085061 -1.671719782e-19)
(102.9747483 -5.324758934 6.358411264e-20)
(96.81619552 -17.21417119 0)
(99.06894938 -17.28548045 0)
(99.8152681 -19.86683368 0)
(100.7133911 -14.07599976 2.359669029e-19)
(101.640417 -12.37637357 -1.096580472e-19)
(103.560643 -14.20083767 -8.105457473e-19)
(101.7608464 -11.71045218 -1.07751193e-19)
(101.7391119 -9.693577329 0)
(103.4340982 -10.5127763 3.831887705e-19)
(101.6330692 -9.051931788 5.993980306e-19)
(101.1728037 -7.339703614 1.018706908e-18)
(102.5111905 -7.611829368 -8.246834367e-19)
(100.9979776 -6.848159495 5.302173442e-19)
(100.4656771 -5.612851146 -1.014000911e-19)
(101.4992792 -5.612841222 2.388152332e-19)
(98.27078341 -10.76632757 4.043921155e-19)
(96.97099965 -12.88192995 2.464070161e-19)
(98.92987447 -11.11801625 5.24730605e-20)
(99.69698161 -11.1557619 -4.682027752e-20)
(99.98517281 -13.50380613 3.070401814e-20)
(99.88708497 -11.01789757 5.736612926e-21)
(100.1634206 -10.14198104 -3.54701679e-19)
(101.1768701 -11.78363215 -8.243510264e-20)
(100.1792914 -9.753661836 2.866900462e-19)
(100.0802149 -8.448830655 -2.213943257e-19)
(101.2651351 -9.388843045 0)
(100.0041186 -8.004623401 0)
(99.70080963 -6.7566592 5.540095407e-19)
(100.7719761 -7.210808782 -9.745055555e-19)
(99.58773989 -6.382601448 -7.435584875e-19)
(99.2377 -5.400271983 0)
(100.1408689 -5.577328364 0)
(99.84907946 -8.899803865 0)
(98.73795285 -10.27435636 0)
(99.64435462 -8.920297207 1.033413348e-20)
(99.53727082 -8.978802908 -8.64982947e-21)
(99.64586314 -10.51976904 3.28017488e-20)
(99.48367921 -8.882429313 -3.290206794e-20)
(99.26590383 -8.353687108 8.151235643e-19)
(99.907045 -9.651414902 -3.915758003e-20)
(99.18109732 -8.106676918 -4.493380361e-19)
(98.9150106 -7.260424277 -6.716392526e-19)
(99.75011426 -8.140999822 8.062509705e-19)
(98.82397929 -6.962797431 -2.092052416e-19)
(98.55313099 -6.090415662 -5.842686728e-20)
(99.38625566 -6.591701357 -2.750362405e-19)
(98.46438766 -5.817233641 -3.269199367e-20)
(98.20995558 -5.045172625 0)
(98.96227111 -5.320788491 0)
(100.1003361 -7.391839807 0)
(100.027947 -8.46864336 0)
(99.77268514 -7.480972708 0)
(99.25742458 -7.430445128 -9.83362484e-20)
(99.48285312 -8.547815591 1.868979606e-20)
(99.07876103 -7.351987156 1.246950281e-19)
(98.57903039 -6.967362345 -3.246237968e-19)
(99.07832501 -7.972219103 3.160248652e-21)
(98.43635722 -6.805799468 2.723321832e-20)
(98.06301181 -6.248996822 -1.155501464e-19)
(98.67723723 -6.988071216 0)
(97.95547326 -6.049880836 -6.336910385e-20)
(97.67092817 -5.441900219 0)
(98.3100152 -5.925076898 6.690244607e-20)
(97.5867823 -5.236882956 0)
(97.3693839 -4.62578099 0)
(97.98337499 -4.944248192 0)
(99.93098795 -6.316132367 1.205236948e-20)
(100.0573397 -7.09879397 -2.537313195e-20)
(99.65306333 -6.339375653 5.68018829e-20)
(98.91472021 -6.258205864 1.857397377e-22)
(99.168946 -7.107424433 -4.885363415e-21)
(98.68696664 -6.19137753 -9.363257866e-20)
(98.07260273 -5.924158043 9.14109555e-21)
(98.43791931 -6.67669945 -2.151366834e-20)
(97.89828006 -5.813736723 0)
(97.44895253 -5.429798916 0)
(97.88937081 -6.028640292 1.707658966e-19)
(97.32113863 -5.28739618 0)
(96.99604138 -4.830630289 0)
(97.48527092 -5.284977948 0)
(96.9059827 -4.671666671 0)
(96.68895236 -4.185958479 0)
(97.18553683 -4.516016732 0)
(99.89711033 -5.422306838 0)
(99.90364806 -6.077230624 2.654236971e-20)
(99.58202718 -5.421839891 0)
(98.71613535 -5.346905791 0)
(98.85015462 -6.006700188 3.083595434e-20)
(98.44835037 -5.300433598 0)
(97.7333207 -5.105270339 0)
(97.97753248 -5.703319842 1.240897311e-21)
(97.52609701 -5.023412775 0)
(96.99381442 -4.734848728 0)
(97.32300922 -5.245876975 0)
(96.84426493 -4.62635333 0)
(96.47154157 -4.272632297 0)
(96.85266738 -4.685670806 0)
(96.37107464 -4.147331807 0)
(96.13618452 -3.756992574 0)
(96.54000789 -4.076524812 0)
(99.90339301 -4.686865779 0)
(99.9005196 -5.223884668 0)
(99.55192163 -4.682103011 0)
(98.57687494 -4.61721954 0)
(98.67817237 -5.150480749 0)
(98.27745963 -4.580114846 0)
(97.4761273 -4.427730547 0)
(97.66272931 -4.924083235 0)
(97.24305304 -4.364206201 0)
(96.64316853 -4.139678216 0)
(96.89782992 -4.577290189 0)
(96.47468323 -4.054678484 0)
(96.05619519 -3.774478508 0)
(96.35877967 -4.142444596 0)
(95.9440382 -3.673957821 0)
(95.68307194 -3.356146616 0)
(96.01452642 -3.653378177 0)
(99.89038333 -4.08249215 2.73169994e-35)
(99.90169046 -4.524969202 3.116426785e-35)
(99.51492991 -4.074947312 -2.726676784e-35)
(98.46152336 -4.015744001 0)
(98.5462087 -4.456172257 0)
(98.13876181 -3.984640912 0)
(97.27276894 -3.860682672 0)
(97.42102638 -4.276571115 0)
(97.01973529 -3.809676446 0)
(96.36548061 -3.629832613 0)
(96.56785816 -4.004752126 0)
(96.18095451 -3.561579612 0)
(95.72117217 -3.335014704 0)
(95.96581921 -3.659248321 0)
(95.59751832 -3.253020674 0)
(95.3079164 -2.990990192 0)
(95.58268813 -3.260939584 0)
(99.86496881 -3.577621919 0)
(99.88495725 -3.947908799 0)
(99.47287042 -3.568270848 0)
(98.36198875 -3.513226838 0)
(98.43536521 -3.881759033 0)
(98.02175283 -3.486337726 0)
(97.10666854 -3.382339726 0)
(97.22823926 -3.73350518 0)
(96.83812693 -3.340203546 0)
(96.14020889 -3.192508758 0)
(96.30487958 -3.514164176 0)
(95.94227216 -3.136504589 0)
(95.44634312 -2.949897831 0)
(95.64746594 -3.233846651 0)
(95.31204687 -2.881970089 0)
(94.99442009 -2.663162776 0)
(95.2243427 -2.905183436 0)
(99.83216944 -3.151250691 -3.885865669e-35)
(99.85731644 -3.464328258 4.409595769e-35)
(99.42799347 -3.140774793 3.878834441e-35)
(98.27401126 -3.089230352 0)
(98.33903151 -3.400519981 0)
(97.92040992 -3.065502496 0)
(96.96741863 -2.976223198 0)
(97.06965095 -3.274586387 0)
(96.68669706 -2.940616731 0)
(95.95358884 -2.816766462 0)
(96.09035853 -3.09318492 0)
(95.74449155 -2.769945989 0)
(95.21734449 -2.613712961 0)
(95.38525881 -2.861479597 0)
(95.07346253 -2.556632331 0)
(94.72956182 -2.371687892 0)
(94.9240871 -2.58662997 0)
(99.795027 -2.788724825 0)
(99.82320282 -3.055110534 0)
(99.38186081 -2.777602249 0)
(98.19502163 -2.729139605 0)
(98.25349971 -2.993694717 0)
(97.8310096 -2.707893474 0)
(96.84828034 -2.629898205 0)
(96.93595674 -2.884453529 0)
(96.55787916 -2.59926122 0)
(95.79621878 -2.493595158 0)
(95.91180175 -2.731360901 0)
(95.57782709 -2.453821051 0)
(95.02386267 -2.321126685 0)
(95.16597957 -2.536681177 0)
(94.87146699 -2.27254734 0)
(94.50347418 -2.114481023 0)
(94.66974166 -2.303984098 0)
(99.75540779 -2.479248283 -1.390484212e-35)
(99.7852994 -2.706739544 -1.5761889e-35)
(99.33546139 -2.467811491 1.388007336e-35)
(98.12329049 -2.422107466 0)
(98.17646355 -2.647767004 0)
(97.75105579 -2.402872913 0)
(96.7446759 -2.33379436 0)
(96.8210678 -2.551486742 0)
(96.4464955 -2.307044196 0)
(95.66148347 -2.215581591 0)
(95.76062546 -2.420116413 0)
(95.43532207 -2.181326421 0)
(94.85834071 -2.067196717 0)
(94.98010889 -2.254201721 0)
(94.69843348 -2.025380045 0)
(94.30860297 -1.888910631 0)
(94.4520883 -2.054976861 0)
(99.71449164 -2.21469502 0)
(99.74526509 -2.40917206 0)
(99.28941461 -2.203165877 0)
(98.05758068 -2.159944593 0)
(98.10633979 -2.352636248 0)
(97.67878604 -2.142375884 0)
(96.65338225 -2.080502238 0)
(96.72080325 -2.266710622 0)
(96.34888657 -2.056856846 0)
(95.5446232 -1.976701202 0)
(95.63074874 -2.15240357 0)
(95.31193287 -1.946841919 0)
(94.71516296 -1.847566986 0)
(94.82063882 -2.009232295 0)
(94.5486432 -1.81119585 0)
(94.13913735 -1.692254869 0)
(94.26405674 -1.836919758 0)
(99.67303811 -1.988753079 0)
(99.70415559 -2.154803555 0)
(99.2440913 -1.977274358 0)
(97.99694161 -1.936287609 0)
(98.04197782 -2.100635895 0)
(97.61287494 -1.920117188 0)
(96.57202058 -1.864156148 0)
(96.63218948 -2.02315237 0)
(96.26234976 -1.843029092 0)
(95.44208765 -1.77200202 0)
(95.51776434 -1.922494106 0)
(95.20387719 -1.745688521 0)
(94.59003167 -1.658428979 0)
(94.68233293 -1.797560077 0)
(94.41768552 -1.626482295 0)
(93.99048909 -1.521871491 0)
(94.10018402 -1.647100001 0)
(99.63154345 -1.796448974 0)
(99.66265213 -1.937688459 0)
(99.19970039 -1.785109305 0)
(97.94061286 -1.746126355 0)
(97.98248041 -1.885773305 0)
(97.55228525 -1.731138326 0)
(96.49877448 -1.680076221 0)
(96.55300782 -1.81526737 0)
(96.18482398 -1.661012153 0)
(95.35115571 -1.597422498 0)
(95.41835658 -1.725670434 0)
(95.10824516 -1.573992329 0)
(94.47958669 -1.496516688 0)
(94.56115561 -1.615510435 0)
(94.30208993 -1.468183362 0)
(93.85897386 -1.375329066 0)
(93.95613143 -1.482916367 0)
(99.59033341 -1.633833553 0)
(99.62120485 -1.753148622 0)
(99.15634359 -1.622682208 0)
(97.88796535 -1.585482755 0)
(97.92712858 -1.703335912 0)
(97.49617768 -1.571496194 0)
(96.43221385 -1.524509169 0)
(96.48155731 -1.638641978 0)
(96.1146907 -1.507142794 0)
(95.26968765 -1.449638154 0)
(95.32997554 -1.558081272 0)
(95.02274286 -1.428561034 0)
(94.38114507 -1.359073292 0)
(94.45394444 -1.459960131 0)
(94.1990692 -1.333695145 0)
(93.74156259 -1.25047715 0)
(93.82840926 -1.342012934 0)
(99.54960061 -1.49771568 0)
(99.58010028 -1.597430158 0)
(99.1140422 -1.486775317 0)
(97.83845113 -1.451145461 0)
(97.87531305 -1.549543048 0)
(97.44383896 -1.438004396 0)
(96.37116392 -1.394401134 0)
(96.41647621 -1.489701222 0)
(96.05062648 -1.378430302 0)
(95.19594155 -1.32589868 0)
(95.25058821 -1.416545287 0)
(94.94550206 -1.306739629 0)
(94.29251206 -1.243768568 0)
(94.35814375 -1.328254174 0)
(94.10633842 -1.220808449 0)
(93.63574152 -1.145521373 0)
(93.71410652 -1.222309048 0)
(99.50945195 -1.38554419 0)
(99.53950618 -1.467516158 2.663461532e-36)
(99.0727699 -1.374819427 0)
(97.79158971 -1.340549776 0)
(97.826505 -1.421359511 0)
(97.39465551 -1.32811573 0)
(96.31464123 -1.287296996 0)
(96.35664438 -1.365553776 0)
(95.99152827 -1.272463338 0)
(95.1284734 -1.223959078 0)
(95.17853785 -1.298448781 0)
(94.87497479 -1.206348572 0)
(94.21187602 -1.148641066 0)
(94.27166885 -1.218165628 0)
(94.02202071 -1.12763998 0)
(93.5395568 -1.058820219 0)
(93.61086815 -1.122116415 0)
(99.46992978 -1.295269361 0)
(99.49951204 -1.360992663 0)
(99.03245755 -1.284752745 0)
(97.74693767 -1.251636687 0)
(97.7802363 -1.316359076 0)
(97.34807279 -1.239782623 0)
(96.26178329 -1.201213666 0)
(96.30111476 -1.26387339 0)
(95.9364333 -1.187289501 0)
(95.06602694 -1.141982733 0)
(95.11243683 -1.201656581 0)
(94.80981129 -1.125595778 0)
(94.13762636 -1.072034057 0)
(94.19277503 -1.127810033 0)
(93.94442621 -1.052570582 0)
(93.45110155 -0.9887719032 0)
(93.51680647 -1.039768679 0)
(99.43103877 -1.225293796 1.012582074e-35)
(99.46014859 -1.275926546 0)
(98.99301131 -1.214968284 -1.010890197e-35)
(97.7040837 -1.182798931 0)
(97.73607146 -1.232599745 0)
(97.30358676 -1.171405261 0)
(96.21182481 -1.134597023 0)
(96.24905039 -1.182787356 0)
(95.88449109 -1.121377092 0)
(95.0074972 -1.078526666 0)
(95.05106797 -1.124431496 0)
(94.74882276 -1.063074842 0)
(94.06832273 -1.012674867 0)
(94.11988843 -1.055619874 0)
(93.87202594 -0.9943840205 0)
(93.36847884 -0.9344445454 0)
(93.42995372 -0.9737053386 0)
(99.39274171 -1.174396905 -3.294894363e-36)
(99.42141109 -1.210820862 0)
(98.95430664 -1.164235942 3.289441186e-36)
(97.6626272 -1.132800102 0)
(97.6936041 -1.168573805 0)
(97.26071736 -1.121751339 0)
(96.16406091 -1.086245889 0)
(96.19970458 -1.120836599 0)
(95.83492401 -1.073541367 0)
(94.95189024 -1.03247408 0)
(94.99335828 -1.06541901 0)
(94.69094514 -1.017697783 0)
(94.00270762 -0.9695803861 0)
(94.05161964 -1.000409596 0)
(93.80350733 -0.9521377531 0)
(93.29028814 -0.8949977272 0)
(93.34857062 -0.9231786494 0)
(99.3549461 -1.141706775 0)
(99.38325275 -1.164544789 0)
(98.91617643 -1.131673484 0)
(97.62216492 -1.100742767 0)
(97.65243597 -1.123132039 0)
(97.21899315 -1.08992406 0)
(96.11783046 -1.055279532 0)
(96.15238591 -1.076902706 0)
(95.78700979 -1.0429129 0)
(94.89829863 -1.003004673 0)
(94.93833844 -1.023578336 0)
(94.63520944 -0.9886644185 0)
(93.93963491 -0.9420165356 0)
(93.98674505 -0.9612570212 0)
(93.73766862 -0.9251213589 0)
(93.21516535 -0.8698024578 0)
(93.2712673 -0.8873411103 0)
(99.31310441 -1.125885508 -3.091051515e-37)
(99.34565426 -1.136303671 0)
(98.87393631 -1.115978268 3.087495183e-37)
(97.57751583 -1.085328537 0)
(97.61222336 -1.095450553 0)
(97.17303993 -1.074623217 0)
(96.06712845 -1.040434345 0)
(96.1064899 -1.050173369 0)
(95.73451006 -1.028252352 0)
(94.83968576 -0.9889654802 0)
(94.88515936 -0.9981556384 0)
(94.57427509 -0.9748490092 0)
(93.87073373 -0.9289044704 0)
(93.92417834 -0.9374872898 0)
(93.66576117 -0.9122463991 0)
(93.13314955 -0.8574911811 0)
(93.19674559 -0.8656601408 0)
(103.0425828 -32.49987419 -2.07803153e-20)
(102.0324209 -32.71558994 -3.453257307e-19)
(101.8228808 -32.51527331 -3.043270222e-19)
(104.5315309 -31.21971719 -4.299585506e-19)
(105.2534995 -31.62024617 0)
(104.4760485 -32.30531222 -4.342962456e-19)
(111.7603187 -23.8056657 0)
(111.5379646 -27.6859086 4.012839462e-19)
(107.7883866 -26.39371536 1.087595433e-18)
(95.83543327 -24.06579664 4.174025778e-19)
(90.76388204 -24.19337124 -3.44366562e-19)
(97.76767423 -32.21447369 5.972992365e-19)
(98.09302875 -31.83950914 2.359694946e-19)
(101.297995 -31.5830542 8.171351144e-20)
(98.12212709 -21.7014371 0)
(98.57939804 -22.9519205 2.50770446e-20)
(96.80622575 -23.88544686 -7.215939613e-20)
(104.3770456 -20.53606151 0)
(102.8694813 -22.8542114 0)
(100.9648755 -20.33115402 2.362296902e-19)
(106.6459083 -25.81416435 0)
(103.6867876 -23.66728255 0)
(105.1180372 -20.9988136 0)
(95.99128154 -16.09679771 2.531724122e-19)
(94.95592803 -19.18462519 -2.898834538e-19)
(108.5665608 -28.18514057 0)
(108.0901551 -30.10014101 0)
(106.0751942 -29.13782801 0)
(108.791673 -30.35389278 0)
(109.6607844 -28.17847182 1.824136447e-18)
(106.9156181 -33.80479901 0)
(108.5054026 -33.75020216 0)
(96.01870571 -27.53295537 6.839003994e-20)
(95.60650474 -26.74692428 -2.846656517e-19)
(96.85179868 -26.42230931 0)
(98.3007783 -28.58658117 0)
(96.91798807 -29.02026011 -4.972298435e-20)
(96.45981879 -28.28760668 0)
(100.9350774 -25.98028952 -4.204045823e-19)
(102.5275213 -27.62963129 4.568048025e-19)
(100.4415036 -29.34390925 -2.043458036e-19)
(103.8961584 -25.46347474 5.600584958e-19)
(103.0440281 -26.50561273 2.423659736e-19)
(102.035039 -25.54679869 -5.162872063e-19)
(105.4532232 -28.77885502 -8.018405641e-19)
(104.1669283 -27.40184234 0)
(104.9448159 -26.24980971 1.636863753e-18)
(102.2684482 -33.29149212 -4.597706692e-19)
(102.4430154 -33.28352808 -4.424357783e-19)
(104.341512 -33.30958124 1.31522886e-18)
(87.95502066 -29.54252093 4.98706791e-19)
(87.36567181 -29.54536646 -1.321444744e-19)
(80.64050227 -27.79634901 -3.991611037e-20)
(100.6677322 -31.05785651 -1.268140165e-19)
(98.0608809 -31.66402982 -4.016678669e-19)
(97.63984011 -30.9553063 -1.889023453e-20)
(104.641771 -33.5962049 -9.798960095e-19)
(101.6173876 -33.2736344 9.795819023e-19)
(101.9604203 -33.27892502 -9.765675529e-19)
(107.4770679 -32.62610476 8.679198626e-21)
(108.2258708 -32.89800985 -3.373819486e-19)
(106.6327139 -33.68706626 0)
(109.1737595 -31.36347633 0)
(108.7796507 -32.14411137 0)
(108.0218252 -31.87201686 -5.794673669e-19)
(109.545131 -32.38932188 -3.522441129e-19)
(109.9251171 -31.60234708 0)
(97.87982975 -30.37571025 1.159057756e-19)
(97.39773886 -29.72741782 -8.153950688e-20)
(98.85237677 -29.26036019 -1.39921525e-19)
(89.32892121 -29.4093429 -2.00756633e-20)
(88.64252112 -29.46630259 1.962877265e-19)
(94.28306789 -28.55182259 2.762856143e-20)
(95.37992353 -29.43780422 -7.601695982e-20)
(98.83844159 -14.85451918 0)
(98.77119464 -16.16423546 -4.27652556e-20)
(96.98940249 -16.35140054 5.834571771e-19)
(100.5191875 -15.55135736 0)
(99.77730838 -15.95798963 1.371906609e-20)
(99.60053253 -14.74443263 3.128363198e-20)