/*--------------------------------*- C++ -*----------------------------------*\
| =========                 |                                                 |
| \\      /  F ield         | OpenFOAM: The Open Source CFD Toolbox           |
|  \\    /   O peration     | Version:  v2012                                 |
|   \\  /    A nd           | Website:  www.openfoam.com                      |
|    \\/     M anipulation  |                                                 |
\*---------------------------------------------------------------------------*/
FoamFile
{
    version     2.0;
    format      ascii;
    class       surfaceVectorField;
    location    "2";
    object      Uf;
}
// * * * * * * * * * * * * * * * * * * * * * * * * * * * * * * * * * * * * * //

dimensions      [0 1 -1 0 0 0 0];


internalField   nonuniform List<vector> 
5975
(
(103.4238216 -31.6660342 7.974500528e-19)
(102.6355711 -31.89829499 4.945148404e-19)
(102.729811 -31.2083814 4.657342519e-19)
(103.4492136 -31.12282952 -4.097508672e-19)
(102.4525594 -31.68381792 1.034668238e-19)
(107.5644642 -22.09014193 8.709234245e-20)
(108.3357375 -21.56881711 -2.35926407e-18)
(106.6965172 -20.44150493 7.177920986e-19)
(107.6145405 -20.07769189 1.311181152e-19)
(106.985021 -21.68218301 -1.120047352e-18)
(108.4213786 -20.8560347 8.976947518e-19)
(108.0313142 -14.77549363 0)
(107.559176 -15.40975347 0)
(106.9024202 -14.56327379 2.469468948e-19)
(107.3003534 -14.05017305 8.155005299e-20)
(106.3275336 -10.04315867 -2.490268879e-19)
(106.1690169 -10.57947511 7.768404367e-21)
(105.5807481 -10.05553727 2.666900371e-19)
(105.7224899 -9.612102873 -4.708342854e-19)
(104.3962092 -6.841488713 -1.316606483e-19)
(104.3645813 -7.235611869 1.49703653e-18)
(103.9017295 -6.947430621 6.240190244e-19)
(103.9387991 -6.605874774 -5.610439632e-19)
(102.8001282 -5.118594139 3.121408929e-20)
(102.8017638 -4.851126348 -2.772824532e-19)
(102.4586804 -4.973019868 0)
(102.4706409 -4.734610539 -3.249528239e-20)
(101.4932177 -3.469884588 -1.498359823e-20)
(101.4932564 -3.855574854 1.070433319e-20)
(101.0126186 -3.66557541 -3.180199464e-20)
(101.0617663 -3.34161771 -3.22955867e-20)
(100.7203031 -2.581727384 2.468796791e-22)
(100.7008225 -2.887435724 0)
(100.3414298 -2.740733845 -1.084229058e-20)
(100.394718 -2.482637128 0)
(99.53119018 -1.551640244 5.796941212e-21)
(99.39359613 -1.934095256 -9.428192255e-21)
(99.8364488 -2.213040576 0)
(100.0707813 -2.141704586 0)
(99.24398409 -1.000103692 6.873417445e-21)
(99.07451511 -1.316893436 1.414611582e-20)
(99.0769173 -0.489968247 -2.391777261e-21)
(98.87507522 -0.7715975838 1.06651519e-21)
(98.77242196 -0.2543459654 6.16826838e-21)
(96.59071489 -21.3051562 -7.573991197e-20)
(95.63120594 -20.82092201 7.344554324e-20)
(96.55410291 -19.97005175 2.178057041e-19)
(97.19294665 -20.5533267 6.060602211e-20)
(95.64441895 -20.34665914 -3.464449999e-20)
(102.0463304 -17.57287343 -9.668913267e-20)
(102.883382 -17.62285137 5.428259047e-20)
(102.048797 -16.56743584 -1.484681515e-19)
(102.6882552 -16.64731801 3.73152357e-19)
(104.0571738 -13.45755833 1.245115639e-19)
(103.6078203 -13.72585462 -2.870776572e-19)
(103.2997006 -12.98296178 4.880177561e-20)
(103.6562657 -12.77104976 8.378746033e-20)
(103.5517853 -9.779374912 -1.31370482e-21)
(103.3378557 -10.10815481 1.915341366e-19)
(102.9537956 -9.606950512 0)
(103.1283694 -9.325955792 0)
(102.4792548 -7.040971872 -2.093914054e-19)
(102.3802519 -7.319402084 -5.108942655e-19)
(102.0341714 -7.013592326 -1.031091157e-19)
(102.1224213 -6.768554335 -4.066522674e-19)
(101.3792763 -5.418767385 9.549220585e-20)
(101.4323502 -5.203338524 -1.10247137e-19)
(101.096248 -5.241959827 -6.406410944e-20)
(101.1510819 -5.0564154 3.577900657e-20)
(100.5200321 -3.805640182 -4.463947439e-20)
(100.4390229 -4.149408293 -2.280778989e-20)
(100.0238551 -3.894487198 -4.170903556e-20)
(100.1300932 -3.618339844 -1.72990505e-20)
(99.948594 -2.863191029 -2.785047728e-20)
(99.86858379 -3.143874624 1.012285257e-20)
(99.54788516 -2.951954868 -2.961397805e-20)
(99.64312641 -2.715758493 -1.535220761e-20)
(98.94681896 -1.691030797 -6.859113402e-22)
(98.75987872 -2.050207535 -2.703699328e-20)
(99.14328544 -2.392326415 -6.979971532e-21)
(99.38706269 -2.341507309 -4.139910775e-21)
(98.71517075 -1.090683202 9.292384461e-21)
(98.50935005 -1.403133467 1.751591347e-20)
(98.57878901 -0.5347444925 9.287451897e-21)
(98.35080734 -0.8240964075 3.629997213e-22)
(98.26812232 -0.2716080859 2.241177704e-21)
(97.94512566 -14.14921022 -1.544266475e-19)
(97.54818381 -13.29958664 -3.124107521e-20)
(98.25811283 -13.14384542 4.094071368e-20)
(98.5347004 -13.62735694 -1.544795752e-19)
(100.565044 -13.64077066 4.12229501e-20)
(100.1942564 -13.35545914 -6.920786775e-20)
(100.3004776 -12.80537449 -8.390863346e-20)
(100.5826387 -13.00851217 -2.212939655e-19)
(101.5212511 -11.45599852 -1.630827327e-19)
(101.227966 -11.49823379 -1.495863094e-19)
(101.0721109 -10.95258278 -4.512267868e-20)
(101.3033184 -10.90548365 -7.069372823e-22)
(101.4039415 -8.926937729 2.293168637e-20)
(101.2200057 -9.095957021 -2.774506678e-19)
(100.9629666 -8.670918358 2.496376061e-19)
(101.115677 -8.520606777 2.676167766e-20)
(100.8079169 -6.798284752 4.352330627e-19)
(100.6926149 -6.975423381 -3.043908337e-19)
(100.4353804 -6.692458847 1.148327651e-20)
(100.5361487 -6.53352587 -1.047237819e-19)
(100.0639568 -5.411829705 -1.21726051e-20)
(100.1413487 -5.254153879 1.394170285e-22)
(99.83629196 -5.227531651 -1.216776031e-20)
(99.91392128 -5.084897921 -1.060862876e-20)
(99.53466783 -3.936151858 3.357783419e-21)
(99.40650413 -4.216424015 6.294558708e-21)
(99.06008401 -3.936024239 0)
(99.20007111 -3.708800143 2.73273545e-21)
(99.15171765 -3.007128979 -1.26373517e-20)
(99.02938535 -3.248549937 2.730314187e-21)
(98.75506293 -3.033031951 4.293276934e-21)
(98.87825003 -2.824611469 0)
(98.33237868 -1.761795725 -8.148307799e-21)
(98.1138076 -2.089345873 -1.169735134e-20)
(98.44198687 -2.46485578 -9.187827493e-22)
(98.6834072 -2.438885031 -1.170752867e-20)
(98.15384954 -1.139657563 9.026354782e-21)
(97.92474954 -1.440788386 1.800735729e-20)
(98.04776472 -0.5598455065 -6.03072828e-21)
(97.80425069 -0.8481989974 -1.023922706e-20)
(97.74021403 -0.2795661681 -6.398936413e-21)
(99.05324539 -10.79345511 -8.094437513e-20)
(98.95304748 -10.32441349 -1.065121846e-19)
(99.2736837 -10.17879465 -1.133512862e-19)
(99.28757759 -10.50271027 -1.011257024e-19)
(99.83577332 -10.71315367 -2.679639199e-21)
(99.7081768 -10.45817443 1.829763488e-20)
(99.75191392 -10.12900296 2.996233311e-20)
(99.81611457 -10.31584696 1.75217081e-21)
(100.0368904 -9.530283261 4.090601878e-19)
(99.90081831 -9.480495872 2.436631853e-19)
(99.76550303 -9.095436001 2.486097689e-19)
(99.87904039 -9.122696089 3.065309825e-19)
(99.8388905 -7.870581505 -2.120722142e-19)
(99.71163654 -7.938722909 1.856897447e-19)
(99.52038528 -7.605169759 4.335943791e-21)
(99.62871309 -7.537799748 -2.166312953e-19)
(99.43477053 -6.313799621 -3.710938337e-19)
(99.33313378 -6.415501748 -1.350123864e-19)
(99.13758264 -6.174534568 1.353094283e-19)
(99.22753078 -6.079356571 1.387623342e-20)
(98.91287806 -5.180628143 0)
(98.99698046 -5.074219629 0)
(98.73497656 -5.004395248 0)
(98.81706367 -4.901751577 0)
(98.60723618 -3.900443701 -1.494230334e-20)
(98.4580659 -4.11533829 -1.492802248e-20)
(98.17798582 -3.837381078 5.490443226e-21)
(98.33099632 -3.656207548 -4.152590019e-20)
(98.37409459 -3.032232106 2.69268648e-20)
(98.22950394 -3.231230149 -3.718683795e-21)
(97.99734285 -3.008309164 2.57133999e-21)
(98.13509775 -2.829274738 1.278744255e-20)
(97.71439706 -1.772594299 1.481326942e-20)
(97.47997148 -2.065890341 2.446076513e-20)
(97.75844069 -2.448265787 3.0326021e-20)
(97.98964905 -2.451202294 -1.302891312e-20)
(97.5824919 -1.15221749 -1.899510947e-21)
(97.34270377 -1.436665357 -8.308805708e-21)
(97.50303459 -0.5669915886 -1.059384688e-20)
(97.25392588 -0.8474049727 -1.180567699e-20)
(97.20556977 -0.279502195 1.201880969e-21)
(99.6771498 -8.716181421 3.720512831e-20)
(99.87042582 -8.478184031 3.565538795e-20)
(99.73516901 -8.327933312 2.890924647e-19)
(99.68999375 -8.5691928 3.6373981e-20)
(99.46834892 -8.670027226 -1.643147535e-20)
(99.43740941 -8.504758407 9.420963694e-21)
(99.37069672 -8.25929436 -4.77003071e-20)
(99.33853908 -8.397552876 6.952909545e-21)
(99.07799317 -7.928577722 -2.242417816e-19)
(99.02780163 -7.86470436 1.582125648e-21)
(98.8794421 -7.58348443 -2.087909297e-19)
(98.92559191 -7.631490823 0)
(98.70263386 -6.840535921 -2.447763298e-19)
(98.62908401 -6.852544933 -1.414784547e-19)
(98.46924321 -6.601673697 9.060686071e-20)
(98.53466153 -6.582746222 -2.921213555e-19)
(98.34417155 -5.744900092 -2.008009677e-20)
(98.26640939 -5.797927167 2.938767866e-20)
(98.11056902 -5.600009159 -3.737024071e-21)
(98.18149688 -5.549072451 -3.735338048e-21)
(97.94830659 -4.827913815 0)
(98.0251251 -4.757540165 0)
(97.80647945 -4.666929504 0)
(97.88164013 -4.595133649 0)
(97.77591064 -3.752578054 2.035005144e-20)
(97.62420065 -3.910150529 0)
(97.39768808 -3.648314256 0)
(97.54924187 -3.507506683 0)
(97.64188606 -2.963528771 -2.009554729e-20)
(97.49081019 -3.123401277 0)
(97.29288074 -2.900884996 0)
(97.43463782 -2.751861179 0)
(97.11389038 -1.736272005 -1.742221634e-21)
(96.87631067 -1.993792683 1.898899607e-20)
(97.11200526 -2.365941519 1.263320581e-20)
(97.32734788 -2.395897869 1.265407023e-20)
(97.01932525 -1.134797505 -1.897108215e-20)
(96.77881127 -1.398093564 -1.776977124e-20)
(96.96114924 -0.5589808409 1.804514695e-23)
(96.71432159 -0.8265798871 -1.197785668e-21)
(96.67860535 -0.2733391449 1.201789821e-21)
(99.7638069 -7.327448638 8.138257365e-21)
(99.90877785 -7.140317761 -4.714321733e-21)
(99.74031048 -7.027761886 -7.614320539e-20)
(99.66560358 -7.174605967 2.382864337e-20)
(99.05054948 -7.192932818 6.412478944e-20)
(99.07097629 -7.071701161 -4.815850562e-21)
(98.94505302 -6.885145658 -2.67096512e-21)
(98.87697024 -6.988986372 -3.245251894e-21)
(98.36177668 -6.668571667 -9.708755269e-20)
(98.36031426 -6.605884441 -1.21633381e-19)
(98.21333823 -6.404046274 -1.103892366e-19)
(98.21133053 -6.453068827 2.057158671e-20)
(97.86672853 -5.948829991 -2.129535718e-20)
(97.83323295 -5.937513871 9.501766573e-20)
(97.69611835 -5.751116369 1.043960166e-20)
(97.72589383 -5.755268784 1.030634634e-20)
(97.49371701 -5.164849512 0)
(97.44281511 -5.188982543 0)
(97.31295311 -5.021587231 0)
(97.36112 -4.996528831 0)
(97.15701851 -4.421178201 0)
(97.22036508 -4.377720937 0)
(97.04092769 -4.277728649 0)
(97.10370536 -4.230140948 0)
(97.0442607 -3.529099084 0)
(96.90239559 -3.641248719 0)
(96.71533408 -3.399209403 0)
(96.8551005 -3.291083785 0)
(96.96827211 -2.824424638 0)
(96.8215877 -2.950122407 0)
(96.65319006 -2.73753559 0)
(96.79012904 -2.614695961 0)
(96.543702 -1.66323625 0)
(96.31189283 -1.88723018 0)
(96.51424681 -2.238732309 0)
(96.71037444 -2.289397645 0)
(96.47707719 -1.092595757 0)
(96.24275222 -1.333553791 0)
(96.43524954 -0.5402648785 0)
(96.19676414 -0.7906653697 0)
(96.17067521 -0.2622642005 0)
(99.63482781 -6.214557502 5.490814317e-20)
(99.76158254 -6.083057988 4.162189485e-20)
(99.60598522 -5.972615078 2.669218871e-20)
(99.48792685 -6.082695482 2.664624043e-20)
(98.65121604 -6.068533401 -6.204108253e-20)
(98.73164068 -5.974118939 3.56779943e-21)
(98.58162729 -5.83217837 -1.487240172e-20)
(98.50008458 -5.911034171 -1.439731443e-20)
(97.84606904 -5.707596896 0)
(97.88596299 -5.652235816 6.198927723e-22)
(97.74648233 -5.500735787 0)
(97.70970345 -5.546235886 0)
(97.2554784 -5.200297609 0)
(97.25628551 -5.179532805 0)
(97.12826041 -5.029119216 0)
(97.12827375 -5.044122166 0)
(96.83320733 -4.603901136 0)
(96.80646362 -4.610940433 0)
(96.69167303 -4.469797125 0)
(96.71883181 -4.460288257 0)
(96.51269459 -3.999225488 0)
(96.5609129 -3.974064972 0)
(96.41324743 -3.873140737 0)
(96.46235964 -3.842050577 0)
(96.40979804 -3.26230746 0)
(96.28538973 -3.340530183 0)
(96.12685416 -3.121363113 0)
(96.24964481 -3.03931702 0)
(96.36293598 -2.642917175 0)
(96.22763238 -2.740644198 0)
(96.08265652 -2.543085093 0)
(96.20930968 -2.442267499 0)
(96.01221136 -1.565850137 0)
(95.79364366 -1.760401626 0)
(95.97075653 -2.086251114 0)
(96.14696406 -2.148812529 0)
(95.96429373 -1.033248567 0)
(95.74242689 -1.252521366 0)
(95.93411084 -0.5129687103 0)
(95.70804047 -0.7443521865 0)
(95.68879297 -0.2474009721 0)
(99.57809855 -5.322025516 0)
(99.7377267 -5.222783256 0)
(99.57117626 -5.127495498 0)
(99.42063066 -5.215415132 0)
(98.42515648 -5.20359421 0)
(98.53994115 -5.128494922 0)
(98.37990631 -5.014610056 0)
(98.27066959 -5.080329662 0)
(97.48734101 -4.935472969 0)
(97.55556757 -4.885743064 0)
(97.41208432 -4.763387673 0)
(97.34911824 -4.805639964 0)
(96.79385045 -4.550919603 0)
(96.82054992 -4.52636676 0)
(96.69586702 -4.402729585 0)
(96.6727605 -4.422073344 0)
(96.31332317 -4.085699864 0)
(96.30710691 -4.083263558 0)
(96.20076698 -3.964045422 0)
(96.20963907 -3.96345631 0)
(95.98521927 -3.589894477 0)
(96.01861356 -3.575799472 0)
(95.89595724 -3.479497358 0)
(95.93141906 -3.459339272 0)
(95.86488144 -2.978957321 0)
(95.76117472 -3.033744984 0)
(95.62244631 -2.837206441 0)
(95.7259897 -2.775656169 0)
(95.82591065 -2.439912167 0)
(95.70577783 -2.515698081 0)
(95.57848496 -2.335307566 0)
(95.69184157 -2.252296462 0)
(95.52393668 -1.454976155 0)
(95.32313835 -1.624052721 0)
(95.48177977 -1.922140163 0)
(95.63894373 -1.989527855 0)
(95.48690657 -0.9641243562 0)
(95.28132125 -1.162457228 0)
(95.46375161 -0.4798082798 0)
(95.2530993 -0.6922270798 0)
(95.2380616 -0.2305000311 0)
(99.54759783 -4.600757698 -1.555148593e-35)
(99.72249821 -4.522037433 -3.73455614e-37)
(99.53874715 -4.441837115 -3.043555222e-35)
(99.37110412 -4.51261672 -1.555330911e-35)
(98.25890711 -4.500465328 0)
(98.39324726 -4.438420549 0)
(98.22261305 -4.34475866 0)
(98.09522666 -4.399788363 0)
(97.21281432 -4.290420837 0)
(97.301748 -4.246555723 0)
(97.15389982 -4.145906024 0)
(97.07175624 -4.183847219 0)
(96.43494575 -3.989579608 0)
(96.48147827 -3.964593773 0)
(96.3575074 -3.861721752 0)
(96.31630731 -3.882168511 0)
(95.89743583 -3.618916112 0)
(95.908277 -3.611558 0)
(95.80644285 -3.510443359 0)
(95.7997994 -3.514703097 0)
(95.54987465 -3.208296801 0)
(95.56952426 -3.200837136 0)
(95.4667685 -3.111922792 0)
(95.48952153 -3.098923714 0)
(95.39790087 -2.697760692 0)
(95.31588278 -2.737157685 0)
(95.18985679 -2.561907066 0)
(95.27401766 -2.515706208 0)
(95.35262502 -2.230521875 0)
(95.24928775 -2.289784407 0)
(95.13489495 -2.12687612 0)
(95.23350817 -2.058022732 0)
(95.07973983 -1.338670367 0)
(94.89917034 -1.486007355 0)
(95.04457747 -1.756219027 0)
(95.18421047 -1.823702171 0)
(95.04735721 -0.8903094934 0)
(94.86010708 -1.069123728 0)
(95.02761402 -0.4440121919 0)
(94.83384663 -0.6377653672 0)
(94.82093282 -0.2127681902 0)
(99.50985918 -4.007382529 -1.363180067e-35)
(99.69487588 -3.943818263 0)
(99.49958352 -3.875209918 0)
(99.31998445 -3.932878252 0)
(98.12328117 -3.918232307 0)
(98.2715673 -3.866754326 0)
(98.09289878 -3.788290821 0)
(97.95231484 -3.834407135 0)
(96.99537532 -3.747328772 0)
(97.09959856 -3.709221612 0)
(96.94778742 -3.625179285 0)
(96.85125026 -3.658557356 0)
(96.14889113 -3.505447341 0)
(96.21082392 -3.481731412 0)
(96.08628831 -3.395252914 0)
(96.03079678 -3.415081582 0)
(95.55931614 -3.204370476 0)
(95.58426302 -3.194786078 0)
(95.48463324 -3.108623532 0)
(95.46493249 -3.11527352 0)
(95.18752446 -2.861156827 0)
(95.19467457 -2.857946079 0)
(95.10851463 -2.777519489 0)
(95.11947964 -2.769427012 0)
(94.99668713 -2.430613786 0)
(94.93582292 -2.459865247 0)
(94.81729038 -2.304378117 0)
(94.88316584 -2.268885111 0)
(94.93655461 -2.025148965 0)
(94.85027162 -2.072247561 0)
(94.74511637 -1.926154721 0)
(94.8286343 -1.868448422 0)
(94.67827846 -1.222781147 0)
(94.51885597 -1.351724583 0)
(94.65513267 -1.595143281 0)
(94.77891775 -1.660116297 0)
(94.64589254 -0.8157900138 0)
(94.47778006 -0.9767673742 0)
(94.62681019 -0.4076054235 0)
(94.45041939 -0.583546419 0)
(94.43802873 -0.1950555271 0)
(99.46735341 -3.511449484 -2.201040257e-35)
(99.65957967 -3.459457365 -1.132133163e-37)
(99.4562551 -3.400163534 -2.201040257e-35)
(99.2679208 -3.447641525 -2.20078708e-35)
(98.00844763 -3.430413003 0)
(98.16707897 -3.387479989 0)
(97.98227036 -3.320874233 0)
(97.83181078 -3.359609856 0)
(96.81797534 -3.287227951 0)
(96.93371867 -3.254404399 0)
(96.77850708 -3.183377451 0)
(96.67097243 -3.212384687 0)
(95.915874 -3.088107105 0)
(95.98989739 -3.066439759 0)
(95.86422413 -2.9930926 0)
(95.79734569 -3.01145095 0)
(95.28027525 -2.839242865 0)
(95.31686237 -2.828997384 0)
(95.21806412 -2.755202722 0)
(95.18744321 -2.762763129 0)
(94.88324398 -2.549447735 0)
(94.87961634 -2.548874469 0)
(94.80660655 -2.476855184 0)
(94.80746425 -2.471718169 0)
(94.65045162 -2.183505387 0)
(94.60905886 -2.205310196 0)
(94.49522365 -2.068189869 0)
(94.54403044 -2.040059378 0)
(94.57082672 -1.830291404 0)
(94.50100808 -1.868448355 0)
(94.40230736 -1.73805494 0)
(94.47117855 -1.689047938 0)
(94.31688797 -1.111270914 0)
(94.17849548 -1.224785175 0)
(94.30870849 -1.443164399 0)
(94.41843599 -1.504012064 0)
(94.2812653 -0.7433643567 0)
(94.13216905 -0.8882889769 0)
(94.26088305 -0.3720242776 0)
(94.10160196 -0.5313564877 0)
(94.08854953 -0.1779488335 0)
(99.42226089 -3.092610248 1.939642446e-35)
(99.61986712 -3.049745773 0)
(99.41076873 -2.998165163 0)
(99.21587923 -3.037513452 0)
(97.90874044 -3.018077177 0)
(98.07527874 -2.982146476 0)
(97.88572928 -2.925080094 0)
(97.72768047 -2.957652902 0)
(96.6696674 -2.895420156 0)
(96.79428065 -2.867317595 0)
(96.63622822 -2.806742023 0)
(96.52013033 -2.831724981 0)
(95.72237444 -2.728214914 0)
(95.80601098 -2.708906362 0)
(95.67900149 -2.646249366 0)
(95.60294969 -2.662740254 0)
(95.04668678 -2.519279521 0)
(95.09292583 -2.509293817 0)
(94.9941575 -2.445810595 0)
(94.95437279 -2.453380508 0)
(94.62498358 -2.272266016 0)
(94.61203342 -2.273084953 0)
(94.54956499 -2.209159898 0)
(94.54156568 -2.205774706 0)
(94.35052266 -1.958547929 0)
(94.32670011 -1.975238101 0)
(94.21554581 -1.854608661 0)
(94.24872177 -1.831545988 0)
(94.24888414 -1.649619157 0)
(94.19453695 -1.681228568 0)
(94.10022956 -1.565250647 0)
(94.1552818 -1.522975582 0)
(93.9922599 -1.0066689 0)
(93.87412993 -1.107361816 0)
(94.00052147 -1.302783547 0)
(94.09789765 -1.358554913 0)
(93.95129228 -0.6748902477 0)
(93.82049655 -0.8055484746 0)
(93.92828068 -0.3382343594 0)
(93.78536504 -0.4823701431 0)
(93.77081255 -0.1618396868 0)
(99.3760577 -2.73656188 7.865912127e-36)
(99.57777814 -2.701095719 6.986071361e-38)
(99.36445077 -2.656053643 7.865912127e-36)
(99.16455592 -2.688741233 7.866834288e-36)
(97.82061799 -2.667482371 0)
(97.99334104 -2.637399202 0)
(97.80009839 -2.588210038 0)
(97.63608808 -2.615557686 0)
(96.54323184 -2.560589525 0)
(96.67481385 -2.536685925 0)
(96.51442112 -2.48469903 0)
(96.3915338 -2.506019844 0)
(95.55900745 -2.417837983 0)
(95.65039298 -2.400972216 0)
(95.52204256 -2.347169066 0)
(95.43850997 -2.361626846 0)
(94.84862154 -2.240005818 0)
(94.90292785 -2.230823536 0)
(94.80374441 -2.17602884 0)
(94.75621909 -2.183055347 0)
(94.40362462 -2.02766187 0)
(94.38258417 -2.029038503 0)
(94.32867397 -1.972729331 0)
(94.31290519 -1.970279929 0)
(94.08937641 -1.756345553 0)
(94.08122935 -1.76970762 0)
(93.97135327 -1.663677626 0)
(93.99036531 -1.644063895 0)
(93.9648085 -1.484974189 0)
(93.92472335 -1.511838519 0)
(93.83329029 -1.408904184 0)
(93.87555525 -1.371828366 0)
(93.70085784 -0.9104639277 0)
(93.60177123 -1.000585831 0)
(93.72600252 -1.175257879 0)
(93.81260673 -1.225496614 0)
(93.65327025 -0.6115170096 0)
(93.53964983 -0.729629924 0)
(93.62677698 -0.3068480759 0)
(93.49915837 -0.437299211 0)
(93.48254307 -0.146971195 0)
(99.32967795 -2.432749187 6.939230732e-36)
(99.53458194 -2.40340232 0)
(99.31813179 -2.363992597 0)
(99.11437312 -2.391109676 0)
(97.741693 -2.368355907 0)
(97.9193349 -2.343230371 0)
(97.72319276 -2.300671327 0)
(97.55442099 -2.323533739 0)
(96.43371324 -2.273918704 0)
(96.57086052 -2.253746679 0)
(96.40854611 -2.208944862 0)
(96.2801959 -2.226952606 0)
(95.41909193 -2.150329686 0)
(95.51679871 -2.135864226 0)
(95.38718348 -2.089496755 0)
(95.29748658 -2.101893031 0)
(94.67872354 -1.997130236 0)
(94.73981957 -1.989054352 0)
(94.63997741 -1.941644553 0)
(94.58587535 -1.947802557 0)
(94.21214871 -1.813189155 0)
(94.18407371 -1.814584505 0)
(94.13717802 -1.765321577 0)
(94.11460117 -1.763261849 0)
(93.8606957 -1.57648475 0)
(93.86647094 -1.587821693 0)
(93.75688789 -1.494644916 0)
(93.76316488 -1.477311164 0)
(93.7133323 -1.336967572 0)
(93.68623132 -1.360447802 0)
(93.59654553 -1.269199529 0)
(93.62713375 -1.236120276 0)
(93.43913027 -0.8233954755 0)
(93.35763921 -0.9048962862 0)
(93.4809277 -1.061000729 0)
(93.55817534 -1.105552429 0)
(93.38424469 -0.5538764487 0)
(93.28646396 -0.6610800288 0)
(93.35377151 -0.2782173404 0)
(93.24021863 -0.3965258431 0)
(93.22118601 -0.1334791081 0)
(99.28370815 -2.173217486 0)
(99.49108051 -2.149010277 0)
(99.27232537 -2.114499877 0)
(99.06557 -2.136891579 0)
(97.67027261 -2.112904245 0)
(97.85186928 -2.092029245 0)
(97.65343428 -2.055124484 0)
(97.4808155 -2.074101991 0)
(96.3375986 -2.028517898 0)
(96.47924497 -2.011661934 0)
(96.31534508 -1.972948382 0)
(96.18255087 -1.987969814 0)
(95.29777486 -1.920214088 0)
(95.40068589 -1.908036999 0)
(95.26990467 -1.867978066 0)
(95.17508808 -1.878365118 0)
(94.53147087 -1.786785709 0)
(94.59831102 -1.779965899 0)
(94.49767489 -1.73887159 0)
(94.43796148 -1.743984372 0)
(94.04510838 -1.626309521 0)
(94.01091443 -1.627383244 0)
(93.96978865 -1.584558733 0)
(93.94125347 -1.582525128 0)
(93.6592714 -1.417994073 0)
(93.67738768 -1.428246641 0)
(93.56739969 -1.346361765 0)
(93.56228313 -1.330442898 0)
(93.48986666 -1.205476191 0)
(93.47448735 -1.226609876 0)
(93.38569996 -1.14575955 0)
(93.40572844 -1.115717287 0)
(93.20362055 -0.7456908844 0)
(93.13814557 -0.8202550908 0)
(93.26143186 -0.9598936534 0)
(93.33060901 -0.9987946901 0)
(93.1411708 -0.5022323561 0)
(93.05775928 -0.6000544591 0)
(93.10647258 -0.2525049249 0)
(93.00563776 -0.3601862454 0)
(92.98398316 -0.12141793 0)
(99.23849443 -1.951756167 0)
(99.44777585 -1.931937501 0)
(99.22733326 -1.901737775 0)
(99.01825028 -1.920057492 0)
(97.6050705 -1.895017167 0)
(97.78987368 -1.877838786 0)
(97.58961711 -1.845821636 0)
(97.41386064 -1.861389859 0)
(96.25227404 -1.818861892 0)
(96.39759781 -1.804975584 0)
(96.23238226 -1.771488874 0)
(96.09593614 -1.783802797 0)
(95.19139383 -1.722911253 0)
(95.29862862 -1.71289706 0)
(95.16678458 -1.678249154 0)
(95.06768136 -1.686703005 0)
(94.40258008 -1.605509335 0)
(94.47431001 -1.600019222 0)
(94.3728115 -1.564366548 0)
(94.30828466 -1.568332903 0)
(93.89815771 -1.464549354 0)
(93.85862799 -1.465075009 0)
(93.82226943 -1.428113149 0)
(93.78851124 -1.425849353 0)
(93.4807265 -1.279576865 0)
(93.50977581 -1.28943169 0)
(93.39887997 -1.217462046 0)
(93.3835973 -1.202300448 0)
(93.29035619 -1.089909398 0)
(93.28549904 -1.109499697 0)
(93.19695874 -1.037857602 0)
(93.20750059 -1.010071708 0)
(92.99102987 -0.6772416299 0)
(92.93998332 -0.7463559457 0)
(93.06399874 -0.8714928518 0)
(93.12625065 -0.9048819993 0)
(92.92101752 -0.4565993969 0)
(92.85048821 -0.546468977 0)
(92.88201892 -0.2297429799 0)
(92.79254071 -0.3282622284 0)
(92.76816286 -0.1107906201 0)
(99.19423115 -1.76348345 0)
(99.40498359 -1.747480023 0)
(99.1833247 -1.721121928 0)
(98.97243561 -1.735871143 0)
(97.54507871 -1.70987866 0)
(97.7325004 -1.695969957 0)
(97.53079355 -1.668237457 0)
(97.35245645 -1.680764515 0)
(96.17574272 -1.640525304 0)
(96.32410381 -1.629333612 0)
(96.15778945 -1.60039487 0)
(96.01831279 -1.610224182 0)
(95.09712747 -1.554640802 0)
(95.20798746 -1.546678811 0)
(95.07517876 -1.516725976 0)
(94.97245632 -1.523316632 0)
(94.28867812 -1.450304798 0)
(94.36459983 -1.446187533 0)
(94.26221021 -1.41526414 0)
(94.19352846 -1.418014514 0)
(93.76778797 -1.325644678 0)
(93.72358757 -1.325455515 0)
(93.6911842 -1.293845156 0)
(93.65283611 -1.291154577 0)
(93.32139369 -1.159846286 0)
(93.36013355 -1.169816801 0)
(93.24795633 -1.106560446 0)
(93.22361079 -1.091637695 0)
(93.11125932 -0.9894563355 0)
(93.11581184 -1.008142854 0)
(93.02699948 -0.9446264237 0)
(93.02906272 -0.9184424769 0)
(92.79828847 -0.6177505729 0)
(92.7601125 -0.6827422157 0)
(92.88545701 -0.7951938512 0)
(92.94181288 -0.8232560406 0)
(92.72087619 -0.4168434792 0)
(92.66175631 -0.5000947421 0)
(92.67760896 -0.2098838262 0)
(92.59813365 -0.3006395982 0)
(92.57099822 -0.1015673015 0)
(99.15100662 -1.604508355 0)
(99.36288505 -1.591864633 0)
(99.14036471 -1.568957953 0)
(98.92808215 -1.580537331 0)
(97.48947327 -1.553641007 0)
(97.67904132 -1.542658444 0)
(97.47617189 -1.518716739 0)
(97.29570162 -1.528500162 0)
(96.10642467 -1.489928413 0)
(96.25731248 -1.481202361 0)
(96.09006425 -1.456256343 0)
(95.94805552 -1.463788362 0)
(95.01273752 -1.412275103 0)
(95.12665587 -1.406261877 0)
(94.99296039 -1.380414335 0)
(94.88716459 -1.385211137 0)
(94.18704053 -1.31861269 0)
(94.26657344 -1.315887396 0)
(94.16327416 -1.289099989 0)
(94.0909882 -1.29058996 0)
(93.65105075 -1.20757826 0)
(93.60275101 -1.206539158 0)
(93.5735943 -1.179844007 0)
(93.53121088 -1.176543899 0)
(93.17816741 -1.057451915 0)
(93.22554075 -1.067947715 0)
(93.111741 -1.012390138 0)
(93.07931257 -0.9972404596 0)
(92.94945378 -0.9032245746 0)
(92.96239398 -0.9215350008 0)
(92.8728761 -0.8651621221 0)
(92.86739348 -0.8400222788 0)
(92.62249266 -0.5668156307 0)
(92.59570705 -0.6289121005 0)
(92.72292037 -0.7303390819 0)
(92.77430211 -0.7532931921 0)
(92.53792863 -0.38274369 0)
(92.48882929 -0.4606251967 0)
(92.49048073 -0.1928306513 0)
(92.41972892 -0.2771550067 0)
(92.3898428 -0.09370176417 0)
(99.10883477 -1.471700779 -1.329604692e-36)
(99.32156797 -1.462061648 -1.352152631e-38)
(99.09845537 -1.442288344 -2.587704507e-36)
(98.88510379 -1.451011197 -1.329451752e-36)
(97.4375545 -1.423204275 0)
(97.6288896 -1.414880591 0)
(97.42508082 -1.394329811 0)
(97.24283718 -1.401600248 0)
(96.04302727 -1.364158521 0)
(96.19603349 -1.357719426 0)
(96.02797554 -1.336314618 0)
(95.88383534 -1.341694668 0)
(94.93640086 -1.293222988 0)
(95.05291717 -1.289076279 0)
(94.91839559 -1.266849482 0)
(94.80997364 -1.269907041 0)
(94.09544039 -1.208270989 0)
(94.17810464 -1.206948141 0)
(94.07389153 -1.183803643 0)
(93.99845987 -1.184005737 0)
(93.54557393 -1.10874386 0)
(93.49357935 -1.106838778 0)
(93.46728531 -1.084714698 0)
(93.42120002 -1.080750022 0)
(93.0482846 -0.9712696898 0)
(93.10340822 -0.9826593535 0)
(92.98754837 -0.9339389998 0)
(92.94800429 -0.9180014754 0)
(92.80214672 -0.8303079145 0)
(92.82254281 -0.8487149517 0)
(92.73194447 -0.7985825238 0)
(92.71978567 -0.7739798406 0)
(92.46111768 -0.5240070371 0)
(92.44425676 -0.5843117216 0)
(92.57379921 -0.6762129884 0)
(92.62106664 -0.6942419198 0)
(92.36968813 -0.3540503557 0)
(92.32917217 -0.427731544 0)
(92.31818487 -0.1784738784 0)
(92.25480156 -0.2576206845 0)
(92.22218463 -0.08713591796 0)
(99.06768647 -1.362568804 0)
(99.28105865 -1.355649006 0)
(99.0575525 -1.338742468 0)
(98.84338778 -1.344859849 0)
(97.38872107 -1.316097259 0)
(97.58151363 -1.310218351 0)
(97.3769307 -1.292724791 0)
(97.19320806 -1.297665508 0)
(95.9844721 -1.260874039 0)
(96.1392628 -1.256578587 0)
(95.97047776 -1.238336541 0)
(95.82453514 -1.241679575 0)
(94.86660397 -1.195363465 0)
(94.98533361 -1.193016474 0)
(94.85001904 -1.173999071 0)
(94.7393486 -1.175359398 0)
(94.01204027 -1.117434687 0)
(94.09741655 -1.117518402 0)
(93.99227517 -1.097582182 0)
(93.91411032 -1.096475117 0)
(93.44948498 -1.027521574 0)
(93.3942296 -1.024788588 0)
(93.37036215 -1.006797729 0)
(93.32100618 -1.002111192 0)
(92.92921099 -0.9002367654 0)
(92.99111653 -0.9125736924 0)
(92.87308271 -0.869955508 0)
(92.82725958 -0.8528212913 0)
(92.66683138 -0.7698656971 0)
(92.69383553 -0.7887636659 0)
(92.60186373 -0.7440506504 0)
(92.58377946 -0.719601151 0)
(92.31119008 -0.4888620642 0)
(92.30315447 -0.5486545427 0)
(92.43565406 -0.6323767395 0)
(92.47945988 -0.6457571279 0)
(92.21315855 -0.3304884311 0)
(92.18039615 -0.4010989475 0)
(92.15768147 -0.1666711085 0)
(92.10092014 -0.2418899129 0)
(92.06561398 -0.08183387531 0)
(99.02748847 -1.275107297 0)
(99.24133386 -1.270688076 0)
(99.0175752 -1.256434116 0)
(98.8027944 -1.260136338 0)
(97.3424246 -1.23032827 0)
(97.53642484 -1.226734519 0)
(97.33118599 -1.212027235 0)
(97.14622221 -1.214771904 0)
(95.92981071 -1.178174669 0)
(96.08611529 -1.175921301 0)
(95.91665164 -1.160531627 0)
(95.76917383 -1.161914801 0)
(94.80201681 -1.116950901 0)
(94.92264216 -1.116366067 0)
(94.78654148 -1.100216762 0)
(94.67393565 -1.09989414 0)
(93.93516327 -1.044526999 0)
(94.02289173 -1.046048998 0)
(93.91677893 -1.028955278 0)
(93.83623352 -1.026480314 0)
(93.36071875 -0.9623098369 0)
(93.302737 -0.9584709593 0)
(93.28041695 -0.9442830459 0)
(93.22840103 -0.9385524013 0)
(92.81898981 -0.8429361642 0)
(92.88676603 -0.8564031536 0)
(92.76667489 -0.8191371377 0)
(92.71511349 -0.8007103393 0)
(92.54124029 -0.7209816104 0)
(92.57406673 -0.7407881392 0)
(92.48019894 -0.7007719086 0)
(92.4571203 -0.6758054351 0)
(92.17240271 -0.461090064 0)
(92.17113585 -0.5206275035 0)
(92.30635275 -0.5975715472 0)
(92.34789938 -0.6056789881 0)
(92.06807338 -0.3118995298 0)
(92.04024673 -0.3803939181 0)
(92.00881776 -0.1573952745 0)
(91.95578693 -0.2297173482 0)
(91.91775703 -0.0776910752 0)
(98.9881414 -1.207754655 -5.05503796e-36)
(99.20234109 -1.205677346 0)
(98.97842238 -1.19391082 -4.160330093e-36)
(98.76317147 -1.195332371 0)
(97.29816267 -1.164341993 0)
(97.49317235 -1.162924796 0)
(97.28735779 -1.150788655 0)
(97.10134126 -1.151423845 0)
(95.8782004 -1.114570676 0)
(96.03580336 -1.114298909 0)
(95.86568194 -1.101511278 0)
(95.71688195 -1.100974278 0)
(94.74146462 -1.056617907 0)
(94.86372966 -1.057788071 0)
(94.72683043 -1.044229152 0)
(94.61254175 -1.042211462 0)
(93.86330697 -0.9883728542 0)
(93.95310144 -0.9913836655 0)
(93.84597151 -0.9768390122 0)
(93.76332017 -0.9729314364 0)
(93.27749892 -0.9124293495 0)
(93.21702083 -0.9073086076 0)
(93.19597342 -0.8967986824 0)
(93.14142809 -0.8900265178 0)
(92.71585901 -0.7985268408 0)
(92.78893208 -0.8138428946 0)