/*--------------------------------*- C++ -*----------------------------------*\
| =========                 |                                                 |
| \\      /  F ield         | OpenFOAM: The Open Source CFD Toolbox           |
|  \\    /   O peration     | Version:  v2012                                 |
|   \\  /    A nd           | Website:  www.openfoam.com                      |
|    \\/     M anipulation  |                                                 |
\*---------------------------------------------------------------------------*/
FoamFile
{
    version     2.0;
    format      ascii;
    class       pointVectorField;
    location    "0.57";
    object      pointDisplacement;
}
// * * * * * * * * * * * * * * * * * * * * * * * * * * * * * * * * * * * * * //

dimensions      [0 1 0 0 0 0 0];


internalField   nonuniform List<vector> 
7018
(
(0 0 0)
(0 0 0)
(0 0 0)
(0 0 0)
(0 0 0)
(0 0 0)
(0 0 0)
(0 0 0)
(0 0 0)
(0 0 0)
(0 0 0)
(0 0 0)
(0 0 0)
(0 0 0)
(0 0 0)
(0 0 0)
(0 0 0)
(0 0 0)
(0 0 0)
(0 0 0)
(0 0 0)
(0 0 0)
(0 0 0)
(0 0 0)
(0 0 0)
(0 0 0)
(0 0 0)
(0 0 0)
(0 0 0)
(0 0 0)
(0 0 0)
(0 0 0)
(0 0 0)
(0 0 0)
(0 0 0)
(0 0 0)
(0 0 0)
(0 0 0)
(0 0 0)
(0 0 0)
(0 0 0)
(0 0 0)
(0 0 0)
(0 0 0)
(-3.120113596e-07 2.707749373e-05 3.330669074e-16)
(1.439962782e-06 2.301841082e-05 2.91433544e-16)
(0 0 0)
(0 0 0)
(0 0 0)
(0 0 0)
(0 0 0)
(0 0 0)
(0 0 0)
(0 0 0)
(0 0 0)
(0 0 0)
(0 0 0)
(0 0 0)
(0 0 0)
(0 0 0)
(0 0 0)
(0 0 0)
(0 0 0)
(0 0 0)
(0 0 0)
(0 0 0)
(0 0 0)
(0 0 0)
(0 0 0)
(0 0 0)
(0 0 0)
(0 0 0)
(0 0 0)
(0 0 0)
(0 0 0)
(0 0 0)
(0 0 0)
(0 0 0)
(0 0 0)
(0 0 0)
(0 0 0)
(-2.146517627e-05 0.002221768982 3.522182546e-14)
(-2.463541523e-05 0.003353250731 5.823119764e-14)
(0.0003141999857 0.003308939133 5.749567489e-14)
(0.0001829538657 0.002185025989 3.465283616e-14)
(0.0006080559928 0.00167414181 2.656208586e-14)
(0.001078139445 0.002688727688 4.676814491e-14)
(0.00118076427 0.002348941132 4.085620731e-14)
(0.000639211807 0.001401384517 2.223221607e-14)
(0.0003756843764 0.0005113711411 8.118505868e-15)
(0.0009325828667 0.00115543665 2.009503675e-14)
(0.0007014385239 0.0007721102923 1.34336986e-14)
(0.000219443225 0.0002651783433 4.204969706e-15)
(0 0 0)
(3.694384551e-05 3.044215732e-05 5.273559367e-16)
(0 0 0)
(0 0 0)
(0 0 0)
(0 0 0)
(0 0 0)
(0 0 0)
(0 0 0)
(0 0 0)
(0 0 0)
(0 0 0)
(0 0 0)
(0 0 0)
(0 0 0)
(0 0 0)
(0 0 0)
(0 0 0)
(0 0 0)
(0 0 0)
(0 0 0)
(0 0 0)
(0 0 0)
(0 0 0)
(0 0 0)
(0 0 0)
(3.196380111e-05 0.006156193589 1.498523527e-13)
(7.554405108e-05 0.006553521662 1.84172122e-13)
(0.001151281823 0.006495609062 1.828953655e-13)
(0.0009066397381 0.006099411607 1.486727408e-13)
(0.003101016221 0.005360320084 1.311450948e-13)
(0.003904364693 0.005786224843 1.637995295e-13)
(0.004526900901 0.005386630663 1.526834215e-13)
(0.003566786696 0.004944063432 1.21055943e-13)
(0.003833619956 0.003338931161 8.18373147e-14)
(0.005098141809 0.003819449428 1.084549117e-13)
(0.004823392663 0.003219429352 9.138523271e-14)
(0.003532434894 0.002739445417 6.712685963e-14)
(0.001799440492 0.00105141903 2.570166302e-14)
(0.002878619297 0.001450623496 4.107825191e-14)
(0.002034225172 0.0009480992426 2.681188604e-14)
(0.001129196857 0.0006097355166 1.489086632e-14)
(0 0 0)
(9.764334726e-05 3.700890525e-05 1.040834086e-15)
(0 0 0)
(0 0 0)
(0 0 0)
(0 0 0)
(0 0 0)
(0 0 0)
(0 0 0)
(0 0 0)
(0 0 0)
(0 0 0)
(0 0 0)
(0 0 0)
(0 0 0)
(0 0 0)
(0 0 0)
(0 0 0)
(0 0 0)
(0 0 0)
(0 0 0)
(0 0 0)
(0.0002298648203 0.005367559003 2.81163981e-13)
(0.0002682066161 0.004180558261 3.075595334e-13)
(0.002070237793 0.004128348162 3.063382881e-13)
(0.001875781602 0.005312861084 2.798594689e-13)
(0.006293905933 0.004847730492 2.594868764e-13)
(0.006981357575 0.003771426748 2.870065297e-13)
(0.008288810825 0.003586581034 2.749050987e-13)
(0.007429842934 0.004595568989 2.470801341e-13)
(0.009193301351 0.003576586542 1.938449401e-13)
(0.01051240199 0.002844023894 2.210731598e-13)
(0.01055553847 0.002543683723 1.979805209e-13)
(0.009130151538 0.003166090015 1.71682113e-13)
(0.006965769141 0.001827544686 9.867107131e-14)
(0.008682446733 0.001564391055 1.223882107e-13)
(0.007482002888 0.001240806877 9.744982599e-14)
(0.005929683472 0.001431242113 7.745193376e-14)
(0.00205415478 0.0004053487058 2.184363801e-14)
(0.003070172927 0.0004227476576 3.264055692e-14)
(0.001732251513 0.0002260822361 1.734723476e-14)
(0.0009898659146 0.0001845509178 9.908740495e-15)
(0 0 0)
(0 0 0)
(0 0 0)
(0 0 0)
(0 0 0)
(0 0 0)
(0 0 0)
(0 0 0)
(0 0 0)
(0 0 0)
(0 0 0)
(0 0 0)
(0 0 0)
(0 0 0)
(0 0 0)
(0 0 0)
(0 0 0)
(0 0 0)
(0.0002739754444 -0.001029576192 3.55590557e-13)
(0.0002363531991 -0.003014270036 3.592681708e-13)
(0.002355151023 -0.003063408567 3.592126596e-13)
(0.00236559791 -0.001076547665 3.551048344e-13)
(0.008442361841 -0.001191539878 3.451822161e-13)
(0.008667693067 -0.003182997906 3.54480334e-13)
(0.01058460334 -0.00318293171 3.486377853e-13)
(0.01023539269 -0.001210335842 3.370498325e-13)
(0.01397347583 -0.001151076759 2.910449659e-13)
(0.01485619996 -0.002981164156 3.082811784e-13)
(0.01556759082 -0.002835800768 2.879085859e-13)
(0.01449169376 -0.001112373384 2.685213163e-13)
(0.01336912329 -0.0007976368137 1.874334021e-13)
(0.01473321604 -0.002037370005 2.064459714e-13)
(0.01349109515 -0.001714372539 1.749711487e-13)
(0.01210073943 -0.0006567781794 1.57027169e-13)
(0.006585661187 -0.0002690617159 6.986078382e-14)
(0.007762758197 -0.0007783660101 8.22952817e-14)
(0.005595583703 -0.0005216595949 5.589972929e-14)
(0.004584444189 -0.0001709409514 4.582445534e-14)
(0.0003025598653 -9.008955941e-06 2.567390744e-15)
(0.000519779769 -4.024296686e-05 4.427014311e-15)
(1.319489654e-05 -9.720055389e-07 1.110223025e-16)
(0 0 0)
(0 0 0)
(0 0 0)
(0 0 0)
(0 0 0)
(0 0 0)
(0 0 0)
(0 0 0)
(0 0 0)
(0 0 0)
(0 0 0)
(0 0 0)
(0 0 0)
(0 0 0)
(0 0 0)
(9.741413388e-05 -0.008936219049 0)
(7.453659069e-05 -0.009923139904 0)
(0.001155765857 -0.009947338108 0)
(0.00117278555 -0.008960374324 0)
(0.008789847406 -0.009218641375 0)
(0.008798619616 -0.01023300511 0)
(0.008814696339 -0.01126325031 0)
(0.00988953748 -0.0113191884 0)
(0.01094921817 -0.01135522776 0)
(0.01094960141 -0.009318642276 0)
(0.01654619079 -0.009110838108 3.435030038e-13)
(0.01679897269 -0.01120496691 3.493594303e-13)
(0.01808138516 -0.01078972702 3.353567424e-13)
(0.01769322247 -0.008720417949 3.277378369e-13)
(0.01788965855 -0.006690028524 2.506744812e-13)
(0.0185323222 -0.008399745923 2.597366766e-13)
(0.01759483841 -0.007370352091 2.280953204e-13)
(0.01679765735 -0.005803501448 2.177563685e-13)
(0.01084102934 -0.003028323414 1.147693052e-13)
(0.0118562852 -0.004015511834 1.255107129e-13)
(0.009342020104 -0.002966917903 9.318934513e-14)
(0.008413916383 -0.002202707927 8.394673845e-14)
(0.001873512895 -0.0004114390329 1.591782262e-14)
(0.00234182217 -0.0006249281929 1.990074772e-14)
(0.0008389805853 -0.0002126639176 6.800116026e-15)
(0.0005708317819 -0.0001190551731 4.62130334e-15)
(0 0 0)
(0 0 0)
(0 0 0)
(0 0 0)
(0 0 0)
(0 0 0)
(0 0 0)
(0 0 0)
(0 0 0)
(0 0 0)
(0 0 0)
(0 0 0)
(0 0 0)
(0 0 0)
(0.008744777437 -0.01732314098 0)
(0.008727479279 -0.01833175595 0)
(0.009780125125 -0.01836024318 0)
(0.009798497327 -0.01735314666 0)
(0.01709299108 -0.01747675613 3.575056917e-13)
(0.01709008738 -0.01951257581 3.583799923e-13)
(0.01879873781 -0.01916055382 3.510941537e-13)
(0.01873355724 -0.01710743143 3.490818745e-13)
(0.02032053654 -0.01403061179 2.855771175e-13)
(0.02055757877 -0.01582698865 2.892963646e-13)
(0.019849148 -0.01411300017 2.581823644e-13)
(0.01957344937 -0.01248282264 2.542965838e-13)
(0.013915625 -0.007184519446 1.474098621e-13)
(0.01422810305 -0.008191290261 1.508099201e-13)
(0.01155384511 -0.006246527739 1.153382945e-13)
(0.01125758373 -0.005456558645 1.123268145e-13)
(0.003397736181 -0.001388349522 2.886579864e-14)
(0.003836827089 -0.001750903066 3.261280135e-14)
(0.001829885276 -0.0007936029658 1.480759959e-14)
(0.001506392676 -0.0005849463251 1.219857548e-14)
(0 0 0)
(0 0 0)
(0 0 0)
(0 0 0)
(0 0 0)
(0 0 0)
(0 0 0)
(0 0 0)
(0 0 0)
(0 0 0)
(0 0 0)
(0 0 0)
(0 0 0)
(0 0 0)
(0.008582745947 -0.02536940197 0)
(0.008559800774 -0.02637240366 0)
(0.009609988507 -0.026397271 0)
(0.009633106696 -0.02539478167 0)
(0.01699219684 -0.02556701867 3.592265374e-13)
(0.01694557613 -0.02757117159 3.592681708e-13)
(0.01883216489 -0.02729802312 3.5513259e-13)
(0.01885107021 -0.02528153071 3.545913563e-13)
(0.02115798723 -0.02137111381 2.990940828e-13)
(0.02125305888 -0.02317933732 3.009259508e-13)
(0.02076157487 -0.02089719465 2.714078962e-13)
(0.02062648352 -0.01923160077 2.692707168e-13)
(0.01534896369 -0.01158559103 1.6298074e-13)
(0.01556963641 -0.01268318366 1.654371085e-13)
(0.01292348387 -0.009887361336 1.292577156e-13)
(0.01269315722 -0.008998108964 1.268707361e-13)
(0.004399484084 -0.00263250217 3.740063814e-14)
(0.004578260038 -0.00295695133 3.89271948e-14)
(0.002360994423 -0.001449589558 1.91235916e-14)
(0.002225812449 -0.001266039842 1.802724636e-14)
(0 0 0)
(0 0 0)
(0 0 0)
(0 0 0)
(0 0 0)
(0 0 0)
(0 0 0)
(0 0 0)
(0 0 0)
(0 0 0)
(0 0 0)
(0 0 0)
(0 0 0)
(0 0 0)
(0.008387840071 -0.03338437268 0)
(0.008361933935 -0.03438351641 0)
(0.009410959174 -0.0344066932 0)
(0.009436996406 -0.03340787599 0)
(0.01679068218 -0.03356807239 3.592404152e-13)
(0.01673483366 -0.03555516841 3.591710263e-13)
(0.01858643127 -0.03511400411 3.542999227e-13)
(0.01866254881 -0.03319287066 3.547717675e-13)
(0.02105706409 -0.02808421863 2.997047055e-13)
(0.02094377485 -0.02963747291 2.986083603e-13)
(0.02044513072 -0.02667364927 2.688405054e-13)
(0.02056268772 -0.02529125786 2.699923618e-13)
(0.01537852833 -0.01528759637 1.637856517e-13)
(0.01526983532 -0.01609243293 1.627586954e-13)
(0.01264172792 -0.01250969123 1.26745836e-13)
(0.01274140401 -0.01189393345 1.2766177e-13)
(0.004454128583 -0.003510582077 3.79002385e-14)
(0.004395801994 -0.003672647721 3.741451593e-14)
(0.002226980498 -0.001769021934 1.804112415e-14)
(0.002268132641 -0.00169961036 1.837419106e-14)
(0 0 0)
(0 0 0)
(0 0 0)
(0 0 0)
(0 0 0)
(0 0 0)
(0 0 0)
(0 0 0)
(0 0 0)
(0 0 0)
(0 0 0)
(0 0 0)
(0 0 0)
(0 0 0)
(0.00817304971 -0.04136588729 0)
(0.008144311868 -0.04236357918 0)
(0.009192345494 -0.04238567013 0)
(0.009221307877 -0.04138826072 0)
(0.01653105092 -0.04143573486 3.58338359e-13)
(0.01644195227 -0.04333472957 3.57616714e-13)
(0.01810056052 -0.04232675369 3.489986078e-13)
(0.01825827722 -0.04062785425 3.510386426e-13)
(0.0201907745 -0.03352525939 2.893796314e-13)
(0.01976422677 -0.0344386323 2.837452495e-13)
(0.01920894371 -0.03082383262 2.540467836e-13)
(0.01955985723 -0.02991481165 2.583211423e-13)
(0.0141435197 -0.0174421929 1.511013537e-13)
(0.01378562449 -0.01782609185 1.473682287e-13)
(0.01118134968 -0.01357096924 1.123545701e-13)
(0.01151471847 -0.01332968071 1.15629728e-13)
(0.003592792511 -0.003511353274 3.060052212e-14)
(0.00339988028 -0.003483530187 2.896294315e-14)
(0.001511701816 -0.001472890992 1.225408663e-14)
(0.001641082734 -0.001525143548 1.330879851e-14)
(0 0 0)
(0 0 0)
(0 0 0)
(0 0 0)
(0 0 0)
(0 0 0)
(0 0 0)
(0 0 0)
(0 0 0)
(0 0 0)
(0 0 0)
(0 0 0)
(0 0 0)
(0 0 0)
(0.007935926776 -0.049327892 0)
(0.007904354798 -0.05032223723 0)
(0.008952038122 -0.05034348824 0)
(0.008983933424 -0.04934915049 0)
(0.01610334935 -0.04876238714 3.539252225e-13)
(0.0159522135 -0.05042137078 3.518574321e-13)
(0.01733003912 -0.04846726369 3.380351554e-13)
(0.01756380103 -0.04709472689 3.416017469e-13)
(0.01856209926 -0.03692516008 2.67758038e-13)
(0.01824354757 -0.03780515902 2.635947016e-13)
(0.01730276641 -0.03296954964 2.299826996e-13)
(0.01785481212 -0.03267716415 2.370464935e-13)
(0.01217806683 -0.01793037516 1.304234498e-13)
(0.01141398632 -0.01748434407 1.222910662e-13)
(0.008851011626 -0.012722258 8.909539773e-14)
(0.009617276105 -0.01328770421 9.678369217e-14)
(0.002412107238 -0.002813354212 2.056688153e-14)
(0.002106584744 -0.002556550314 1.795785742e-14)
(0.000684224091 -0.000789845425 5.551115123e-15)
(0.0008612093362 -0.0009553747577 6.994405055e-15)
(0 0 0)
(0 0 0)
(0 0 0)
(0 0 0)
(0 0 0)
(0 0 0)
(0 0 0)
(0 0 0)
(0 0 0)
(0 0 0)
(0 0 0)
(0 0 0)
(0 0 0)
(0 0 0)
(0.008605470076 -0.02436796645 0)
(0.007555244396 -0.02434074133 0)
(0.007543872578 -0.02484088119 0)
(0.007532738405 -0.02534273646 0)
(0.007688930649 -0.01728718144 0)
(0.00767407674 -0.01830001628 0)
(0.008413589201 -0.03238402376 0)
(0.007364987135 -0.03236053325 0)
(0.007352267295 -0.03286101168 0)
(0.007339412089 -0.03336134834 0)
(0.007521502249 -0.02584500529 0)
(0.007510170512 -0.02634741055 0)
(0.008200611479 -0.0403690925 0)
(0.007152705747 -0.04034746663 0)
(0.007139113355 -0.04084570664 0)
(0.007125298555 -0.04134357179 0)
(0.007326463438 -0.03386172905 0)
(0.00731359086 -0.03436081753 0)
(0.007967489148 -0.04833396248 0)
(0.006920215122 -0.04831299821 0)
(0.006888037349 -0.0493075605 0)
(0.007096689675 -0.04234168258 0)
(0.006857942355 -0.05030198607 0)
(-0.0009636402315 -0.008912394597 0)
(-0.0009894984018 -0.009899662503 0)
(0.00875913664 -0.01630971565 0)
(0.007703253894 -0.01627531221 0)
(0.007711697662 -0.009175890183 0)
(0.007716759686 -0.0101828202 0)
(0.004464498267 -0.02124122705 0)
(0.004468990501 -0.02098781601 0)
(0.0042039471 -0.02098153918 0)
(0.004198730368 -0.02123510447 0)
(0.004521252038 -0.0171774857 0)
(0.003992323902 -0.01715778829 0)
(0.003989535611 -0.01767105756 0)
(0.004517766362 -0.01768933581 0)
(0.009656191799 -0.0243937242 0)
(0.01703649592 -0.02356393941 3.591432707e-13)
(0.01493722166 -0.02351979952 0)
(0.0148898353 -0.02552054616 0)
(0.01506923784 -0.01750451569 0)
(0.01502662462 -0.01950869447 0)
(0.004233403145 -0.02928076524 0)
(0.004240377031 -0.02903035536 0)
(0.003941923297 -0.02902378252 0)
(0.00393504144 -0.02927400967 0)
(0.004372389503 -0.02526823181 0)
(0.004097771813 -0.02526290295 0)
(0.00409958096 -0.02551360821 0)
(0.004370550411 -0.02551922247 0)
(0.009462832577 -0.03240776015 0)
(0.01684441563 -0.03157316381 3.592681708e-13)
(0.01474090729 -0.03152572599 0)
(0.01468858694 -0.03352400172 0)
(0.01484162957 -0.0275227527 0)
(0.004094318046 -0.03729097179 0)
(0.004099104685 -0.03704101972 0)
(0.003834964118 -0.03703547082 0)
(0.003831650912 -0.03728545693 0)
(0.004189500399 -0.03329055089 0)
(0.003920033547 -0.03328390843 0)
(0.00390617075 -0.03353365077 0)
(0.004179280137 -0.03354065469 0)
(0.009249242361 -0.0403913359 0)
(0.01660748587 -0.03949931867 3.587824482e-13)
(0.01452622241 -0.03950867566 0)
(0.01446989339 -0.04150043505 0)
(0.01463557316 -0.03551828704 0)
(0.003874783894 -0.04526618414 0)
(0.003889789655 -0.04476857757 0)
(0.003368304337 -0.04475837622 0)
(0.003353840405 -0.04525613395 0)
(0.003988434389 -0.04127931469 0)
(0.003465688126 -0.04126848342 0)
(0.003458488999 -0.04151824111 0)
(0.00345191199 -0.0417684753 0)
(0.003974668944 -0.0417782439 0)
(-0.000531966106 -0.05315032728 0)
(-0.0002717336122 -0.05315504645 0)
(-0.0002683941276 -0.05290552308 0)
(-0.0005311405328 -0.05290009882 0)
(0.003620214467 -0.05322122337 0)
(0.003637648689 -0.05272431991 0)
(0.003116462147 -0.05271518838 0)
(0.003099438658 -0.05321191647 0)
(0.003753593402 -0.04924636322 0)
(0.003233115705 -0.04923655486 0)
(0.003217263984 -0.04973377217 0)
(0.003737968007 -0.04974358576 0)
(0.004375930139 -0.02501700317 0)
(0.00409907973 -0.02501190001 0)
(0.004194014097 -0.02148801122 0)
(0.004459518796 -0.02149392438 0)
(0.00867003802 -0.02135364988 0)
(0.007618373672 -0.02132468623 0)
(0.007608194849 -0.0218271967 0)
(0.007598205026 -0.02233152773 0)
(0.008649200978 -0.02235941765 0)
(0.004455383506 -0.02174588794 0)
(0.004981809533 -0.02175966949 0)
(0.004991416715 -0.02125589804 0)
(0.004641946985 -0.02527395209 0)
(0.004646553172 -0.02502260944 0)
(0.004199891193 -0.03304086695 0)
(0.003934121236 -0.03303463341 0)
(0.003931227239 -0.02952467742 0)
(0.004229197036 -0.02953179364 0)
(0.008488518004 -0.02937931875 0)
(0.007963903253 -0.02936715032 0)
(0.007951713134 -0.0298687039 0)
(0.008476237642 -0.02988077782 0)
(0.00451965045 -0.02953859754 0)
(0.004524529502 -0.02928744605 0)
(0.004456007247 -0.03329689389 0)
(0.004464185233 -0.03304697397 0)
(0.004638085159 -0.02552508087 0)
(0.004531104744 -0.02903688832 0)
(0.008500643789 -0.02887854931 0)
(0.007975982849 -0.02886637982 0)
(0.004001972421 -0.04078102722 0)
(0.003478834968 -0.04077032555 0)
(0.003472280023 -0.04101940492 0)
(0.00382575325 -0.0375352909 0)
(0.004087988692 -0.03754088821 0)
(0.008282493426 -0.0373794752 0)
(0.007234216047 -0.03735793318 0)
(0.007220885848 -0.03785682623 0)
(0.007207481413 -0.03835493193 0)
(0.008255523578 -0.03837665338 0)
(0.004081204218 -0.03779010091 0)
(0.004604584339 -0.03780090061 0)
(0.004617911337 -0.03730214612 0)
(0.004510696733 -0.04129008856 0)
(0.004524381504 -0.04079185069 0)
(0.004447912034 -0.03354723164 0)
(0.004630833306 -0.03680292014 0)
(0.004368291249 -0.03679699225 0)
(0.004104433503 -0.03679140367 0)
(0.00830887349 -0.03638182126 0)
(0.007261032091 -0.03635941124 0)
(0.007247783597 -0.03685876832 0)
(0.003769675369 -0.04874878152 0)
(0.003248800446 -0.04873896399 0)
(0.003339488745 -0.04575403291 0)
(0.003860612371 -0.04576408726 0)
(-0.0007874753069 -0.05314705744 0)
(-0.0007965273743 -0.05339478512 0)
(-0.0005382098626 -0.05339885926 0)
(-0.0007910328999 -0.05289547993 0)
(0.003081464041 -0.05370820666 0)
(0.003602217105 -0.05371769789 0)
(-0.0002780771372 -0.05340357614 0)
(0.002357509252 -0.01915690801 0)
(0.002344447734 -0.01890697331 0)
(0.002078914142 -0.01891551053 0)
(0.002157429458 -0.01912059139 0)
(0.002381380889 -0.01708341165 0)
(0.0021050123 -0.01707125667 0)
(0.002099136931 -0.01733832589 0)
(0.002377274003 -0.01734674597 0)
(0.001789352856 -0.04321929727 0)
(0.001784946114 -0.0429682085 0)
(0.001507937489 -0.04294295248 0)
(0.0014621653 -0.04315064239 0)
(0.00901507369 -0.0483554885 0)
(0.01623272539 -0.04701297991 3.554934125e-13)
(0.01429442133 -0.04746855044 3.592681708e-13)
(0.01422728706 -0.0494359542 3.591016373e-13)
(0.01441263846 -0.04349226547 0)
(-0.000579776922 -0.05108388322 0)
(-0.0002559320222 -0.05115199872 0)
(-0.0002511940751 -0.05090255388 0)
(-0.0005203615935 -0.0508783571 0)
(0.00160999498 -0.05119779487 0)
(0.001625999475 -0.05070076595 0)
(0.001105330968 -0.05069141532 0)
(0.001097657546 -0.05094009913 0)
(0.001090623669 -0.05118870529 0)
(0.001674186012 -0.04920898998 0)
(0.001414080219 -0.04920422752 0)
(0.001406247271 -0.04945281521 0)
(0.001666370471 -0.04945762429 0)
(0.005045625601 -0.01770789201 0)
(0.005051349137 -0.01720019369 0)
(0.005000818994 -0.02075099424 0)
(0.004474036694 -0.02073523113 0)
(0.008690355348 -0.02034837384 0)
(0.007638926084 -0.02032123644 0)
(0.007628771594 -0.0208226938 0)
(0.001681544648 -0.04895992919 0)
(0.001421235274 -0.04895497716 0)
(0.001725386659 -0.04721577189 0)
(0.001455837752 -0.04720848054 0)
(0.001453007047 -0.04745838538 0)
(0.001719997096 -0.04746501682 0)
(0.008057871845 -0.04535045697 0)
(0.007010241114 -0.04532892989 0)
(0.006980645662 -0.04632373671 0)
(0.00802809804 -0.04634498239 0)
(0.004381985768 -0.04577433224 0)
(0.004396583648 -0.04527657761 0)
(0.004274630336 -0.04925636935 0)
(0.004290931876 -0.04875888516 0)
(0.004496957235 -0.04178869487 0)
(0.004411316894 -0.04477896475 0)
(0.008087448858 -0.04435444817 0)
(0.007039634437 -0.04433287063 0)
(2.397516697e-05 -0.01288383017 0)
(-0.0005515047103 -0.01287534348 0)
(-0.000562597002 -0.01336918624 0)
(1.214931251e-05 -0.01337771144 0)
(0.00452449148 -0.0166666919 0)
(0.00399462358 -0.01664626477 0)
(0.00448942058 -0.01306906061 0)
(0.003386532053 -0.01301053345 0)
(0.003384508287 -0.01351031627 0)
(0.003409745536 -0.01402872002 0)
(0.003975177811 -0.01407502234 0)
(0.004517047714 -0.01410403696 0)
(0.0006130905349 -0.01339577967 0)
(0.0006210081591 -0.01290132747 0)
(0.002279729459 -0.0194781958 0)
(0.004499409974 -0.01921674792 0)
(0.003972235524 -0.01920115598 0)
(0.003967791531 -0.01945607933 0)
(0.003963385071 -0.01971057838 0)
(0.004491717516 -0.01972505559 0)
(0.002609121153 -0.01942606186 0)
(0.002619451068 -0.01916861261 0)
(0.002651009807 -0.01735424036 0)
(0.002653052647 -0.01709283204 0)
(0.002619097727 -0.01891210419 0)
(0.004507105367 -0.01871011326 0)
(0.003980617634 -0.01869600217 0)
(0.003976360788 -0.01894822633 0)
(0.004354902567 -0.02727641654 0)
(0.004105891101 -0.02726992324 0)
(0.004097450519 -0.02752080758 0)
(0.004346657046 -0.02752725917 0)
(0.004359779485 -0.02702535743 0)
(0.004109145714 -0.02701887285 0)
(0.004147852455 -0.03529295518 0)
(0.003887588571 -0.0352876345 0)
(0.003879094346 -0.03553824032 0)
(0.004140766998 -0.03554359355 0)
(0.004152688521 -0.03504166405 0)
(0.00389128555 -0.03503603977 0)
(0.001771775506 -0.04522119484 0)
(0.001780733334 -0.04497272557 0)
(0.001516489734 -0.04496703565 0)
(0.001500224476 -0.04521394966 0)
(0.001561332637 -0.04347176259 0)
(0.001807573601 -0.04347375535 0)
(0.003932688697 -0.04327362931 0)
(0.00341084844 -0.04326318869 0)
(0.00339657105 -0.04376067345 0)
(0.003918688442 -0.04377112047 0)
(0.002073707035 -0.04347985865 0)
(0.00206841418 -0.04322851834 0)
(0.002041535466 -0.04522835243 0)
(0.002048270899 -0.04497946209 0)
(0.001875091579 -0.04122696968 0)
(0.001827667253 -0.04145795937 0)
(0.002102271929 -0.04148265149 0)
(0.00212268747 -0.04123532503 0)
(0.002069607656 -0.04297866809 0)
(0.003946749366 -0.04277572363 0)
(0.003424933271 -0.04276523735 0)
(0.003417740916 -0.04301430199 0)
(0.001541957849 -0.05318544798 0)
(0.001559578594 -0.05268887233 0)
(0.001041741811 -0.05268037277 0)
(0.001024788673 -0.05317705627 0)
(0.001082875995 -0.05143720253 0)
(0.001075328352 -0.05168584303 0)
(0.001593768427 -0.05169463381 0)
(-0.0004988287458 -0.0514037968 0)
(-0.0002482647518 -0.0514053811 0)
(0.004424970292 -0.02325808516 0)
(0.004158401981 -0.0232516021 0)
(0.0041562463 -0.0235030938 0)
(0.004421038797 -0.02351022904 0)
(0.004429581815 -0.02300651156 0)
(0.004162251384 -0.02300001089 0)
(0.004263031631 -0.03128832875 0)
(0.004015886519 -0.03128326499 0)
(0.004008136289 -0.03153407286 0)
(0.004256542363 -0.03153916576 0)
(0.004266193148 -0.03103750729 0)
(0.004018494834 -0.03103238453 0)
(0.00451638846 -0.03129376712 0)
(0.004520749827 -0.03104301959 0)
(0.006342267134 -0.03133494078 0)
(0.006354527218 -0.0308343593 0)
(0.005830693412 -0.03082239378 0)
(0.00581866214 -0.03132307297 0)
(0.00639084208 -0.02933075557 0)
(0.005866411018 -0.0293186376 0)
(0.005854491631 -0.02982047472 0)
(0.006378831382 -0.02983254437 0)
(0.006291730604 -0.03333801774 0)
(0.006304542822 -0.03283754145 0)
(0.005780980815 -0.03282581328 0)
(0.00576812134 -0.03332633469 0)
(0.005806300072 -0.03182406801 0)
(0.006329813756 -0.0318358875 0)
(0.00451036215 -0.0315445686 0)
(0.004609578601 -0.02728276345 0)
(0.004615101099 -0.02703176546 0)
(0.006438136539 -0.02732598621 0)
(0.006449682145 -0.02682432531 0)
(0.005925488432 -0.02681193554 0)
(0.005914034137 -0.02731364477 0)
(0.006483299304 -0.02531747049 0)
(0.005958647969 -0.0253048853 0)
(0.005947727665 -0.02580748492 0)
(0.0064722415 -0.02582002072 0)
(0.006402786311 -0.0288298433 0)
(0.005878310128 -0.02881767808 0)
(0.005902261855 -0.02781511558 0)
(0.006426457703 -0.02782741296 0)
(0.004602304119 -0.02753358231 0)
(0.004041927451 -0.03928568743 0)
(0.003779209158 -0.03927998654 0)
(0.003773185369 -0.03952967896 0)
(0.004035410506 -0.03953532224 0)
(0.002156010659 -0.04099079237 0)
(0.001922489547 -0.0409863207 0)
(0.004047735568 -0.03903612868 0)
(0.003784346116 -0.03903027364 0)
(0.001762483331 -0.04546993367 0)
(0.002034126372 -0.04547759691 0)
(0.00199080096 -0.04722199721 0)
(0.001996980007 -0.04697258567 0)
(0.001730078785 -0.04696591006 0)
(0.003815793352 -0.04725672668 0)
(0.003830931294 -0.04675879968 0)
(0.003309993492 -0.0467487034 0)
(0.003294933353 -0.04724686328 0)
(0.001457633839 -0.04695795101 0)
(0.001485644753 -0.04546131854 0)
(-0.0006813279438 -0.05143336207 0)
(0.001006591299 -0.05367278675 0)
(0.00152420424 -0.05368137357 0)
(0.00128279542 -0.0170088604 0)
(0.0009579883969 -0.01700158286 0)
(0.001244431606 -0.01731753696 0)
(0.0005847926052 -0.05018023245 0)
(0.0005929105092 -0.0499315127 0)
(0.0003168358354 -0.04992263793 0)
(0.0003090952649 -0.05017122776 0)
(0.0006282845014 -0.04918842713 0)
(0.000370904198 -0.04918451328 0)
(0.0003606196933 -0.04943239733 0)
(0.0006204455168 -0.04943687604 0)
(-0.001446006249 -0.01696302116 0)
(-0.001476435448 -0.01725131017 0)
(-0.001144432118 -0.01729735209 0)
(-0.00116231871 -0.01693103281 0)
(0.0006306622034 -0.04893832697 0)
(0.0003653637249 -0.04893228917 0)
(0.0006469975595 -0.04818957932 0)
(0.0004010909068 -0.04818851856 0)
(0.0003906667675 -0.0484364456 0)
(0.0006455311999 -0.04843983918 0)
(-3.603357189e-05 -0.01485916335 0)
(-0.000649407204 -0.01486068439 0)
(-0.0006784613006 -0.01535886289 0)
(-0.0003487514114 -0.01534985836 0)
(-3.520435274e-05 -0.01535231109 0)
(-0.001866653985 -0.0154096566 0)
(-0.001792243873 -0.01487379901 0)
(0.002381644575 -0.01681860007 0)
(0.002107191036 -0.0168041672 0)
(0.002335160199 -0.01499131146 0)
(0.001773841485 -0.01495478598 0)
(0.001789702923 -0.01546674809 0)
(0.00235869378 -0.01551444511 0)
(0.0003012336509 -0.01536445695 0)
(0.0006092840949 -0.01538071149 0)
(0.0005995328239 -0.01488111873 0)
(0.004289031691 -0.02827972033 0)
(0.004009293432 -0.02827339509 0)
(0.003975563948 -0.02852411101 0)
(0.004267270521 -0.02853048173 0)
(0.003298641651 -0.0252469793 0)
(0.003316464246 -0.02549666817 0)
(0.00355610858 -0.02550234424 0)
(0.003542429865 -0.02525252006 0)
(0.003358374378 -0.02624791703 0)
(0.0035924348 -0.02625364893 0)
(0.003582019905 -0.02600297589 0)
(0.003346849529 -0.0259970797 0)
(0.004367046961 -0.02627284179 0)
(0.004368368385 -0.02602165431 0)
(0.004105331756 -0.02601553013 0)
(0.004107605628 -0.02626652341 0)
(0.004116608993 -0.03629188316 0)
(0.003848012613 -0.03628576916 0)
(0.003841388365 -0.0365354477 0)
(0.004109896269 -0.03654179072 0)
(0.003014429516 -0.03626147035 0)
(0.003003010508 -0.03651025247 0)
(0.003287225119 -0.03651945397 0)
(0.003295222949 -0.03627013066 0)
(0.003054688998 -0.03727115465 0)
(0.003307816703 -0.03727510888 0)
(0.003303765985 -0.03702361241 0)
(0.003045348947 -0.03701856547 0)
(0.003142313909 -0.03326519833 0)
(0.003117478016 -0.03351422499 0)
(0.003357570752 -0.0335194955 0)
(0.003380811336 -0.03327070926 0)
(0.003034146661 -0.03424196857 0)
(0.003311316634 -0.03426584191 0)
(0.003314851898 -0.03401604578 0)
(0.003061199199 -0.03400741183 0)
(0.004157729646 -0.03429029853 0)
(0.004162330811 -0.03404057324 0)
(0.003884342805 -0.03403290204 0)
(0.003881037419 -0.03428274969 0)
(0.00440101886 -0.02426263486 0)
(0.004134001447 -0.02425618763 0)
(0.004118822556 -0.02450788676 0)
(0.004391064342 -0.024513438 0)
(0.003371421637 -0.02423426891 0)
(0.003239518387 -0.02455046572 0)
(0.003567482002 -0.02449773497 0)
(0.003608969595 -0.02424327015 0)
(0.003532780974 -0.02500269657 0)
(0.003279538478 -0.02499971018 0)
(0.00468926113 -0.02326433074 0)
(0.004694192776 -0.02301290318 0)
(0.006526872428 -0.02330974989 0)
(0.006537583428 -0.02280820834 0)
(0.006012665632 -0.02279515485 0)
(0.006002087863 -0.02329693054 0)
(0.006567560982 -0.02129686525 0)
(0.006042413094 -0.02128376947 0)
(0.006032710973 -0.02178764964 0)
(0.006557764134 -0.0218008449 0)
(0.006494301313 -0.02481533489 0)
(0.005969559735 -0.02480265518 0)
(0.005991569386 -0.02380014023 0)
(0.006516308829 -0.02381291232 0)
(0.004684631463 -0.02351668955 0)
(0.004230077297 -0.03229049838 0)
(0.00397422519 -0.03228504857 0)
(0.003961394544 -0.03253472234 0)
(0.004220328882 -0.03254038201 0)
(0.003234223482 -0.03227021391 0)
(0.0032130433 -0.03251863183 0)
(0.003446918983 -0.03252375869 0)
(0.003466828982 -0.03227471064 0)
(0.003403811368 -0.03302233339 0)
(0.003167013682 -0.03301746251 0)
(0.004243144564 -0.03028498435 0)
(0.004233113407 -0.03003390425 0)
(0.003942239324 -0.03002690577 0)
(0.00396420361 -0.03027835404 0)
(0.003042103909 -0.03751940147 0)
(0.003300523081 -0.03752435603 0)
(0.002972901108 -0.03825870147 0)
(0.003255307241 -0.03826776875 0)
(0.003269623354 -0.03801960814 0)
(0.002994294424 -0.03801185974 0)
(0.00406677687 -0.0382882754 0)
(0.004073640933 -0.03803901833 0)
(0.003809654225 -0.03803301085 0)
(0.003801642188 -0.03828214897 0)
(0.004564854569 -0.03929629181 0)
(0.004577941016 -0.03879794769 0)
(0.004053860955 -0.03878703939 0)
(0.006133611025 -0.03932898242 0)
(0.006146963934 -0.03883110659 0)
(0.005623895065 -0.03882003681 0)
(0.005610581941 -0.03931819083 0)
(0.006187204986 -0.03733558856 0)
(0.00566404694 -0.03732437807 0)
(0.005650765064 -0.03782317982 0)
(0.006173923109 -0.03783439031 0)
(0.004409217075 -0.03529783916 0)
(0.004414871737 -0.03504712151 0)
(0.006240430681 -0.0353361322 0)
(0.00625341805 -0.03483607588 0)
(0.005729853908 -0.03482444008 0)
(0.005717145808 -0.03532441043 0)
(0.005755166286 -0.03382699253 0)
(0.006278870062 -0.03383858534 0)
(0.00620068656 -0.03683614444 0)
(0.00567738888 -0.03682497694 0)
(0.005703914686 -0.03582501568 0)
(0.006227303677 -0.0358362315 0)
(0.004402691224 -0.03554825939 0)
(0.00327931186 -0.04774431697 0)
(0.003800505487 -0.04775414187 0)
(0.001984279065 -0.04747084627 0)
(0.002193568694 -0.0492179874 0)
(0.002208702368 -0.04872024515 0)
(0.001689032263 -0.04871068652 0)
(-0.0005472520693 -0.05214256024 0)
(-0.000872569448 -0.05207413343 0)
(-0.0007887964253 -0.0523948517 0)
(-0.000536175967 -0.05239703808 0)
(0.00235895235 -0.01813265488 0)
(0.002084414427 -0.01812487392 0)
(0.002080056964 -0.01838525249 0)
(0.002351036072 -0.01839584882 0)
(0.001542007701 -0.01730769149 0)
(0.001552502587 -0.01703730273 0)
(0.002366252996 -0.01787070373 0)
(0.002090239938 -0.0178651624 0)
(0.001877618799 -0.04223679881 0)
(0.001661065616 -0.04223840351 0)
(0.001610314759 -0.04247615597 0)
(0.001844657338 -0.04248027691 0)
(0.001882974245 -0.04198783037 0)
(0.001708535162 -0.04201605683 0)
(0.0005638291245 -0.05117727213 0)
(0.0005697260503 -0.05092826999 0)
(0.0002989058934 -0.0509203947 0)
(0.000293733419 -0.05116964465 0)
(0.0003086685098 -0.05042169649 0)
(0.000580414933 -0.05042968561 0)
(-0.0003944276646 -0.05044163551 0)
(-0.0002118440213 -0.05041239568 0)