/*--------------------------------*- C++ -*----------------------------------*\
| =========                 |                                                 |
| \\      /  F ield         | OpenFOAM: The Open Source CFD Toolbox           |
|  \\    /   O peration     | Version:  v2012                                 |
|   \\  /    A nd           | Website:  www.openfoam.com                      |
|    \\/     M anipulation  |                                                 |
\*---------------------------------------------------------------------------*/
FoamFile
{
    version     2.0;
    format      ascii;
    class       volVectorField;
    location    "0.57";
    object      U;
}
// * * * * * * * * * * * * * * * * * * * * * * * * * * * * * * * * * * * * * //

dimensions      [0 1 -1 0 0 0 0];


internalField   nonuniform List<vector> 
3259
(
(99.99885299 0.4455006468 0)
(100.0034272 0.4345735457 1.156451306e-21)
(100.0050895 0.387468067 -1.690395155e-21)
(100.0059977 0.3198539321 9.616648793e-22)
(100.0056895 0.2482978993 0)
(100.0050479 0.1838669924 1.536302832e-21)
(100.0046387 0.1295468511 6.301290206e-21)
(100.0024761 0.09042771192 -1.756310773e-21)
(100.0097457 0.1023949441 -1.5218542e-20)
(100.0066181 0.06285428523 0)
(100.0048283 0.03334594997 -1.906018926e-21)
(100.0046265 0.01046757656 -1.341581414e-20)
(99.92564438 2.016866547 -9.431971397e-22)
(100.0281415 1.987395324 3.068068831e-22)
(100.1100071 1.784464114 -5.618347862e-22)
(100.1502649 1.47733879 4.951607952e-21)
(100.152219 1.145555385 -9.534214552e-21)
(100.1297142 0.8499898579 0)
(100.1338855 0.632444564 -2.665584679e-20)
(100.0943499 0.4281458183 5.1263536e-20)
(100.0915076 0.291238828 1.473460112e-20)
(100.0631971 0.1781518313 3.029991935e-20)
(100.0469856 0.09489245429 -3.038968218e-20)
(100.0408445 0.0298573562 1.532230251e-20)
(99.85111162 3.960187496 2.159422654e-20)
(100.2417732 3.905564788 4.458588017e-20)
(100.5186799 3.455058143 -8.155980788e-20)
(100.6300715 2.807904854 3.492721203e-21)
(100.6118134 2.142099902 -1.024264453e-20)
(100.5163769 1.550430433 -2.386288585e-20)
(100.4418001 1.074490135 -1.600585817e-19)
(100.3197256 0.7173072584 -3.540426761e-20)
(100.2517491 0.4388349717 -1.508863223e-20)
(100.177176 0.2661192032 3.427829077e-20)
(100.1323499 0.1419151854 -3.848909603e-21)
(100.1127872 0.04442644676 0)
(99.65703429 6.295011814 0)
(100.6544156 6.180443548 -3.51527541e-21)
(101.3051836 5.300020059 -4.874171875e-20)
(101.4840247 4.129447901 -1.184988871e-19)
(101.3714986 3.029397115 0)
(101.1438833 2.137275186 0)
(100.9123081 1.407586737 5.803129398e-20)
(100.6576976 0.9178746244 -4.472831892e-20)
(100.4745634 0.5201672272 -3.859967638e-20)
(100.3360737 0.311940051 1.952596689e-20)
(100.2499429 0.1641574322 -3.916916229e-21)
(100.2106467 0.05092458454 0)
(99.24433421 9.459088047 -1.553296039e-19)
(101.5146919 9.167194454 -5.956739428e-20)
(102.7795206 7.401938426 -7.019819214e-20)
(102.9247101 5.365941118 1.452095171e-19)
(102.5146961 3.715731629 5.427061447e-20)
(101.9941903 2.506834449 -4.58531436e-22)
(101.516211 1.570428016 -9.555140159e-20)
(101.0782326 0.9951416288 7.941247775e-21)
(100.7313965 0.5133742988 0)
(100.513412 0.3024326704 3.989989754e-21)
(100.3772461 0.1545460823 -2.996540908e-21)
(100.3140522 0.0471913129 -9.936692754e-22)
(98.19382813 14.52093177 -3.104019684e-19)
(103.5314829 13.47087793 2.909947375e-19)
(105.5399855 9.592641354 0)
(105.1638571 6.281272356 2.703402407e-19)
(104.070599 4.023718357 6.564490551e-20)
(103.0273803 2.564514925 -1.162736061e-21)
(102.1958749 1.499175053 2.455764286e-20)
(101.5314467 0.9108232886 -1.641199642e-20)
(100.9879807 0.4056006539 0)
(100.679378 0.2288210374 0)
(100.4893246 0.1087040235 -1.006949995e-21)
(100.4005288 0.03204498278 -3.020098467e-21)
(94.22551666 24.27251949 0)
(109.5655163 19.53423739 7.687628615e-19)
(110.4004324 11.03969536 -8.185022474e-19)
(108.2296741 6.270501989 6.748083001e-19)
(105.9273492 3.659846155 -6.424023159e-19)
(104.1412127 2.17670352 0)
(102.8428649 1.138876215 0)
(101.9545686 0.6344433999 8.926556001e-21)
(101.1988268 0.1969737191 2.641757193e-21)
(100.8009332 0.08664204417 -3.125759339e-21)
(100.5608627 0.02648493021 -3.557311344e-21)
(100.4474114 0.005603410233 8.570296118e-21)
(124.7083399 22.24426847 1.600980822e-19)
(117.1147183 9.094406058 2.39595518e-18)
(111.5588363 4.535242056 -4.06569734e-19)
(107.6979979 2.391241933 1.477481075e-18)
(105.1299568 1.272409305 5.653453171e-19)
(103.3388849 0.4841877218 -4.735842369e-21)
(102.2639075 0.1815834179 2.014952147e-20)
(101.3146109 -0.1058275533 -3.218193418e-21)
(100.8458395 -0.1139623499 2.633986796e-21)
(100.5671019 -0.08680610874 -4.98932114e-22)
(100.4331752 -0.03091280777 -8.049309917e-21)
(137.2978607 6.316758336 2.478232544e-18)
(121.700036 2.420874191 3.045782765e-18)
(113.7635055 0.9435147592 -9.834977053e-19)
(108.8262894 0.2677312845 -1.961454642e-18)
(105.7196763 -0.06232975734 0)
(103.5705705 -0.386057086 -4.832310577e-21)
(102.3775733 -0.4095257087 1.131856589e-20)
(101.2988558 -0.473060063 1.104425864e-21)
(100.788643 -0.354720574 0)
(100.4874625 -0.2214182743 4.058928719e-21)
(100.3406081 -0.07447395058 4.01227609e-21)
(134.3025416 -9.892308532 -2.165383933e-18)
(121.3196442 -5.368893113 1.496407821e-18)
(113.7885142 -3.332046219 5.091992932e-19)
(108.8611361 -2.212729334 3.83813639e-19)
(105.7124289 -1.593876016 -8.625816927e-20)
(103.4593009 -1.351084628 4.089252247e-20)
(102.2535349 -1.063269408 0)
(101.1302147 -0.8642934026 -1.080489566e-21)
(100.6145571 -0.6108585943 -4.48574596e-21)
(100.3100568 -0.3644485159 5.008225349e-22)
(100.1595386 -0.120880505 0)
(125.3122461 -18.71052863 0)
(117.3929051 -11.03191416 1.273370274e-18)
(111.8753829 -6.863736744 -4.670606557e-19)
(107.8471954 -4.429351946 1.780373377e-19)
(105.0978648 -3.035746359 -1.983220391e-20)
(103.0002523 -2.264216886 0)
(101.8927691 -1.691990754 -2.678208246e-20)
(100.8070333 -1.236948321 -1.354518028e-20)
(100.3225973 -0.8557825737 1.023241324e-21)
(100.0334932 -0.5020207756 -3.241790298e-21)
(99.88845267 -0.1656961913 4.746863065e-22)
(115.8626181 -21.78994054 1.102912554e-18)
(112.1705333 -13.80108784 -5.729019007e-20)
(108.9243762 -8.996140396 -1.793475239e-19)
(106.1290938 -5.979318057 -1.324633704e-18)
(104.0203132 -4.155317303 -9.104810068e-21)
(102.2582881 -3.008376646 2.142312402e-21)
(101.3311724 -2.224994964 -3.266007247e-20)
(100.3515173 -1.561004431 8.016651921e-21)
(99.92573043 -1.065522356 0)
(99.66639043 -0.6220914613 3.733247491e-21)
(99.53438143 -0.2050325465 0)
(139.6704014 9.442304082 6.637243844e-19)
(125.9343362 25.09574317 0)
(137.2571443 -9.132874044 -4.67288281e-18)
(140.1781237 6.752332972 -3.142993683e-18)
(127.571566 -19.3231001 1.742537261e-18)
(136.240644 -10.8921419 2.356583491e-18)
(117.4136777 -22.91670304 0)
(126.2694558 -20.06661855 0)
(116.200177 -23.03892088 1.101573067e-18)
(92.27476769 22.99059149 4.407863015e-19)
(122.8213973 25.84136455 1.397306581e-18)
(107.6140464 21.35788654 1.362317185e-19)
(148.89652 28.6046113 2.367759697e-18)
(129.238445 44.13730329 3.59651264e-18)
(136.7556056 8.689316111 -2.261447644e-18)
(123.6143084 5.307725364 0)
(118.8419427 10.94324823 -2.608741753e-18)
(150.6664623 -4.664613035 -3.12216518e-20)
(153.504925 8.630121315 -2.378805452e-18)
(135.170078 -8.251251633 4.595780502e-18)
(124.4388446 -4.070748599 -1.697762174e-19)
(124.4297002 2.962610608 1.83933146e-19)
(137.0193611 -21.69163596 -5.100673598e-18)
(144.0564998 -15.57730791 2.03176901e-18)
(126.5163892 -17.97676831 -3.421448711e-18)
(120.4156346 -11.2409908 -1.385534783e-18)
(123.7619402 -6.172647926 0)
(124.0535162 -27.45279137 0)
(129.5820722 -25.6982117 0)
(107.5950483 -33.00688994 -6.913935862e-19)
(112.3116529 -27.97823536 0)
(117.334414 -28.33446147 0)
(153.5706507 9.670138412 1.187080933e-18)
(149.601757 27.37931603 -2.334508585e-18)
(136.0523169 17.45246355 0)
(147.8933562 25.7280157 -2.798589924e-18)
(152.4847987 9.694528989 4.661927742e-18)
(144.4944522 -15.03655768 2.074864047e-18)
(150.3704568 -5.423999086 -8.541958931e-18)
(139.101644 -2.458003254 0)
(149.5672129 -5.058746266 2.097795734e-18)
(144.0349089 -14.58886718 -7.764190841e-21)
(152.463384 8.672179822 4.652682926e-18)
(149.8533323 -4.314460034 -2.090470843e-18)
(139.3069841 -1.328765869 4.035671667e-20)
(130.395116 -25.35431975 4.528078562e-19)
(136.5470991 -22.02807688 3.373954916e-18)
(131.4442213 -16.47147012 1.45164669e-18)
(136.0534473 -21.40775183 2.577006648e-18)
(130.1725153 -24.52979241 1.716861584e-18)
(143.6125043 -15.12681119 0)
(136.958633 -20.81249815 -5.382021052e-19)
(132.7071993 -15.28704122 2.671735908e-18)
(118.0657248 -28.30875925 0)
(123.2857549 -27.62025886 1.386739022e-18)
(104.9500853 -32.74686607 6.207185183e-21)
(104.4502144 -32.58304282 -6.876483751e-19)
(111.6030861 -27.91986016 1.248935885e-20)
(107.6160843 -33.01054481 0)
(154.7448178 53.14634374 -1.387367146e-17)
(128.2824921 67.51901029 2.140791296e-19)
(121.8287893 -28.91298332 0)
(117.0005182 -21.64204744 -1.10334097e-18)
(114.5246307 -14.9342272 0)
(119.0219092 -12.48458193 1.381704092e-18)
(102.9507027 -31.36962356 -2.550734392e-18)
(114.4875007 -31.41220656 2.502368067e-19)
(117.0533306 -31.3000743 -8.970957073e-19)
(128.6248377 40.37931969 0)
(146.5215648 28.10735959 8.380224783e-19)
(134.0497809 19.8757089 1.156410295e-18)
(117.4414975 -31.24213853 0)
(120.0300894 -31.02692716 0)
(121.1498219 -22.14243302 -2.837299106e-18)
(123.1699359 -26.83269846 0)
(118.020683 -27.52687444 1.06529346e-18)
(129.3723332 -24.87082525 -3.81835342e-20)
(123.9261743 -26.65709814 -1.379539351e-18)
(122.4171679 -21.74150458 4.353689967e-18)
(84.31630201 33.90345867 0)
(125.2985749 44.37757778 -3.617198374e-18)
(106.7409337 36.54222597 -3.773902078e-19)
(87.1563537 36.50099201 0)
(156.0210704 49.79653067 2.153442912e-17)
(142.9919413 37.56227401 -5.263698103e-18)
(154.5206533 49.43196062 0)
(128.1968349 62.87864582 1.788781571e-18)
(152.4299856 52.2269923 0)
(140.0664646 39.8087501 1.922186048e-18)
(152.1398476 1.097734213 -2.525334839e-18)
(152.3532838 1.972970794 -2.567962314e-18)
(140.3371244 -19.26596321 0)
(140.8155424 -18.84450361 1.883497139e-18)
(122.7421828 -30.47758156 1.240111331e-18)
(122.6448959 -29.11627889 0)
(126.3864416 -26.83334698 1.578292035e-18)
(125.4644476 -29.28709801 0)
(123.5497699 -30.14672371 1.19691937e-18)
(125.8188678 -27.74861977 0)
(125.4735932 -29.17066608 0)
(127.1755807 -26.58508339 1.628089664e-18)
(111.4751094 -31.0129944 8.306537702e-19)
(113.7381199 -31.35397823 1.173309564e-18)
(104.1943507 -31.66837819 3.36242179e-19)
(152.8626742 17.38958438 -3.744341672e-20)
(152.6336524 18.6011425 0)
(147.3258471 -10.83659044 -2.33943414e-18)
(147.7006693 -10.19185789 -3.005260726e-20)
(147.1392533 -9.839751661 -4.485097275e-18)
(143.0730114 -7.446469896 -3.121677936e-20)
(144.4468886 -3.747862044 -5.063646287e-18)
(140.7252095 -11.76979583 0)
(142.5363296 -8.597936598 -7.342732345e-18)
(146.778686 -10.48367606 2.27419268e-18)
(151.5942817 2.168022788 0)
(145.7668085 3.303886499 2.572484921e-18)
(145.7715581 8.035874527 2.625813816e-18)
(144.8145836 -2.420188453 5.085064223e-18)
(145.6159818 1.81228472 -5.281668419e-18)
(151.4019298 1.298587526 -2.049075789e-20)
(133.0254716 -23.93202117 3.009109538e-18)
(126.1436677 -27.49843037 -7.35569175e-18)
(133.4529505 -23.672441 4.977118484e-21)
(123.1724851 -30.22391966 -2.364202819e-18)
(120.5928216 -30.59974417 -5.794159991e-21)
(121.0178545 -28.0181684 2.47998528e-18)
(120.3708765 -30.97934623 -1.050209656e-18)
(122.4527987 -30.58251246 -1.575120626e-20)
(100.1861789 -30.94585905 -2.779342083e-17)
(110.7212715 -30.85683066 0)
(123.8081115 90.32671919 0)
(113.7229077 -32.57819031 -2.575153552e-18)
(114.0166527 -32.2867367 1.987753602e-18)
(34.56865009 11.87114264 -3.240840877e-18)
(113.7954563 -32.11632116 9.843033393e-19)
(112.9876357 -31.52148312 0)
(69.79863472 46.18592424 2.169169776e-18)
(123.1950786 66.83445365 0)
(102.2034285 54.27905951 -4.226281191e-18)
(77.41565876 53.00690698 0)
(151.3799151 -2.265595447 8.776517445e-18)
(156.6568194 8.372960645 0)
(155.8916484 5.157266316 4.641486202e-18)
(153.1250746 5.650933073 -3.692011893e-18)
(138.4208366 -20.76589833 2.250502664e-20)
(138.7680777 -22.34837706 -3.674388595e-18)
(137.4492265 -23.22645847 0)
(144.2186622 -17.10331251 1.018654779e-17)
(142.6002498 -18.68698393 0)
(142.7003287 -17.07658277 -1.883274383e-18)
(153.4499013 12.86885849 2.36417945e-18)
(156.7970995 12.78699485 2.164547654e-18)
(156.9107383 9.475766707 3.011235447e-18)
(151.4513009 18.24922332 4.68275843e-18)
(143.8546074 16.60940926 0)
(141.1582238 21.88259307 -2.334994758e-18)
(145.6006438 9.697928121 -2.615353522e-18)
(144.4677445 14.84161198 0)
(151.6620458 17.11013732 -4.754176876e-18)
(145.7608193 -13.3204238 2.267947266e-18)
(146.2949365 -14.70636235 0)
(144.7559233 -16.54764112 2.602288149e-18)
(149.3120026 -7.601611248 -2.13384591e-18)
(136.9563492 -23.5298156 1.868255728e-18)
(135.4641973 -24.29332239 0)
(135.1864065 -22.7612617 0)
(133.4554458 -22.92438626 3.364783997e-18)
(131.861414 -20.37140243 -1.832469828e-18)
(134.142482 -18.7862741 -4.453244318e-20)
(140.5087437 -18.36743975 -5.665588768e-21)
(137.9353788 -15.34013906 2.180645158e-18)
(140.0601245 -12.73558081 2.336845918e-18)
(134.9091986 -18.18393161 2.010593845e-18)
(137.1917969 -16.11831761 4.237331324e-18)
(140.0512636 -18.7862697 2.387087934e-20)
(120.2760999 -28.11695983 -1.225368185e-18)
(120.2260915 -30.65009672 -1.031876747e-18)
(117.7928512 -30.66353967 -2.27203729e-18)
(101.6629476 -31.68647505 4.845044197e-18)
(146.0938441 62.75369602 0)
(125.2258087 86.59478144 0)
(142.0612559 65.48656551 2.278230884e-18)
(123.1172822 -28.44985459 -5.649208372e-18)
(123.3874396 -28.32338285 0)
(113.0656263 -32.64664306 -8.065295967e-19)
(113.6406467 -32.58322476 1.704229645e-18)
(102.6831379 -30.95537213 -3.394851289e-17)
(46.77839977 -6.341549459 -1.254734647e-17)
(41.96520514 11.11482374 4.98943798e-19)
(50.06981963 -8.539641825 -1.81976315e-19)
(115.2429447 -31.22088122 -1.740235358e-18)
(115.9551816 -31.77222653 -1.020831535e-18)
(118.9362354 -31.14446724 -5.623912218e-21)
(112.023543 -31.15306457 -7.103367731e-18)
(111.3760311 -30.63863447 2.416851524e-18)
(157.9328392 41.28096283 0)
(152.1107258 38.77022424 0)
(147.441267 43.82988193 0)
(155.8243676 31.87549658 0)
(153.2927244 37.03290649 2.449049791e-18)
(145.6046613 45.47739213 0)
(139.1847221 49.80223496 -2.013850376e-18)
(144.1293876 59.16837661 0)
(154.291949 0.4230899338 4.669797261e-18)
(152.920393 -2.293879522 8.754924144e-17)
(151.5546156 -1.446179271 -1.467183775e-19)
(152.9550317 4.696023264 2.490768685e-18)
(155.5804516 4.141697741 -4.693432967e-18)
(154.620596 1.330890309 0)
(140.8635047 -20.74648795 4.474083484e-18)
(139.2745967 -21.99350039 3.818684118e-18)
(138.901433 -20.42224257 -9.342938706e-22)
(137.8272302 -22.50385331 2.799211052e-20)
(139.7482653 -21.23921531 -9.836173602e-18)
(136.7116044 -23.61494199 -1.008523273e-18)
(137.2905809 -22.86328656 -6.222049078e-18)
(140.3075189 -20.69203753 0)
(142.2352539 -17.53233329 -9.334564994e-19)
(142.0334291 -19.10415544 4.021004703e-18)
(141.3665955 -20.27393075 -2.243326565e-18)
(122.9298505 -30.08907214 3.105578816e-18)
(123.0156372 -29.88054366 -1.339934027e-18)
(124.8142803 -29.80942663 2.555640599e-18)
(125.5006701 -28.54295806 1.238134029e-18)
(126.6850651 -28.26411431 0)
(126.2629384 -28.44743302 0)
(128.7171096 -27.57589698 -1.374110838e-18)
(129.9463603 -27.1248319 -1.441731227e-18)
(127.0797168 -28.1000161 1.298843116e-18)
(128.3067294 -27.72234249 2.7546746e-18)
(126.1295722 -28.64742927 0)
(106.1289312 -32.56854336 -7.167237466e-19)
(111.8653132 -32.54598008 0)
(112.791786 -32.62011885 1.542864451e-18)
(156.8391439 17.84893999 6.677907676e-19)
(156.7063751 14.06618516 -2.869362114e-18)
(153.3479052 13.95220874 2.374862564e-18)
(157.7203992 14.21790992 -7.833468854e-18)
(158.1496067 17.99301147 0)
(157.4985325 12.81430423 1.127469089e-17)
(157.2868084 25.22523711 0)
(156.4539902 30.16595784 0)
(158.2588188 19.25765314 -1.43155261e-18)
(157.4496695 23.73302382 0)
(151.6790968 22.23882954 2.35778413e-18)
(156.1327199 23.40655872 0)
(156.8538128 19.18886222 -2.630812825e-18)
(148.1531341 -12.03802685 -5.610184008e-18)
(146.7935385 -14.05408868 -8.228574538e-18)
(146.1661263 -12.71833049 -2.262131083e-18)
(148.9022344 -8.267712371 0)
(149.4170525 -9.496971633 -8.390685572e-17)
(148.5374349 -11.34445034 -2.900379399e-18)
(131.9472757 -26.26728583 -3.031416017e-18)
(133.1779525 -25.73085598 1.654083831e-18)
(130.3669879 -26.96395922 -4.441723265e-18)
(131.5816073 -26.41848957 0)
(126.4430502 -26.82423876 0)
(134.8963823 -24.661263 0)
(136.3189348 -23.92063699 1.022991603e-18)
(133.567256 -25.50012161 4.114808999e-19)
(134.483552 -24.90126633 0)
(110.6740361 -30.38661616 -4.706399261e-18)
(121.4016673 -30.83582295 -2.226992705e-18)
(114.0233013 -30.31252158 -1.095624028e-18)
(114.3546777 -30.88367782 0)
(114.2050082 -30.20577467 3.108317903e-18)
(121.7055632 -30.74946933 0)
(100.3498936 -31.37358049 0)
(122.1039126 22.97157159 1.513525237e-18)
(116.7352439 12.03479129 0)
(110.6984593 12.75523902 -6.460052162e-20)
(106.2573696 -31.18674837 1.213481172e-18)
(106.5176907 -31.11368141 -2.9471404e-18)
(113.0070914 -15.35818686 1.909632382e-18)
(105.8200903 -30.85841575 0)
(117.3029323 -27.56810744 0)
(112.7451618 -26.97768647 0)
(112.6669412 -23.0299584 -8.82249152e-19)
(55.58598662 58.99214005 1.082894334e-18)
(52.09487318 34.52956001 2.491632245e-18)
(37.83931393 21.51283776 2.599009046e-19)
(109.340183 95.18089045 0)
(92.25603754 74.13790224 0)
(63.27434793 67.90877423 -1.025186158e-18)
(114.5826925 25.08696356 -9.76442348e-19)
(110.0990441 33.59914536 1.757942556e-18)
(125.2688079 40.65768397 0)
(146.3843276 32.64486301 -2.232233099e-18)
(151.1461147 35.83768444 0)
(153.9134171 31.06094471 0)
(110.4596949 -32.30493059 -1.310910576e-18)
(111.5159509 -32.55030843 0)
(106.6655162 -32.68630079 1.265395468e-18)
(117.0353332 -30.69466569 1.129605785e-18)
(114.771127 -30.60807468 -9.949045776e-19)
(115.1589362 -28.30505317 9.065841592e-19)
(154.6232297 29.50084649 4.803173421e-18)
(155.8605897 24.85495031 2.665892116e-18)
(151.2499896 23.45778825 -2.352559063e-18)
(100.6200809 -31.86855117 -3.646891677e-19)
(103.8330153 -32.45658282 3.738299687e-19)
(98.14798862 -31.23427703 9.13331322e-18)
(99.39494532 -31.48418635 -9.195912212e-18)
(110.0838202 -32.27725152 1.278879654e-18)
(152.8680778 56.13667066 2.089822128e-17)
(122.2667179 -28.75536999 0)
(108.5027999 -32.48657835 -2.477555565e-18)
(108.1871191 -32.25724523 1.741440056e-18)
(103.371398 -31.27590033 7.606964565e-18)
(115.7842375 -32.26727026 1.241502732e-20)
(114.9529406 -32.36002286 8.641786901e-19)
(115.9267481 -31.23937242 -1.693992947e-18)
(139.93325 23.59203343 0)
(135.2724137 28.17897876 -9.46510137e-20)
(140.6214841 34.84615782 -2.53012139e-18)
(118.5701731 -31.22638773 -9.76207145e-19)
(116.1656264 -31.94334066 2.077766885e-18)
(115.9418463 -32.21422277 1.492435064e-20)
(115.1577063 41.56550741 -2.086025726e-18)
(107.0984566 51.0701326 0)
(124.0727401 62.52331393 0)
(156.0940313 46.74855793 0)
(153.7495951 45.78883989 -2.636531926e-18)
(152.0244051 48.12766376 0)
(158.7890421 32.51953046 1.118528253e-17)
(158.4384972 34.81103559 -8.812386285e-18)
(122.9419752 -30.32123445 0)
(120.4652562 -30.19727206 0)
(120.4973902 -30.39745656 0)
(119.4892628 -28.82361296 0)
(120.1770415 -29.12900559 0)
(123.2348844 -29.4193284 0)
(123.9093177 -28.90706211 0)
(125.0909972 -28.68952255 0)
(124.4951506 -29.90398177 -1.866375191e-18)
(125.2986432 -28.00708532 0)
(128.423982 -28.04746957 0)
(128.6039239 -27.79302329 0)
(105.3701441 -32.0741792 3.001163768e-18)
(109.3697327 -32.77276857 -7.948740979e-19)
(108.9744228 -32.59858275 0)
(129.3504547 -26.24464525 0)
(129.8773224 -26.05419626 0)
(128.8904174 -27.58101879 6.434181401e-18)
(129.2229102 -27.3764808 0)
(126.6060447 -27.30461955 0)
(130.1861092 -25.82978831 0)
(129.7793219 -25.532354 0)
(134.7385968 -23.05103741 0)
(135.0085285 -24.517815 0)
(133.7253866 -25.05594012 3.904436373e-19)
(100.8749885 -31.20948877 -6.5065669e-18)
(105.4580514 -31.38210874 -4.485339227e-18)
(105.9107583 -31.27158209 -1.049988315e-18)
(110.5947702 -31.77117321 -3.249931203e-18)
(110.7684366 -31.99504893 0)
(113.9932977 -32.4456203 -9.780957966e-19)
(35.22220513 4.647746083 0)
(25.0251162 15.82349639 0)
(37.69904374 -2.092466417 0)
(113.4894454 -32.00359764 -1.017769761e-18)
(108.5649707 -31.14091688 0)
(109.6601669 -31.41822379 0)
(109.0207069 -30.88247373 -3.047301845e-18)
(109.0180794 -31.00225797 2.431418739e-18)
(113.2798837 -31.76605746 -1.093774031e-18)
(111.5089589 62.39021835 -2.334641708e-18)
(99.01780543 71.08646948 0)
(116.1781741 86.15237086 0)
(152.4689031 -3.76718593 2.539500978e-18)
(152.7128803 -2.96247853 0)
(151.7676994 -5.327156173 2.759172794e-18)
(152.1302281 -4.547322903 -1.800290976e-20)
(156.4050147 7.293255401 -3.132752323e-18)
(155.4503574 7.35842449 0)
(155.6458516 8.417524831 3.214452816e-19)
(155.0229783 5.296001892 2.709946735e-18)
(155.2456868 6.318844043 0)
(156.156193 6.227469836 -3.097190086e-18)
(143.6820002 -17.67782163 1.006564841e-17)
(144.405773 -17.07480481 2.080045086e-18)
(144.8862235 -16.52491493 -2.236552597e-18)
(143.4167141 -18.0966099 2.981406146e-18)
(143.9137839 -17.61065979 -4.007809967e-18)
(143.1138345 -18.23016218 -4.776857736e-18)
(157.0012023 11.73563116 -1.256428349e-18)
(155.8642633 11.84012547 -4.827063618e-18)
(155.7407164 12.96789162 7.376348824e-18)
(155.8125556 9.514832134 -6.256597948e-19)
(155.8955485 10.66679417 4.876483733e-18)
(157.0624404 10.62737337 -1.407141472e-18)
(145.796995 -15.30942242 5.283318291e-18)
(146.2543617 -14.76418219 -2.397517707e-18)
(146.6927484 -14.15636317 0)
(145.3580306 -15.96287354 0)
(145.8128642 -15.36760344 -2.309981595e-18)
(145.290401 -15.93617534 -7.900414203e-18)
(151.0893797 -6.988177572 2.668846207e-18)
(151.4409324 -6.134767938 -5.488669412e-18)
(150.2162599 -8.458351597 -2.324862865e-18)
(150.6977384 -7.760658407 2.549946739e-18)
(95.92800492 -30.878608 -3.987431452e-18)
(97.3988931 -30.90438354 1.225232191e-17)
(98.3370495 -31.16948715 -3.958601527e-18)
(103.0485003 -32.11309366 -7.478543272e-19)
(95.23848856 -30.65301824 3.511909786e-17)
(148.8425208 64.64139697 0)
(152.1393346 60.18647461 0)
(150.1043438 59.48911654 -1.688955597e-17)
(136.4045762 79.74826201 0)
(134.695905 77.62086466 1.718665895e-18)
(126.4814089 80.53971047 0)
(146.5589844 68.67916135 0)
(141.2651201 73.20559587 1.689417147e-19)
(122.6122878 -28.59137939 -1.734587371e-18)
(122.9071154 -28.08056921 0)
(103.4028731 -31.19426081 3.205839744e-18)
(107.7994826 -32.02096502 0)
(106.6723058 -31.65496053 -1.82886371e-19)
(44.00872073 -2.609260372 -4.388967279e-19)
(110.9317724 -30.88748806 1.477739565e-17)
(108.2983653 -30.62190745 -3.137094692e-17)
(111.3701164 -30.75400279 -1.894516549e-18)
(156.5191231 40.9077567 0)
(155.2150595 43.47838654 2.698773453e-18)
(157.1845333 44.26994958 0)
(155.0708128 33.51872934 0)
(156.8634852 34.28426594 -2.080887737e-18)
(157.5756539 32.24431921 2.16132162e-18)
(158.0848713 36.64599929 0)
(157.4953969 38.67984516 0)
(153.927989 -0.4335335717 -5.682763188e-18)
(153.4632709 -0.2080456263 0)
(153.718208 0.654393767 1.40959197e-18)
(152.9060227 -2.103247087 -3.15022112e-17)
(153.3261719 -1.03327688 -2.48805504e-17)
(153.6093797 -1.222121409 1.852673069e-17)
(155.2503692 3.19424831 -1.530851316e-20)
(154.5045543 3.359034887 -6.991559451e-19)
(154.7727397 4.30590486 -2.752730241e-18)
(153.9740199 1.535927148 -4.224471067e-18)
(154.2380363 2.43835527 2.086736003e-18)
(154.9370483 2.253440193 0)
(140.3423078 -21.20336074 -4.304742999e-18)
(140.4504702 -20.75255627 -4.038865742e-18)
(140.9704355 -20.31885686 2.0835241e-18)
(138.4595901 -22.1297904 -2.314332322e-18)
(139.1093517 -21.7350659 9.561087141e-18)
(136.8049151 -23.31340489 2.478826516e-17)
(134.7981619 -23.54641491 -6.390362214e-17)
(134.9941397 -23.91299223 1.033106919e-17)
(136.658192 -23.17541414 0)
(140.6701326 -20.22783394 0)
(140.5654683 -19.78427358 7.107839586e-17)
(142.0622814 -19.36273912 -2.757349646e-17)
(142.4832223 -18.97185731 2.724766748e-20)
(142.9464339 -18.55266647 -9.567709579e-19)
(141.4918995 -19.87500665 6.310040715e-18)
(142.005236 -19.42121273 -4.124532301e-18)
(141.8079012 -19.81136072 2.237324575e-18)
(118.9947627 -29.73822856 5.146534512e-18)
(119.8187263 -29.92560823 9.609572806e-18)
(122.9614237 -30.175559 -3.752819759e-18)
(116.4380008 -29.57330325 -2.195813923e-17)
(116.8580917 -29.94072508 0)
(117.0919042 -29.82170133 0)
(123.2246976 -29.67844503 4.25570359e-18)
(119.9505306 -29.34768909 0)
(119.5551931 -29.5650014 -5.926930087e-18)
(128.0948285 -28.37773152 2.2218255e-18)
(128.2854003 -28.19461358 -1.607731067e-18)
(125.9060402 -28.18272038 0)
(156.7809327 16.56071403 0)
(155.5981208 16.49529514 -1.299759951e-18)
(155.567224 17.73875861 -6.517325471e-19)
(155.6456695 14.07632346 -2.610997542e-18)
(155.6201879 15.27588028 2.668756997e-18)
(156.7387946 15.27969833 0)
(157.8945517 15.39913902 3.436449922e-18)
(158.0053764 16.73793566 3.379736132e-18)
(157.163294 26.78282737 -2.784572827e-18)
(158.6778955 27.07907247 1.345873205e-17)
(158.6604664 25.52012811 0)
(158.2329812 30.45215924 0)
(158.6146235 28.72477287 0)
(156.9203138 28.43639687 2.773062457e-18)
(158.163579 20.54976612 1.162869476e-17)
(158.7212125 24.11228495 8.070703709e-18)
(158.890785 22.12561881 -5.722022786e-17)
(157.8261783 21.98319769 -8.850722016e-18)
(147.7253996 -12.73483692 5.642777612e-18)
(147.9406774 -12.22314454 0)
(148.3242784 -11.55116604 8.570182563e-20)
(147.1191661 -13.51983626 4.847017443e-18)
(147.5341162 -12.87470987 0)
(147.2678806 -13.38718841 2.751041863e-18)
(149.2809836 -10.04453912 0)
(149.5267656 -9.580060527 2.60453195e-18)
(149.9844231 -8.914259047 3.22055661e-17)
(148.69296 -10.8895976 0)
(149.0850616 -10.23842297 3.362436944e-18)
(148.9256823 -10.68059899 3.019069669e-18)
(128.5507234 -26.62887455 -5.849633877e-18)
(128.9782583 -26.42642913 0)
(126.8889462 -27.1231134 -9.423698302e-18)
(129.4124826 -27.13053645 0)
(129.1364519 -26.82218154 0)
(135.3413838 -24.41346503 1.85776948e-18)
(133.3575313 -24.6998915 0)
(132.8043512 -24.94985427 0)
(134.5571735 -24.21851015 5.952746286e-19)
(133.9328132 -24.47088088 -8.918294172e-18)
(135.8184439 -24.17857326 1.935761988e-18)
(133.8657265 -25.28983711 0)
(132.1966457 -25.50384987 -1.189209077e-17)
(132.3693994 -25.75644548 2.709675079e-18)
(132.3543013 -25.18613525 7.439905582e-18)
(131.7991668 -25.38684984 1.298459519e-17)
(134.1477336 -25.13868714 0)
(113.753561 -30.45331164 1.312695346e-18)
(117.8147812 -31.06700696 -2.287864918e-18)
(117.9008666 -30.91173922 -2.479126348e-18)
(118.1071773 -31.38457692 0)
(117.8891827 -31.27585632 0)
(113.3048015 -30.62193959 -4.443041712e-18)
(116.0324576 -30.2087656 -9.406487244e-18)
(116.5118904 -30.07424448 0)
(117.7885304 -30.70418377 -6.452179615e-19)
(116.9989144 -30.41430944 8.536842575e-18)
(113.478083 -29.95955694 -5.116657422e-18)
(100.813188 -31.29976006 -4.760102769e-19)
(99.8206988 3.399553313 7.237459119e-21)
(99.97046953 1.986094482 4.883689747e-22)
(99.88262692 3.448749861 -1.069894478e-20)
(100.118502 3.449611604 7.253497526e-22)
(100.0739931 2.017275439 -3.068648409e-22)
(100.1777779 3.402795247 6.788520186e-22)
(100.358358 3.143118957 -2.675890457e-20)
(100.1571119 1.85704964 0)
(100.3906093 3.025978943 0)
(100.477411 2.621254313 -1.043009897e-20)
(100.1978083 1.570521991 0)
(100.4821665 2.478083968 2.015309198e-21)
(100.4868623 2.041081385 5.119199529e-21)
(100.1973751 1.237685395 -4.229478835e-21)
(100.4694545 1.899080635 -2.406013482e-21)
(100.421811 1.502506787 0)
(100.1701514 0.9269558386 -1.070761148e-20)
(99.52191403 5.556337587 1.019480826e-19)
(99.7616136 3.901132738 0)
(99.71831535 5.656163466 -4.536222297e-20)
(100.3351713 5.658264172 0)
(100.1561084 3.961571777 -1.540949557e-20)
(100.5215449 5.5622615 5.435685515e-21)
(100.9624614 5.044012785 0)
(100.4711112 3.59455027 8.940806957e-20)
(101.0588271 4.816539579 -5.236087777e-20)
(101.2129337 4.058517563 -1.366193928e-19)
(100.6201497 2.975731107 4.843430075e-22)
(101.2241394 3.799499265 1.08261998e-19)
(101.1836135 3.055775462 -1.059329199e-20)
(100.6304235 2.305522861 -1.930770204e-20)
(101.1514448 2.826044411 9.099835146e-20)
(101.0163196 2.191897408 -2.879438621e-19)
(100.5452255 1.687226494 -1.15710855e-20)
(98.92661597 8.343084618 1.501290091e-19)
(99.4121692 6.1760453 0)
(99.38289277 8.550669822 -6.157575809e-20)
(100.8124146 8.534831394 8.164458406e-20)
(100.4230145 6.29589937 0)
(101.2350767 8.325486516 1.109081424e-19)
(102.1476513 7.281306435 -6.270166719e-20)
(101.1904383 5.566315581 8.034157703e-21)
(102.3218161 6.852539089 8.097195536e-21)
(102.5151347 5.515712108 1.048177886e-20)
(101.4761785 4.424890897 6.876684895e-20)
(102.4945533 5.077965005 -1.2640741e-19)
(102.2889148 3.909389758 -3.54396396e-19)
(101.415478 3.288594974 -4.53425152e-20)
(102.1902916 3.569747558 -1.023613446e-19)
(101.8684184 2.690667676 0)
(101.2082402 2.341144436 0)
(97.50850163 12.45656205 6.567407595e-19)
(98.68495392 9.204576472 2.785972074e-19)
(98.56401445 12.9614124 -1.750830206e-19)
(101.923823 12.77981161 -1.543133478e-19)
(101.001941 9.427620912 -6.564546491e-20)
(102.8322177 12.22334238 1.231523445e-19)
(104.4580621 9.904419771 0)
(102.5865979 7.906126246 1.940457913e-19)
(104.6781996 9.06198702 0)
(104.6804856 6.770805928 0)
(102.9605257 5.854918289 2.200159608e-19)
(104.526887 6.109996701 0)
(103.8850364 4.452102262 6.192544226e-20)
(102.6421977 4.085185693 1.546106991e-19)
(103.6462669 3.997598361 6.269531344e-20)
(102.9615711 2.887820329 -3.171464878e-20)
(102.1198746 2.772297625 -2.887925925e-20)
(93.44088209 21.23875359 0)
(96.86384736 13.86761139 3.397253936e-20)
(94.9841352 22.32955722 0)
(105.6091384 19.89087348 -4.620659899e-19)
(102.4424094 14.20615116 9.323029435e-20)
(107.2977256 17.98709404 -1.422416652e-18)
(109.0592696 12.38681505 6.742474608e-19)
(105.3335536 10.57881556 0)
(108.9645853 10.86164829 -6.729808234e-19)