/*--------------------------------*- C++ -*----------------------------------*\
| =========                 |                                                 |
| \\      /  F ield         | OpenFOAM: The Open Source CFD Toolbox           |
|  \\    /   O peration     | Version:  v2012                                 |
|   \\  /    A nd           | Website:  www.openfoam.com                      |
|    \\/     M anipulation  |                                                 |
\*---------------------------------------------------------------------------*/
FoamFile
{
    version     2.0;
    format      ascii;
    class       surfaceVectorField;
    location    "0.57";
    object      Uf;
}
// * * * * * * * * * * * * * * * * * * * * * * * * * * * * * * * * * * * * * //

dimensions      [0 1 -1 0 0 0 0];


internalField   nonuniform List<vector> 
6464
(
(99.99463068 0.8922244119 1.574343481e-22)
(100.0001796 0.4485444681 0)
(100.0024665 0.4428713558 5.782176397e-22)
(100.0148513 0.8704748051 -1.161834795e-23)
(100.0039303 0.4269958317 1.11298432e-21)
(100.0047609 0.4027038188 -3.470557697e-22)
(100.0284464 0.7762944154 -6.901007037e-22)
(100.0054064 0.3722557791 -1.241045051e-21)
(100.0058602 0.3379523343 8.496517312e-23)
(100.0338177 0.6398554568 1.847978243e-21)
(100.0059821 0.3017910033 4.808464816e-22)
(100.0058278 0.265578318 0)
(100.0324984 0.4957299618 0)
(100.0054883 0.2308261123 0)
(100.0051674 0.198411524 7.681236025e-22)
(100.0272642 0.3670725857 1.597478275e-21)
(100.0051934 0.1692634607 -3.88995732e-21)
(100.0049884 0.1414352123 -1.448684128e-21)
(100.0223764 0.2575345463 3.150886198e-21)
(100.0042572 0.1175191804 3.150651075e-21)
(100.0031759 0.09752573124 -8.780818577e-22)
(100.0133542 0.1758530436 -4.727015788e-23)
(100.0009211 0.08325909506 1.714334929e-21)
(100.0081902 0.0801471649 -7.615251791e-21)
(100.046892 0.1966559892 4.07609742e-22)
(100.0169357 0.1779562098 -2.706386403e-21)
(100.0028208 0.08244137268 -1.569179449e-21)
(100.005725 0.04634725242 -9.542740606e-22)
(100.0316093 0.1204398017 1.513300884e-20)
(100.0047273 0.02173176769 -7.663508522e-21)
(100.0231276 0.06409558102 -1.613552304e-20)
(100.0204797 0.02016139038 1.363719184e-21)
(99.94805392 1.994306954 -2.274898741e-22)
(99.98036142 1.790771542 -1.306252373e-21)
(99.94594405 2.248778595 -1.460185685e-22)
(99.97451677 2.030905795 -6.600353771e-22)
(100.051061 1.995189978 1.769715821e-22)
(100.0560655 1.760278249 -1.888874813e-22)
(100.0705642 2.217345388 9.330214679e-22)
(100.0742937 1.979378316 -8.400775118e-22)
(100.133556 1.81827236 -2.80939529e-22)
(100.105139 1.577920908 -2.38676561e-22)
(100.1624063 1.989122103 -8.248286209e-23)
(100.1464894 1.756749806 2.233326147e-21)
(100.174036 1.524679341 2.475914893e-21)
(100.1255279 1.304741863 4.304772058e-21)
(100.2047191 1.645358912 4.302983075e-21)
(100.1760972 1.439793279 5.428798585e-22)
(100.1747975 1.193981753 -6.823488781e-21)
(100.1207376 1.011374617 -6.354910312e-21)
(100.2007617 1.273453575 -2.301189151e-21)
(100.1692539 1.108262585 -2.256269385e-21)
(100.1499338 0.8915211755 -5.353645452e-21)
(100.0982591 0.7500486908 4.877105114e-22)
(100.1663671 0.9400410273 -1.427474504e-21)
(100.1407544 0.8186080182 5.807575717e-21)
(100.0900656 0.5089564642 -1.33240309e-20)
(100.1444811 0.694967715 -1.332299565e-20)
(100.2013513 0.7479960771 1.347573101e-20)
(100.1237538 0.575858863 -2.722265436e-20)
(100.1039946 0.4742130083 1.173736959e-20)
(100.1437003 0.5037411283 -1.654896632e-20)
(100.0843955 0.3884887507 2.384960087e-20)
(100.0635196 0.3446234263 2.649059038e-20)
(100.0773672 0.2322653603 2.251510127e-20)
(100.1764766 0.3650545534 -1.813113766e-22)
(100.1359959 0.4134529769 4.745671094e-20)
(100.080161 0.3269977643 2.562635173e-21)
(100.0550823 0.1349140113 -7.001821343e-22)
(100.1229507 0.222141356 3.228948456e-20)
(100.0439135 0.06177796894 -7.520408057e-21)
(100.0920758 0.1184040726 -1.711729833e-20)
(100.0787513 0.03714050638 7.660438256e-21)
(99.86692453 3.704418899 5.454167146e-21)
(99.80633637 3.932353526 1.080123398e-20)
(99.83257602 4.227557063 -3.203284172e-20)
(99.90459885 3.974835915 4.181689831e-21)
(100.209454 3.653832685 2.259556886e-20)
(100.1989134 3.935187493 1.332051037e-20)
(100.2798474 4.167491746 1.055011734e-20)
(100.2873154 3.863960894 6.575683045e-21)
(100.4541322 3.239985866 -4.067885312e-20)
(100.4948762 3.525922233 4.370272276e-21)
(100.5938342 3.674737571 -6.403497287e-20)
(100.5423112 3.37791544 -1.841961716e-20)
(100.5555389 2.642961912 2.766928439e-21)
(100.6251091 2.892666119 1.990634979e-21)
(100.7144607 2.972625054 -1.432130632e-20)
(100.6353095 2.722662911 6.164443412e-21)
(100.5404895 2.020584235 -6.324131663e-21)
(100.6211187 2.224251394 -1.476425204e-20)
(100.6920914 2.261005999 -5.12163788e-21)
(100.6033526 2.06214719 5.650029246e-21)
(100.5308043 1.618629103 -1.771573147e-20)
(100.4568322 1.465421922 -1.192981703e-20)
(100.5825059 1.629203035 -1.194590487e-20)
(100.5056439 1.48406719 6.36366296e-21)
(100.3546928 0.9689822725 -5.269373151e-20)
(100.4753112 1.18472299 -2.763053098e-20)
(100.5504479 1.16666352 -7.991782479e-20)
(100.4099128 0.976230526 -3.780658733e-20)
(100.2565973 0.6485420888 -6.014965909e-20)
(100.3489119 0.7982450735 2.392581086e-20)
(100.3978128 0.7732120262 -2.855102691e-20)
(100.2925196 0.6478654696 -2.496364225e-20)
(100.2144516 0.3513855875 1.002061628e-20)
(100.3691831 0.4794743847 -2.571555419e-20)
(100.3496343 0.5830934015 -1.475125047e-22)
(100.2608154 0.5304550476 -1.471848884e-20)
(100.154739 0.2027764985 1.513630633e-20)
(100.2627521 0.2890249347 2.690066872e-20)
(100.1225676 0.09240668618 -1.924239431e-21)
(100.1962011 0.1530322694 -3.882916369e-21)
(100.1658982 0.04767176003 0)
(99.68769801 5.975512992 -2.268639025e-20)
(99.53461852 6.237455065 0)
(99.6202331 6.639042529 -2.914261943e-22)
(99.78588437 6.326776405 -1.667731419e-20)
(100.5870866 5.87114693 9.6331642e-22)
(100.5387266 6.239602728 -1.758013047e-21)
(100.7328115 6.510972912 9.388615517e-21)
(100.7590835 6.098507119 3.870410043e-20)
(101.1810408 5.057910404 -5.055403146e-20)
(101.2478113 5.433372547 -2.027400795e-20)
(101.447992 5.549840786 -2.439869048e-20)
(101.3477611 5.157725168 -1.154516902e-19)
(101.3534103 3.964068243 -4.843161031e-21)
(101.4801039 4.27683303 -2.48446568e-20)
(101.6311381 4.292688361 1.979561658e-20)
(101.4794204 3.983991213 4.450959701e-21)
(101.2604877 2.927007621 4.581846564e-20)
(101.3935919 3.159382362 -2.277341131e-20)
(101.494135 3.124799548 -9.445318342e-20)
(101.3465937 2.907525801 2.139308816e-19)
(101.1759509 2.238063171 0)
(101.0540591 2.07012427 4.769269635e-20)
(101.2410587 2.195789475 0)
(101.1106756 2.039129309 0)
(100.7859831 1.333184254 2.905453162e-20)
(100.9860175 1.562610516 1.880854665e-20)
(101.0571849 1.460557213 -1.651890887e-20)
(100.8450746 1.273368684 3.643558287e-20)
(100.5676176 0.8734268647 -3.321456648e-20)
(100.7177686 1.029091015 -1.482837883e-20)
(100.7600101 0.9459147502 -1.497668794e-20)
(100.605147 0.8239967719 -7.262607099e-21)
(100.4052589 0.4148231288 -9.287362267e-21)
(100.6100194 0.516761742 -1.928931209e-20)
(100.6403864 0.6844863993 -2.552304663e-21)
(100.5265583 0.6573793052 5.493424323e-21)
(100.2929979 0.2367567353 7.738960861e-21)
(100.4306221 0.3071793923 1.175752289e-20)
(100.2302936 0.1068568402 -1.958330366e-21)
(100.318709 0.1593476782 -3.456762052e-21)
(100.2666717 0.04905449204 -4.968220698e-22)
(99.31390359 9.004899202 -1.08892252e-19)
(98.96475128 9.337038637 6.580477006e-20)
(99.15718791 9.967933565 -3.771484103e-21)
(99.54161326 9.527127938 -9.81909249e-20)
(101.3715552 8.746611592 2.311444197e-20)
(101.2583124 9.300774209 -6.260747281e-20)
(101.6811359 9.628928404 -1.040850487e-19)
(101.7347794 8.990964508 -2.979412518e-20)
(102.5478112 7.127278062 -3.105584728e-20)
(102.6830482 7.653260493 6.16283506e-20)
(103.0427989 7.678308502 -7.846226902e-20)
(102.8396207 7.142780032 -3.515921532e-20)
(102.7087609 5.220888458 8.524909495e-21)
(102.9425833 5.610458664 1.825650125e-19)
(103.1688892 5.505163339 1.225808517e-19)
(102.8896457 5.136747362 1.736301211e-19)
(102.3521983 3.642719584 -2.406062689e-20)
(102.5783719 3.89907738 1.045984034e-19)
(102.6900502 3.777072729 -2.216437878e-19)
(102.4484718 3.544097145 2.712018004e-20)
(102.0570314 2.63992676 -1.470444974e-20)
(101.8783552 2.47281745 -3.796138605e-21)
(102.1166731 2.530561331 1.842670098e-20)
(101.9322615 2.385730785 2.244767075e-20)
(101.3589112 1.54197499 -9.351291837e-20)
(101.6449811 1.761585845 -5.919382612e-20)
(101.6860506 1.569501155 -3.315150606e-20)
(101.3999847 1.412980026 -1.697064783e-20)
(100.969879 0.9845879705 1.149733209e-20)
(101.1809687 1.124157961 3.470201238e-20)
(101.1934488 0.9852431164 -3.880164577e-21)
(100.9905422 0.8859411257 -3.797983711e-21)
(100.6223936 0.4101534201 1.995172782e-21)
(100.8668369 0.4594954976 0)
(100.9698262 0.6760339118 -8.743291667e-23)
(100.8456382 0.6895720864 -1.034361453e-20)
(100.4453251 0.2273764144 4.420231242e-22)
(100.6029692 0.2656195459 1.99499291e-21)
(100.3456474 0.1005013671 -1.999526095e-21)
(100.4383728 0.1316192667 -2.001639258e-21)
(100.3614618 0.03961546538 -2.006946488e-21)
(98.3803412 13.74135599 -2.449538356e-19)
(97.52948693 14.21399504 -1.381402392e-19)
(97.95861084 15.4571257 1.299694429e-19)
(98.9280773 14.68625974 -1.555742642e-19)
(103.1705126 12.84865073 2.072124307e-19)
(102.9882041 13.84284089 1.923108786e-19)
(103.9669373 14.15958768 3.914974298e-20)
(103.9473847 13.02053352 3.888644476e-19)
(105.1057387 9.326844662 0)
(105.4368057 10.08360121 0)
(106.0431583 9.846264722 0)
(105.5693828 9.123485812 5.080775318e-20)
(104.8455201 6.195704804 1.352862778e-19)
(105.271454 6.639572911 1.351497822e-19)
(105.5099038 6.341048179 -1.660744825e-21)
(105.0409344 5.952220896 2.663619831e-19)
(103.8596847 4.010707887 6.416877978e-20)
(104.2139666 4.256746693 3.28400452e-20)
(104.2913827 4.016142212 -2.47272031e-19)
(103.9303958 3.808908833 2.576077587e-19)
(103.1465205 2.716800982 -1.689515152e-20)
(102.8900923 2.575256907 -5.795620733e-22)
(103.1682304 2.539347556 4.90833081e-20)
(102.916858 2.423013247 -6.698452703e-20)
(102.026595 1.533841191 2.715200452e-20)
(102.3892867 1.697866126 -2.338783771e-22)
(102.3657394 1.428415001 1.647323411e-20)
(102.0190144 1.336301924 1.227498668e-20)
(101.4185443 0.9430915865 -1.611528146e-20)
(101.6867773 1.040747929 -8.210265379e-21)
(101.6434001 0.8547550083 -8.211856002e-21)
(101.4002916 0.8016169198 1.249102508e-20)
(100.833658 0.3207087699 0)
(101.1050129 0.3012383983 1.321400924e-21)
(101.2892669 0.5356445622 -1.103732921e-20)
(101.1754508 0.6109537704 2.73846918e-20)
(100.5843433 0.1679535091 -5.035179821e-22)
(100.7469749 0.1577133516 -1.563182013e-21)
(100.4449248 0.0707128563 -2.01774568e-21)
(100.530058 0.06758859456 -2.282243178e-21)
(100.4281488 0.01882200533 2.581474033e-21)
(93.24466677 23.66280088 2.220064282e-19)
(94.60897007 23.2995042 0)
(93.70303659 25.45868005 1.882614457e-19)
(95.37562818 24.66859452 -1.239704363e-19)
(108.2622175 20.50321813 3.000888085e-19)
(108.3865386 18.75925607 -2.193308426e-19)
(110.0153675 18.28605784 5.441684465e-19)
(109.1381684 21.27063115 1.050081859e-18)
(111.1431637 19.96881636 7.692381847e-19)
(110.7759609 20.7741706 -1.447651318e-20)
(110.5488594 11.87846627 -4.406628109e-19)
(109.6863633 10.95066141 -7.45804023e-19)
(111.1948439 11.0221345 -1.253957413e-20)
(110.1780201 10.29325186 -7.830088871e-19)
(107.8167989 6.340208902 1.664417587e-19)
(108.5319591 6.737035181 2.972419827e-19)
(108.6610306 6.145820907 3.368948192e-19)
(107.9262765 5.867941013 1.568619737e-20)
(105.6908851 3.744623748 -3.222556502e-19)
(106.1954052 3.918354586 -3.216670689e-19)
(106.1654699 3.545960676 -1.548008529e-21)
(105.6760647 3.435416888 -3.206751536e-19)
(104.3369708 2.324698556 5.95348746e-19)
(104.0015429 2.250073624 8.906119356e-21)
(104.2791045 2.088825311 1.169635218e-21)
(103.9606358 2.035489794 0)
(102.6895731 1.248368112 4.318888977e-21)
(103.1207825 1.308973239 -1.911337033e-20)
(102.9831738 0.9914977098 -2.48292119e-21)
(102.6054581 0.9970307315 -4.487276541e-21)
(101.85324 0.7165283493 4.463226186e-21)
(102.161378 0.7468630686 -2.072552047e-23)
(102.0459356 0.5328251771 -7.28604207e-21)
(101.776539 0.5423799299 9.027947302e-21)
(100.999877 0.14379904 -1.930732647e-22)
(101.2635595 0.04556777423 -2.88265189e-22)
(101.5569523 0.2591497866 8.376016912e-22)
(101.465277 0.3649545267 6.610120386e-21)
(100.6808948 0.05710489941 -3.348206874e-21)
(100.828635 -0.01365476419 -2.461046741e-22)
(100.504135 0.01644553468 2.50424038e-21)
(100.5683554 -0.0301582037 -2.231120542e-21)
(100.4436459 -0.012655535 4.162349821e-22)
(125.3206351 23.66890567 8.014393973e-20)
(123.4374738 22.60540277 8.55128121e-19)
(125.9730694 21.65825708 -7.427066687e-19)
(124.1476782 21.01769039 8.193111174e-19)
(117.9820032 10.03505429 -1.355675131e-19)
(116.2929054 9.578582382 1.20148327e-18)
(117.9037965 8.439697491 1.200266403e-18)
(116.3302474 8.352559586 -1.288866412e-19)
(111.1711736 4.847423211 -2.032731279e-19)
(112.1663202 4.954729183 -1.168085681e-18)
(111.920367 4.160785472 3.46930814e-19)
(111.0064281 4.196723557 -6.168678323e-19)
(107.4980297 2.594656404 4.387670165e-20)
(108.1126938 2.596146105 1.320225733e-18)
(107.881254 2.160648519 2.046906116e-19)
(107.3233863 2.220194095 1.447651959e-18)
(105.4004829 1.384888424 6.879687962e-19)
(105.0162451 1.411120728 6.048936533e-19)
(105.2326237 1.123752529 -7.762235993e-20)
(104.8832099 1.170756205 1.673758813e-19)
(103.2307046 0.6642462686 -4.848497509e-21)
(103.6966804 0.5990543234 3.80991524e-20)
(103.4185563 0.277057637 7.69719773e-21)
(103.0478612 0.3993366961 1.155990517e-21)
(102.1967963 0.3064431307 -1.988073283e-21)
(102.5104032 0.2487805367 1.360776606e-20)
(102.3086091 0.0423254744 5.030714711e-21)
(102.0506071 0.1300283397 9.969321398e-21)
(101.0802287 -0.107595887 -3.486578668e-22)
(101.3110903 -0.2893261244 -1.058292016e-21)
(101.7039381 -0.1330539055 -1.072830011e-21)
(101.663062 0.01908825732 -1.162772677e-21)
(100.7064668 -0.09885586609 1.076875626e-21)
(100.8202806 -0.2343015562 1.317438697e-21)
(100.5001359 -0.05801313669 -4.274270199e-21)
(100.529774 -0.1540996694 1.664305836e-21)
(100.3889046 -0.052692445 -2.112163244e-21)
(138.7380978 6.535602072 -3.333107896e-19)
(137.0224381 7.504067857 1.067212904e-19)
(137.4291714 5.139731193 4.269727613e-20)
(135.9985621 6.119350453 1.746115284e-19)
(123.0714052 2.723406056 1.561534093e-18)
(121.3532047 3.397734369 1.490076461e-18)
(121.8793643 1.412398703 2.207023109e-18)
(120.5230448 2.200368135 1.532158249e-18)
(113.581445 1.455429878 -6.496435678e-19)
(114.585505 1.087740817 8.981871706e-20)
(113.8760463 0.4097624115 -4.915485721e-19)
(113.0382366 0.8392736237 2.207693734e-19)
(108.7317399 0.5629794739 -3.793083568e-19)
(109.3411534 0.331897387 -5.644291619e-19)
(108.887871 -0.03924284242 -1.183680508e-18)
(108.3667837 0.2186610279 -9.707179076e-19)
(106.0414859 -0.02651906455 0)
(105.6689364 0.1223365251 3.76843909e-19)
(105.752294 -0.2486938995 0)
(105.428558 -0.09369411808 0)
(103.5341974 -0.1578024166 7.668414545e-21)
(103.9788479 -0.3604662851 -1.262976114e-19)
(103.5658206 -0.6262316677 -2.41593301e-21)
(103.2434521 -0.3930996006 -1.2106622e-21)
(102.3624746 -0.2531242796 5.578289778e-22)
(102.6471602 -0.4045050221 6.886788038e-21)
(102.363887 -0.5702289222 5.658843092e-21)
(102.1449834 -0.4061962532 1.266218086e-21)
(101.0437307 -0.4106957276 5.521723935e-22)
(101.2147755 -0.6687996776 1.128087695e-23)
(101.6847411 -0.6033752691 3.682536635e-22)
(101.7078189 -0.4218742887 -5.630717784e-21)
(100.6380414 -0.2853073506 2.029616437e-21)
(100.7018656 -0.4828320734 -2.243618027e-21)
(100.4140301 -0.1468064295 4.035600757e-21)
(100.3990383 -0.2929471331 2.279532663e-21)
(100.2503889 -0.09767866047 2.006009917e-21)
(135.2716486 -10.39681733 9.623946405e-20)
(134.737376 -9.072368342 1.213026942e-18)
(133.812923 -10.64892855 -1.093067377e-18)
(133.3702557 -9.407639885 -1.082900647e-18)
(122.5475213 -5.762168819 7.444041103e-19)
(121.5733837 -4.457097214 -1.502267125e-18)
(120.9385566 -6.207369605 2.883797473e-18)
(120.2346888 -5.046484162 7.539373204e-19)
(113.8889573 -2.808749099 -4.10954329e-19)
(114.5919695 -3.524025447 7.283685595e-19)
(113.6253784 -3.82682681 1.275394495e-19)
(113.0725051 -3.157513308 4.89402052e-19)
(108.9198372 -1.903018396 1.91812668e-19)
(109.380124 -2.322258993 4.059396822e-19)
(108.7874258 -2.513055139 1.916253512e-19)
(108.3964539 -2.113946012 -8.403221921e-19)
(106.0400528 -1.651090034 -1.296203716e-18)
(105.7413812 -1.399871308 3.180662461e-19)
(105.6647306 -1.782507931 -4.309595197e-20)
(105.4134181 -1.543441826 2.907673755e-19)
(103.5093138 -1.10898084 2.046798125e-20)
(103.874494 -1.428210784 2.049877464e-20)
(103.3639172 -1.586747168 5.804609235e-20)
(103.126794 -1.271714624 1.240970161e-21)
(102.298512 -0.8972233579 0)
(102.5236118 -1.128098649 -1.975978398e-20)
(102.1777815 -1.222500464 0)
(102.0219905 -0.9995212121 0)
(100.872386 -0.7345183676 -2.783118318e-21)
(100.9649679 -1.050575775 -7.311281482e-21)
(101.4783804 -1.094707211 2.200832102e-21)
(101.5704833 -0.9041781581 -3.601958268e-22)
(100.4623047 -0.4843287366 -2.012842754e-21)
(100.4658501 -0.733324763 -1.60483164e-21)
(100.2347947 -0.2414529987 2.504012968e-22)
(100.1699232 -0.4332396754 -1.370605334e-21)
(100.0226133 -0.143289352 2.37349306e-22)
(125.791274 -19.38204124 0)
(125.9144412 -18.34353186 -1.711254958e-18)
(124.707377 -19.03395205 -2.836295743e-20)
(124.8180824 -18.09504676 1.577043236e-18)
(118.2147641 -11.76232047 1.324268478e-18)
(117.9781484 -10.45957761 -3.358504511e-20)
(116.7585667 -11.51091602 1.191889382e-18)
(116.6387951 -10.40963083 9.144265625e-19)
(112.1795532 -6.481473651 9.681999653e-21)
(112.4959306 -7.285295084 3.550054633e-20)
(111.5323805 -7.199403708 -1.277184037e-19)
(111.3072245 -6.49694822 -6.633059461e-19)
(108.0154061 -4.177600469 8.95847042e-19)
(108.2845693 -4.673357687 8.913232175e-20)
(107.6567383 -4.659692134 8.705169572e-20)
(107.4484961 -4.214893744 -6.954434485e-19)
(105.3893967 -3.171230482 -3.342144227e-19)
(105.198723 -2.865446152 -3.303017856e-19)
(104.9811389 -3.192000667 -3.233883936e-19)
(104.82779 -2.912759492 -1.95693046e-20)
(103.1337282 -2.043218598 3.762499728e-20)
(103.3790351 -2.435592298 -1.433970339e-20)
(102.8269661 -2.463682144 -1.870539524e-20)
(102.6948284 -2.107295907 1.881213732e-20)
(101.9954917 -1.536791476 -1.338383364e-20)
(102.1409872 -1.822456748 5.732758247e-21)
(101.7623057 -1.83161113 -5.487364038e-22)
(101.6792191 -1.573129223 -1.389184877e-20)
(100.5647869 -1.043304183 -6.185418587e-21)
(100.5708248 -1.398974002 -1.194255885e-21)
(101.0929981 -1.550499961 -1.847800349e-21)
(101.246193 -1.372002622 -5.32691021e-21)
(100.1780414 -0.6757921169 -1.147501976e-21)
(100.1192646 -0.9606415773 5.116923391e-22)
(99.96097019 -0.3328180647 -1.389835281e-21)
(99.84645234 -0.5620517454 4.080892691e-22)
(99.70868034 -0.1853645041 2.373529476e-22)
(116.0313375 -22.41678599 1.102242582e-18)
(116.4326743 -21.71601386 -1.234354551e-21)
(115.289854 -21.81508809 1.056135308e-18)
(115.6882363 -21.19779097 4.158784346e-20)
(112.5932372 -14.5914364 9.317554226e-19)
(112.8321334 -13.58437387 -2.863520415e-20)
(111.5119633 -13.93963432 7.443126873e-19)
(111.7614453 -13.10429962 3.674432377e-19)
(109.3135086 -8.79816567 -8.94647387e-20)
(109.3193221 -9.502072158 1.303579894e-20)
(108.5263811 -9.147596356 -2.788956146e-21)
(108.5471957 -8.551234147 3.57259067e-19)
(106.3638601 -5.823063532 -6.640430414e-19)
(106.4464055 -6.288995289 -1.315001655e-18)
(105.8842396 -6.111102537 -7.561680004e-20)
(105.8318021 -5.703773859 -1.254734283e-18)
(104.2514582 -4.337885021 3.729860303e-19)
(104.1703058 -4.032201715 -4.556633691e-21)
(103.8609448 -4.261786503 -2.052769973e-20)
(103.8019764 -3.986174222 1.814613524e-20)
(102.4557643 -2.835814244 -1.762497395e-20)
(102.5706322 -3.247365674 -8.308847275e-21)
(102.0031321 -2.795852646 1.767822767e-20)
(101.4810888 -2.098207904 -3.457511492e-21)
(101.539616 -2.405474715 3.54517848e-22)
(101.1516808 -2.062584365 -1.834465739e-20)
(100.1384951 -1.307194929 4.005868847e-21)
(100.7648044 -1.779811833 -9.126876542e-25)
(99.79605184 -0.8422278738 1.866751219e-21)
(99.60038303 -0.4128334939 1.866539516e-21)
(139.9157885 8.099073574 -1.237715398e-18)
(138.2132582 9.068931171 -7.987482341e-19)
(139.2488041 10.79686483 9.833424243e-19)
(141.3235789 9.248381986 -1.377583261e-18)
(141.1210014 10.29063601 2.554040709e-19)
(124.427331 25.46540642 6.978712957e-19)
(126.5696662 26.83795312 -8.391229437e-19)
(127.4558148 24.41961882 0)
(136.7509134 -10.01319238 -1.15759721e-18)
(136.2138835 -8.692801423 -3.941464831e-20)
(137.7536658 -8.181010848 -2.338325591e-18)
(138.1076175 -10.11513487 -1.522598478e-18)
(138.4757725 -9.4008674 -3.06745439e-18)
(140.273499 5.448875045 -1.2351948e-18)
(141.7313867 6.392113686 -1.130590599e-18)
(141.6377917 7.422336952 -1.01455854e-18)
(126.9179926 -19.69445976 8.71894187e-19)
(127.0446731 -18.64061256 -8.308997516e-19)
(128.2210167 -18.89700101 8.711232497e-19)
(127.8749839 -20.18207035 5.804341212e-19)
(128.3007283 -19.87193115 -5.140690594e-19)
(135.6739609 -11.69649927 3.381807119e-18)
(136.9904169 -11.87381231 -6.229081257e-19)
(137.390135 -11.20991422 2.236901561e-18)
(116.8072319 -22.97782582 5.507922583e-19)
(117.2064582 -22.29118616 -5.516505636e-19)
(118.0294838 -22.8210464 6.264985471e-19)
(117.601446 -23.59406276 0)
(126.7138049 -20.75827959 -2.267814479e-19)
(125.6222555 -20.38841663 7.969333404e-19)
(116.3558051 -23.70384624 6.503070939e-21)
(115.5981469 -23.06953134 4.50780366e-20)
(92.84664107 22.1147816 2.202891634e-19)
(91.51403556 24.00868388 -1.957962556e-19)
(122.4620547 24.39733366 1.45546533e-18)
(121.3363118 25.94335803 -6.114510137e-19)
(123.1206294 27.6228837 1.732127423e-18)
(106.8737927 20.8702369 -6.438959987e-20)
(107.0246268 21.77876225 -3.444505289e-19)
(108.1109777 21.76606249 6.59757916e-19)
(149.175407 27.99464485 1.377554666e-20)
(148.1016128 28.44968224 1.853203897e-18)
(148.5654684 29.27938387 1.151442068e-18)
(149.6485071 29.08528449 -1.106877054e-18)
(128.9313272 42.25202614 1.797351822e-18)
(127.3181353 44.2544445 -5.278532698e-20)
(129.5081346 46.27093113 3.934975323e-18)
(131.2008371 43.6737462 1.795253703e-18)
(135.4557368 8.359243823 -1.097730188e-20)
(136.3376969 9.87477622 -3.380486987e-20)
(124.0228718 4.135704532 9.192054438e-20)
(122.3145866 4.87467604 -2.770633866e-20)
(123.0044484 6.397673872 8.071784823e-19)
(125.1622803 5.926229557 -2.434158008e-19)
(117.8287413 11.48527903 -1.30897334e-18)
(119.8014749 12.12241929 -1.335978902e-18)
(119.8231443 10.17402914 -2.054384727e-18)
(150.5185748 -5.044005144 -4.28321921e-18)
(150.2551045 -4.481018319 -1.073799441e-18)
(150.7999791 -4.276554326 2.149588012e-18)
(151.1183791 -4.818776539 1.106815721e-18)
(153.5332733 9.149062236 -6.009601739e-19)
(152.9802682 8.654796645 1.163891689e-18)
(154.0288602 8.587879801 -2.574640548e-18)
(153.4496112 8.123608512 -1.186818141e-18)
(134.1826447 -7.814099332 2.298401018e-18)
(135.5578943 -7.372052016 1.158132294e-18)
(124.0892486 -5.122248863 -8.480382286e-20)
(123.1470036 -3.790663032 -2.310184113e-18)
(124.6135063 -2.940259173 -8.494912364e-20)
(125.9181119 -4.374225313 1.06417822e-18)
(126.0407329 3.326832535 -8.296133332e-19)
(124.6195388 1.761336913 8.98006217e-19)
(136.7665055 -21.85924413 -8.572925124e-19)
(136.9971111 -21.44465866 -3.567939318e-18)
(137.2612115 -21.5740656 -8.505749369e-19)
(137.1065824 -21.95672067 -8.318026707e-19)
(144.2764384 -15.30609233 2.053335274e-18)
(143.8328755 -15.35244239 1.009000851e-18)
(144.2956132 -15.83864616 -1.505047872e-20)
(143.8336838 -15.83728936 1.206006383e-20)
(125.9758445 -17.36104504 -1.643433565e-18)
(127.1137271 -17.5629855 -7.984494791e-19)
(119.7125822 -11.86222575 7.125236487e-21)
(119.5019654 -10.56563613 -1.36203753e-18)
(121.0487625 -10.50706533 -1.481122435e-18)
(121.399979 -12.01404972 2.569165407e-19)
(125.132523 -6.641519854 1.363276501e-18)
(123.2866373 -7.125553321 -7.55834172e-19)
(123.6695357 -27.53650567 6.932640477e-19)
(123.9897999 -27.05645623 -6.894837006e-19)
(124.4394913 -27.3593306 7.4080528e-19)
(124.0779398 -27.85977856 0)
(129.990023 -25.52610359 2.266721098e-19)
(129.4770343 -25.28577854 -1.910762004e-20)
(129.177956 -25.85749545 0)
(129.5181978 -26.20333416 1.847843469e-18)
(129.7908352 -26.05680652 -9.279678952e-19)
(106.011983 -32.80074022 -6.895085253e-19)
(107.6105422 -33.00892738 -3.445285976e-19)
(108.4037784 -32.97884121 -1.017514567e-18)
(107.5089785 -32.99782894 3.439544937e-19)
(111.961421 -27.94920667 6.247737739e-21)
(112.4555372 -27.65313631 0)
(112.659645 -28.07379023 -9.346024157e-21)
(112.2512758 -28.37909767 -3.892601806e-19)
(117.6998521 -28.32161246 0)
(117.3186067 -27.95285469 0)
(117.3117598 -28.71676138 5.34072497e-19)
(116.9693604 -28.33897133 -1.003908893e-18)
(153.0220606 9.678969862 2.94289432e-18)
(153.5779249 10.19761401 -1.727685207e-18)
(154.116186 9.642605249 1.492565489e-18)
(149.0287927 26.81405809 -2.490013519e-18)
(150.3480806 27.66890527 1.525217976e-20)
(149.9824797 26.69589742 1.180376469e-18)
(135.0475458 18.6653467 5.787445347e-19)
(134.6976358 16.54861778 0)
(136.840053 16.14979117 -3.160317652e-19)
(137.8963918 17.95492343 0)
(137.247218 18.90267678 0)
(147.2008252 26.91654046 -9.8541713e-19)
(149.4459505 25.92244695 2.193440823e-18)
(148.4380891 24.53705098 -6.536240223e-19)
(146.6521555 25.05942926 -2.697857371e-18)
(152.4646005 9.183030033 4.657298601e-18)
(151.9100052 9.693671292 1.127696423e-18)
(152.4823992 10.20010004 2.318274486e-18)
(144.2632891 -14.81906836 1.027950741e-18)
(144.7097216 -14.75782539 -3.207893893e-18)
(144.7426006 -15.29117457 1.039037616e-18)
(149.9640987 -5.233448172 -3.156352793e-18)
(150.8128338 -5.586166891 -3.111017691e-18)
(150.2146076 -5.799696057 -3.948209107e-20)
(139.1397257 -1.88998512 2.019279207e-20)
(138.4462501 -2.448600168 7.933812956e-19)
(139.7889344 -2.573289021 2.30265457e-18)
(139.0308896 -2.984852483 -1.098491392e-18)
(149.7094199 -4.68617418 1.675956002e-21)
(149.4148528 -5.425348081 1.055480566e-18)
(149.2196816 -4.901386319 -2.137920753e-20)
(143.8227044 -14.85718088 -3.890604245e-21)
(143.8302383 -14.37063917 -9.867892256e-19)
(144.2449693 -14.32011474 9.386079521e-21)
(152.4416879 8.183572863 2.321731928e-18)
(151.9060715 8.668652361 2.294104687e-18)
(149.49345 -4.162467456 2.911071315e-20)
(149.9852172 -3.933425853 -1.043504544e-18)
(138.6975927 -1.087058641 -5.393126296e-19)
(139.4316315 -0.7845536973 -1.117217033e-18)
(140.0143237 -1.401508398 -1.151845997e-18)
(130.2836473 -24.94394641 1.085185296e-18)
(130.8070076 -25.17095236 -3.83401497e-21)
(130.337776 -25.87287852 1.514242218e-19)
(130.6122003 -25.71682446 -8.138243803e-19)
(136.384106 -21.78088389 3.107694947e-18)
(136.6333939 -22.23625429 8.237912557e-19)
(136.3319416 -22.13945575 8.449142767e-19)
(132.0733331 -15.87945155 2.061396303e-18)
(130.7536259 -15.83227966 -2.148417202e-18)
(130.8009103 -17.00069095 -2.232697098e-19)
(131.8676919 -17.41562614 4.138832369e-18)
(132.3263889 -16.95622454 5.02681413e-19)
(136.5056222 -21.11042205 1.020949588e-18)
(136.0756817 -22.01410384 -2.495073684e-19)
(135.6125365 -21.68182206 1.54504443e-18)
(135.8147663 -20.96618235 2.611639363e-19)
(129.7731854 -24.70025032 8.399797043e-19)
(130.0014045 -24.10379348 1.475550736e-20)
(130.5763087 -24.34854145 8.588306973e-19)
(143.3988059 -15.37947001 9.603707643e-19)
(143.4130099 -14.90023276 9.799637751e-19)
(137.3032574 -21.19666767 2.088728352e-18)
(136.697825 -20.37751691 -2.685882082e-19)
(137.4987369 -20.67314213 -1.306696884e-18)
(137.3211444 -20.32244443 3.170647818e-18)
(131.9531331 -14.66902061 1.33635599e-18)
(133.3206879 -14.62645779 -8.332242009e-19)
(133.2013281 -16.24950668 9.426589558e-19)
(133.655323 -15.73914523 9.157670903e-19)
(118.0428104 -27.92526476 5.324108534e-19)
(118.4333069 -28.28601709 0)
(118.0494657 -28.69180569 1.117786603e-18)
(123.227808 -27.22798261 6.937259769e-19)
(123.3055703 -28.02630977 -6.839907453e-21)
(122.9039382 -27.69491195 6.930463681e-19)
(104.7592234 -32.66750063 -3.497384806e-19)
(106.2748144 -32.86629735 3.124144353e-21)
(102.7385277 -32.31802971 -1.869893521e-19)
(104.0656272 -32.51673675 -1.572397634e-19)
(102.0615572 -32.02054451 -4.708526323e-18)
(111.5486348 -28.22470103 6.239497394e-21)
(108.2960635 -32.94495744 0)
(154.8524408 51.55182119 4.691391249e-18)
(153.6699732 53.39652014 -7.548523415e-18)
(153.2912228 54.56488213 2.705919488e-18)
(154.4041611 55.63496307 -6.084775631e-18)
(128.2399891 65.19492699 1.005766962e-18)
(125.7316356 67.17721489 1.070401422e-19)
(128.1055852 70.54779877 1.003541285e-18)
(130.8796031 67.59937011 -1.739969783e-18)
(122.0727474 -28.97574761 0)
(123.6915019 -29.08860982 0)
(122.1259514 -28.84255104 0)
(114.9935401 -27.42021845 -3.414106816e-18)
(116.8028443 -21.06664341 -5.517536216e-19)
(117.579921 -21.55451413 -5.517964404e-19)
(113.7616829 -15.14599927 9.546437815e-19)
(114.0183326 -14.16328984 0)
(115.2833963 -14.62819062 3.881525466e-20)
(115.0315983 -15.82610261 0)
(119.8792979 -13.31134309 1.25238307e-19)
(118.2822489 -12.99684078 7.949739718e-20)
(103.3722864 -31.47173701 -1.227084854e-18)
(105.800589 -31.97312736 -2.519026489e-18)
(103.2061378 -31.32652681 2.654398458e-18)
(95.55192493 -29.26103584 3.171377218e-18)
(114.1153786 -31.38318944 7.120154239e-19)
(114.6303115 -30.994602 -3.730504256e-19)
(114.8730773 -31.42629938 -2.546847976e-19)
(114.1753142 -31.73895444 8.374396736e-20)
(114.4186245 -31.80396336 -4.539308917e-19)
(117.2328867 -31.27054644 -4.49056266e-19)
(117.0484617 -31.07709019 -2.205035917e-19)
(116.9659558 -31.43853033 -9.074190642e-19)
(116.8828079 -31.28055466 -3.951868258e-21)
(126.9798363 40.51627267 0)
(130.2989042 39.99102124 -9.795121517e-19)
(128.3439018 38.79757717 0)
(147.5509492 29.32563536 2.597792023e-19)
(145.2961344 27.30356649 3.055972996e-18)
(145.7024121 29.26906937 4.184976819e-19)
(132.813835 18.79503822 5.782897653e-19)
(132.8775749 20.9374565 8.434389804e-19)
(135.8578848 20.66019059 3.73131556e-19)