/*--------------------------------*- C++ -*----------------------------------*\
| =========                 |                                                 |
| \\      /  F ield         | OpenFOAM: The Open Source CFD Toolbox           |
|  \\    /   O peration     | Version:  v2012                                 |
|   \\  /    A nd           | Website:  www.openfoam.com                      |
|    \\/     M anipulation  |                                                 |
\*---------------------------------------------------------------------------*/
FoamFile
{
    version     2.0;
    format      ascii;
    class       volScalarField;
    location    "2.87";
    object      k;
}
// * * * * * * * * * * * * * * * * * * * * * * * * * * * * * * * * * * * * * //

dimensions      [0 2 -2 0 0 0 0];


internalField   nonuniform List<scalar> 
3259
(
37.00880533
37.00622522
36.99596607
36.98200775
36.97058494
36.96267604
36.95845969
36.95604309
36.90987412
36.90907155
36.9086766
36.90842136
37.04730652
37.03878607
37.00473221
36.94126598
36.88268486
36.84264385
36.79749512
36.78346286
36.73188608
36.7292127
36.72792868
36.72723552
37.13218858
37.11658453
37.05520505
36.94958347
36.82613542
36.7333394
36.65223869
36.61994499
36.55916235
36.55282066
36.54985787
36.54865821
37.31717271
37.29241275
37.19216239
37.02685004
36.84321241
36.67620728
36.53632912
36.47273001
36.39307198
36.38090704
36.37504506
36.37277349
37.71735312
37.67263738
37.49456094
37.21621771
36.93064604
36.68899441
36.46482811
36.34716398
36.23666166
36.21337859
36.20286052
36.1987834
38.63506203
38.51929055
38.08109643
37.58389282
37.11837777
36.75426957
36.44415523
36.24855168
36.09202401
36.05040413
36.03267454
36.0257644
40.64607275
40.51592919
39.14829522
38.1819127
37.42250786
36.88045394
36.46086493
36.18142203
35.9583325
35.89256492
35.86442948
35.85353499
43.58744263
40.85254681
39.029485
37.83586765
37.06165038
36.50628538
36.14215081
35.83878446
35.74162536
35.6993857
35.6832532
48.79038323
42.91714759
40.03365018
38.32780688
37.28205433
36.57225044
36.12476011
35.73397107
35.59974324
35.54049015
35.51793032
52.27709962
44.77938677
41.01636863
38.81684078
37.51151182
36.65139661
36.12618053
35.64576801
35.47080795
35.3918277
35.36167749
53.94850774
46.14388114
41.80794666
39.237623
37.72517883
36.73307154
36.13518025
35.57316124
35.35678268
35.25730993
35.21871576
54.6573541
46.99867326
42.36025603
39.55659532
37.90605255
36.80851648
36.14660618
35.51702129
35.25895128
35.13878449
35.09143619
49.44047113
44.0125823
53.26925396
49.91171806
54.96745068
53.57860775
55.62906794
55.07738452
55.6683016
40.61845278
43.49839852
40.38608782
54.33287332
46.05070247
48.22268521
43.41895287
41.50501899
57.18788116
60.32937164
51.96250011
45.73084834
44.03649665
55.02483932
54.65670791
53.81435206
47.39779812
46.20288715
56.7987397
55.70173069
40.92436391
58.02626516
57.67626437
60.32153632
54.70845337
47.12401402
53.44736008
58.85587328
54.7877184
56.90315426
51.80188903
58.25902361
56.6985652
59.02706204
58.41727724
51.54351337
55.49578167
55.11970347
54.51074361
57.19385899
57.46214354
56.61825765
57.14728935
54.32398817
57.60699467
56.92227205
44.3077845
46.49923838
58.06847984
40.37749761
69.69667895
50.35287255
60.17844874
54.61654685
48.44620879
47.70001597
70.62482947
47.12865991
45.3629954
45.56137152
52.31915601
46.43746912
44.87272802
41.58909247
55.42923609
57.82089212
57.99315562
57.50406999
57.78925107
55.36261517
42.46426649
45.40094642
42.45462182
42.49867424
76.03932176
50.83738919
69.30349868
48.91798611
64.53971463
49.84698313
59.39293969
59.5930659
54.73866088
54.71907643
41.77183285
53.63147333
56.36512411
42.71985188
41.46995121
57.1541948
43.60619818
56.2153129
50.69704431
48.14969872
62.15231565
58.55055541
58.14304502
55.96555568
56.14634306
57.51572189
56.32983274
55.74456487
56.87283925
56.48470397
57.39578687
59.40402007
54.35593417
53.23901767
55.5148594
54.67857285
59.34527117
55.72545835
58.23910295
55.6416176
41.53292339
44.03411942
57.26307801
41.27482927
41.53989787
71.87829428
51.45052413
69.59705841
40.77336428
42.60941628
58.59370719
43.94216063
51.95565844
44.42270994
48.9741825
44.22669642
44.53952964
58.24013951
61.95988583
60.07034906
60.19829545
54.81091032
44.6466415
44.40751696
51.35972174
50.92420915
54.4428825
59.84733015
64.35735687
62.46017314
56.28132815
50.88559105
49.22941738
52.81441296
51.40288496
56.67830809
55.23997184
51.68200145
51.56370846
56.3761116
44.41527138
44.3551771
55.32011972
57.31095945
57.46370564
57.41814155
56.50944874
57.20867482
56.97025566
57.39376038
57.26352836
56.51493812
57.35216972
44.67427662
49.60943535
62.4024492
61.40249484
60.85580648
60.04713771
59.86102427
59.5661683
39.92354947
40.41527391
71.05801925
65.66929273
51.93675146
66.08205376
50.99634908
43.54487566
42.7074375
58.21282184
66.97447736
76.486319
59.89877718
55.35146298
64.65651369
60.8594083
54.47395752
50.71899548
57.82459858
57.03504814
56.78406596
58.61531315
60.05893744
59.57886259
57.74082164
46.271496
45.01979219
54.75607387
53.08619717
52.02220376
46.97789399
52.35101455
51.54691174
54.48516586
50.96304499
46.82061331
44.11426345
45.45818381
41.71252884
49.64661441
48.39390445
48.18317203
45.93230736
44.54289299
47.89691631
46.51571955
46.52726782
48.36300702
39.96981873
39.85925347
64.79425219
63.84478316
59.56275961
65.57386826
67.11407913
66.02981208
66.71259221
65.87651872
67.608327
66.45812553
56.72620838
63.83059616
64.97529656
52.08656956
51.68786292
55.41400805
56.37288304
53.49643922
52.30002132
43.22436343
43.29840491
44.17174551
43.36323714
57.95985299
44.48201584
45.94141669
43.33023569
43.97144243
66.9622629
41.04936543
65.49897711
56.97951609
64.98990901
41.07754285
72.27364202
43.11143853
40.91256577
39.43150496
70.20240348
69.60769735
48.61320732
70.75018107
58.0052554
58.1341921
55.80026356
47.35275558
46.37263376
51.11506354
58.65008544
47.02519467
47.33330093
41.86509577
42.25592113
45.05270855
52.7341408
57.43256383
60.71462833
41.23964639
40.18688976
45.12685827
50.45022096
52.52693071
57.8663148
61.70487454
63.61595239
56.28051514
58.03353853
50.28585592
73.32201529
64.96387952
41.67610995
70.47175361
59.42688512
47.50183922
50.6851883
69.49615135
40.5038339
40.11352538
47.64605764
48.65197053
46.86235451
49.4245641
43.24890503
42.33703483
40.69679431
43.76058539
44.18328106
47.96219989
71.89248294
65.41992179
62.14644496
75.30541167
72.01528097
42.18593709
49.59382705
47.56081705
62.20336874
61.16529524
48.74808497
51.15286773
50.07005443
41.5874763
58.05325266
43.62881092
44.45727956
55.56719575
42.92340487
44.63270063
56.92425732
56.22315075
45.32542085
46.15494184
57.70886039
55.8906893
56.22362507
55.4006572
44.38502389
45.29932085
71.83204656
69.63866444
68.61075709
53.02955925
50.4734862
41.80435043
60.04004458
62.68981485
65.79038094
46.27563725
67.96530814
59.29780705
68.38678975
66.51866681
48.84787102
45.83220462
46.81353334
53.11940287
54.77035792
55.21380323
54.06081392
54.35688036
61.37932241
61.07414414
61.49546344
60.13720751
60.55669992
60.71581653
51.47815523
46.76844252
47.12014892
46.24526963
46.477143
51.81366453
63.49591749
62.69857006
62.80973882
61.97547959
62.35409447
62.94958256
51.41526172
48.20457102
48.61163588
47.46591581
47.83577858
51.49833094
53.53339007
53.47746973
52.75882251
52.81604551
74.67986858
75.5873364
72.24529359
55.15405975
75.01390858
66.35784705
74.05984374
67.02611189
70.10621788
64.7170034
54.40413822
71.93178702
65.72044189
60.68269499
60.02485559
71.03077104
54.28366956
61.07694811
62.22212613
66.41031634
68.31303654
65.13212555
70.65955543
65.97922093
71.39173246
63.19513743
66.97607353
70.44672543
72.56490016
71.76183646
56.50243748
57.19074222
57.55355067
56.06084073
56.18593342
55.97284467
58.85536047
59.19104836
59.59441665
58.22472655
58.59163142
58.36649289
45.84659575
46.64345258
46.65619107
52.64142502
52.39857262
49.24481139
53.80082192
53.75563047
52.64671788
51.65245204
52.48006933
48.86367961
46.27889566
46.16465672
46.62282998
46.47456094
47.42306088
61.67973966
54.71095057
42.85929441
63.98606507
63.74395382
63.23438809
46.88827391
61.67290838
60.65664826
42.61692581
42.9381037
52.26126354
64.52466227
62.85485878
62.84881972
62.79358859
62.82471161
64.19316567
66.0033136
66.47442868
66.6409949
70.62573528
70.32248157
70.86257959
70.80667357
66.46719724
68.03192393
69.75049078
71.33807315
68.26019153
52.04381347
49.85527711
50.30034591
49.00004993
49.42910431
51.68601833
52.81751688
51.59399186
52.05987829
50.74964091
51.18730484
52.70605129
56.20722645
55.75014081
57.48519111
47.63147579
51.14606206
44.82612516
54.96083843
55.6624445
54.13308674
54.60357771
45.43319094
43.42662119
50.35709649
47.2052948
54.530727
54.90781037
43.73618561
63.92687895
46.49318094
48.22613214
43.02017646
44.71146384
65.15171643
63.56847398
62.50883857
50.41983901
56.00796167
65.93143927
70.55191964
37.10197866
37.04560843
37.10441212
37.0976227
37.0434971
37.09100624
37.05397441
37.01838169
37.03699886
36.96781278
36.95964611
36.94245525
36.85746514
36.89625036
36.83372447
36.77153092
36.85137855
37.25222822
37.12932906
37.25791624
37.24977885
37.12442217
37.23793268
37.17311428
37.07471483
37.14491678
37.03875983
36.97831369
36.9987955
36.87456465
36.85653245
36.83394725
36.71699634
36.75154666
37.57786984
37.31136346
37.59189681
37.58596713
37.30674004
37.5642538
37.44171408
37.22557896
37.39527019
37.22058554
37.07157383
37.15538319
36.96134343
36.88871371
36.90014093
36.73334321
36.71616486
38.30541709
37.69990612
38.33159008
38.32077494
37.6952565
38.24234136
37.99104447
37.55607729
37.89759964
37.58033712
37.29005988
37.47108244
37.15719522
36.99906498
37.06138758
36.80778157
36.74582765
40.26380878
38.57279326
40.3159012
40.07789113
38.54072618
39.69851755
39.05644064
38.20363939
38.8306503
38.1992654
37.71008937
38.00614214
37.48604248
37.22677267
37.33526794
36.94986225
36.83615123
41.9642012
41.96417507
40.65568299
41.3643989
40.65520862
40.14644161
40.37619503
39.12579843
38.4051268
38.78966133
37.95610331
37.59171079
37.72629293
37.16095744
36.99693275
45.62243444
44.12333061
42.68081031
42.40855247
40.28542006
39.40875484
39.75888661
38.52481384
38.0900479
38.19964408
37.42470513
37.22391635
50.3593238
47.46176447
46.2439002
44.36683318
41.46184523
40.60315873
40.75031316
39.11754339
38.68056971
38.69555172
37.70679489
37.49588762
53.07220919
49.82959942
49.07656417
45.86970385
42.45788213
41.75653683
41.6078264
39.64004253
39.26630808
39.13895953
37.96956387
37.7748433
54.30789261
51.1729467
50.79862663
46.85822335
43.15978548
42.67714088
42.22673576
40.04866438
39.76602951
39.48701209
38.19031862
38.02830068
54.81727812
52.34647852
52.20686025
43.30564124
40.1292541
38.23662098
48.60059558
50.26942489
51.56803986
44.35819739
45.36480986
44.80991324
52.9167456
55.24820109
55.69898284
51.96730391
53.03848869
50.70100727
54.82634786
56.61896968
56.81579724
55.8132945
56.13127241
53.85898582
55.56160889
56.58970177
56.62975184
56.36127833
56.4174819
55.18651887
56.65604932
56.69392296
55.72296118
56.78603512
56.29045362
58.3496679
42.01212001
59.29753062
56.43113663
42.81512579
43.01011477
43.76553314
40.55445618
41.89118051
41.57404983
53.68297435
54.61598568
55.32883485
46.98741246
48.01364579
47.22807396
45.87917849
44.4721547
46.25444411
42.77250177
43.86584415
44.63894435
42.31399475
43.08494199
42.13695407
57.511677
55.17949007
54.64991518
61.17616733
60.99349488
60.31736425
48.78611275
47.80036536
50.79859563
45.19822644
46.72078378
47.3128116
45.37811631
46.07741294
44.64174258
54.93985967
52.48116262
52.71150724
51.0741225
50.89383707
54.54869034
50.61027904
50.06313569
53.28159934
47.03407167
48.73410042
49.10440233
47.84044076
48.31749298
46.64989928
56.65712466
54.10508229
54.5147462
49.24572731
50.41767556
55.8798689
39.69679608
39.84799587
41.82937922
57.90544418
53.12340372
54.57310817
56.71119381
56.8820421
57.74722133
60.23435526
61.4889697
61.39494501
56.00412125
56.70181983
55.30304909
48.31385923
49.79371171
48.00825711
54.07634052
52.30455073
51.54741295
56.06876712
55.55980808
58.08722756
54.92676483
51.48766884
51.27128137
54.22971081
53.73169446
56.65069979
54.44188488
55.07940912
52.23858409
57.87225629
58.22496107
58.19505256
58.40314935
58.42253349
56.95867731
59.35456936
56.91160743
56.50481245
58.15527005
58.04107492
58.89305253
50.87210767
53.35055924
54.20684542
55.2834551
47.41706446
48.82824491
52.87379708
52.9928177
55.18504455
56.46467912
56.5927741
54.68418233
57.2323088
58.17571382
58.20162365
57.48142159
57.46896298
57.34550493
56.47477008
58.35365533
58.38075144
58.22920057
58.25297309
56.56925605
54.10230153
56.20617349
56.4188566
57.525823
56.33113158
56.53058122
54.77422624
55.08480901
57.05118215
54.99435092
39.61423927
51.96551957
57.26898085
53.66787022
52.04839808
51.34562373
54.3833871
48.21926857
49.94643918
50.15987907
49.42238124
49.70474668
47.98871543
46.1482303
40.10839023
40.38173778
42.22990004
42.5770241
45.99101203
48.29061635
46.25360307
44.61664852
50.70455076
49.93683265
51.52836722
45.54717916
46.214838
47.77493774
44.30219155
41.42157632
41.73741447
40.80278024
40.71329189
41.84736146
56.52871875
56.56610573
55.51262296
57.91606311
57.66777238
57.4198502
57.67187435
57.668869
57.92981117
57.6321755
57.46122259
57.47836449
57.43201145
57.45593539
57.67323097
55.26960452
56.45474011
56.49845869
43.76204671
44.69578763
45.05015728
45.65816528
42.412157
43.60348567
43.30251586
43.91203361
43.74448735
42.42631275
52.92641319
56.43788984
52.30905175
55.47968003
50.10185476
47.89091646
60.50678761
58.60854988
63.88047829
48.23680762
50.1670762
52.21959899
58.84221841
58.60301176
59.19643042
59.75060372
59.52123047
59.30872541
51.88868898
51.90562658
54.73948624
54.66456187
51.5866532
51.81142887
53.25924462
53.72805502
56.51669282
42.20177253
41.91735977
41.86483052
43.63098737
43.28397634
41.44467994
41.87349292
41.99493986
44.65323688
56.07623931
50.839566
51.34524941
49.89379341
44.12158183
45.13501143
40.6959285
41.32000869
49.02859931
60.54406821
60.82407548
58.91279957
57.69886177
59.71048796
60.17985613
52.8764638
52.64382361
55.77951653
56.28642836
53.20471179
53.07597556
58.43550442
58.41107765
57.78472144
56.15047993
57.45573234
57.57551544
57.12358208
57.31518962
55.96110699
56.75428832
57.84635125
57.91267882
57.67905887
57.76978041
56.6307575
57.06848603
58.43320209
58.43800152
57.55260057
57.23917731
59.41680626
54.00946419
55.48450834
55.82158991
54.68349672
55.09568634
53.63585863
55.25548966
56.68506458
56.93048183
56.15084893
56.417978
54.98192374
59.0354411
58.02009085
57.77664524
45.72567959
46.90104811
56.19678229
55.56482332
53.60984525
53.75312161
42.24623218
50.8415307
51.42570618
52.18752714
51.59051588
42.64987699
57.15298991
55.37267544
55.64129672
41.13697819
41.11641712
40.91764553
45.99882939
44.41078656
41.33320362
46.16728239
41.24999963
48.48118506
46.16019412
44.47904809
45.94067906
46.10388578
45.43301924
44.17271489
49.5365592
46.03552624
47.3715964
47.99739852
50.11340615
44.49444518
45.72578236
45.30553754
46.20579719
46.01966546
44.59473815
56.38947201
55.69730509
57.85164547
60.26568
60.68549843
60.48671463
52.03939555
52.24499751
54.84996021
44.44110879
46.95810193
46.71162023
47.86881305
47.3758335
44.36087873
54.46484316
50.76194883
50.73373164
61.45352254
61.51728771
60.08810363
53.76291405
53.01995913
55.17805552
50.35076986
51.4619682
52.07725165
50.16708379
50.83329538
49.79929255
52.36831556
53.74287053
54.22862368
52.66434212
53.22014504
51.89546207
57.75931362
55.01357136
54.40879499
51.93579351
51.70863328
55.08223397
56.45650021
53.41539215
53.08856494
44.41720613
48.52424038
48.25940453
48.93488807
48.73796583
44.35869365
55.26022778
53.0837718
53.18023273
58.13899271
58.15378425
57.26709554
57.45359324
58.17232785
58.16570192
58.17526023
58.1750298
57.44019652
58.30285635
58.32958877
56.4732657
57.13690115
58.05519902
58.08798211
57.96863865
58.01586232
57.063622
57.35623903
58.15603185
58.16728729
58.11625489
58.138349
57.31796603
56.54158159
58.2608426
58.28620249
55.88773652
56.12269108
57.44728893
45.7848024
53.28049482
52.83754977
54.23172687
53.76999842
48.73413137
55.42121193
59.1943975
66.99306417
40.04394525
41.55046597
40.91008677
43.82095017
42.40487514
40.19085477
54.97146069
48.08572569
41.47723586
42.06839984
40.83103886
41.07247449
45.67203335
42.3953798
40.72679885
40.77479199
58.06728462
61.42860603
63.8346613
58.09414211
60.40632274
57.17227154
65.06438014
66.97854956
62.48482023
52.8107
54.97866312
56.98517851
52.17621699
53.68436408
52.00633755
59.95362108
56.13401179
54.76232994
58.94784951
57.93357651
57.21886261
60.12792792
59.92568088
59.92764528
46.63351106
46.62615666
45.3743871
54.74975116
51.9091847
51.95135351
50.8940189
51.22637212
54.57526054
42.16535731
42.02680739
41.96975783
49.28086841
45.10247752
45.57616747
44.07392675
44.55177686
48.79620252
45.45366778
42.52519871
42.62737411
42.53889137
42.49866966
44.90838982
47.48137295
43.27516953
43.60422764
42.80425878
42.98596351
46.92275123
45.60169556
42.15051523
42.37253864
41.08184936
41.86917255
51.74596765
39.92507188
39.95134237
39.81445597
40.44892018
40.11168711
39.85856479
59.2499516
61.0758524
61.25888224
58.55604315
59.16527053
57.21411626
64.49113924
61.88119544
61.25908562
62.73615296
62.39002657
64.9453662
55.59114278
52.40984647
52.16955017
53.10368022
53.20251425
56.36762058
43.19903474
44.45494159
43.77424909
45.93203239
45.17884968
43.20332028
43.90517957
42.8525025
42.68714241
43.32549262
43.07385211
43.58511757
41.66498429
41.30619898
41.06892399
41.19048878
42.97652656
42.13092855
42.40672965
41.52990795
41.63354161
40.35884602
40.85269759
41.56717854
39.74089101
40.26830329
39.87202346
50.3344552
50.49453268
48.7813016
58.06426146
57.6827351
57.67750457
57.71334793
57.69409934
58.09294532
47.24381785
48.81621096
49.27382704
47.41721845
48.07596154
47.25148147
58.13486443
49.9921032
50.05595861
51.31396893
55.4178176
65.39491321
47.16899521
48.81780428
48.27320268
49.542384
49.38877614
47.24547239
43.03417777
42.76617412
42.17341948
44.28104198
43.34718571
43.48764277
53.28797427
53.94277149
53.34749621
58.63188038
56.02876493
55.11681693
57.81282825
56.87847931
59.62694842
40.8464109
39.68473349
39.74372787
39.72510598
39.66966939
40.43177583
43.11963669
40.0962325
40.50810187
51.17617328
55.00852701
54.63447847
55.65363388
55.3396116
51.87564908
62.57084987
59.44901396
58.61544503
60.72689743
60.05581612
63.03464955
55.71509577
57.32448973
57.962093
39.88211946
40.30725887
40.55501165
40.46795926
40.9438189
40.80127578
40.21616221
46.37753317
43.33315361
43.08591205
48.05586389
48.8120206
49.49474153
50.2939977
49.01578705
48.2756901
40.90417994
41.09288115
43.76030117
41.59237368
40.51766886
40.65339391
40.4296278
40.43036776
41.08089674
43.85950367
44.25635747
44.17700891
44.7698396
44.63564093
43.9956214
46.57229768
45.33189708
46.05551116
50.79505278
47.27668674
47.64349096
46.15989769
46.6317836
50.40872384
41.44764797
42.74680269
42.48198269
53.2960741
53.43800976
55.47040887
44.52874895
49.54968404
49.20530275
50.40812673
50.00602272
44.87418158
46.07252152
47.12122164
46.68504047
47.7600311
47.49718999
46.49222563
51.54977048
48.73406418
49.88978286
37.02805901
37.02623485
37.00815796
37.02068931
37.01160679
37.00304807
36.99490969
36.97328105
36.988371
36.94991863
36.93049083
36.97587214
36.91423717
36.90128411
36.96624017
36.89191663
36.8831059
36.96033564
36.87685995
36.87251956
36.95710518
37.06278502
37.06286395
37.04736494
37.05290343
37.04582441
37.0339439
37.01286043
36.99849992
36.99563249
36.93801374
36.91555027
36.92581777
36.86272284
36.84690575
36.87152825
36.75751249
36.73795782
36.80717311
36.72202154
36.7099595
36.78952162
36.70153441
36.69720757
36.7792963
37.16637288
37.16683698
37.13238522
37.14931599
37.13590837
37.10520802
37.07830415
37.05255259
37.0320601
36.96097354
36.92675385
36.91811457
36.82566251
36.79136399
36.79799973
36.68508813
36.62454571
36.6770161
36.58913021
36.56366616
36.63384804
36.54561978
36.53510029
36.61023907
37.39273413
37.39528545
37.3190151
37.3702705
37.34372346
37.27603613
37.2464617
37.20555148
37.15489215
37.06191371
37.01040779
36.98080382
36.85669315
36.80835489
36.79883263
36.68213438
36.56028167
36.58685788
36.49324834
36.4436198
36.49986755
36.40863718
36.38669034
36.45353292
37.88731789
37.89134044
37.72340681
37.84358587
37.77604972
37.65415437
37.60584421
37.53295965
37.43010724
37.28861809
37.20537646
37.14254528
36.96756744
36.89510887
36.86563571
36.73449767
36.56269237
36.55708907
36.44571428
36.35803339
36.39608553
36.29571936
36.25398455
36.31360619
39.04018264
39.0500579
38.64439471
38.82255985
38.67769138
38.45349264
38.29836742
38.15068143
37.95900983
37.7086993
37.5677923
37.46062531
37.18392086
37.07069006
37.01750935
36.84459261
36.60149546
36.57669782
36.44906094
36.31372493
36.33070844
36.21213444
36.14029089
36.19126132
41.03185169
41.04466259
40.72007601
39.51782999
39.19523415
38.88632275
38.36644208
38.12963222
37.97206742
37.51830336
37.34643274
37.26731868
37.01206154
36.67828046
36.63548262
36.48094433
36.30840757
36.30680225
36.1591143
36.04911537
36.08931223
44.25924929
43.91558073
43.33745327
41.36345824
40.7209571
40.30610328
39.2572642
38.87720984
38.68509013
37.95459301
37.70710718
37.60783149
37.22440593
36.78984938
36.73089787
36.53720831
36.32404731
36.3136846
36.13159147
35.97980197
36.01063987
49.35182799
48.33024576
47.82661294
43.4281266
42.43778639
42.01389309
40.2651438
39.72372806
39.52798023
38.45161887
38.11937982
38.01559676
37.45488304
36.92139108
36.85463752
36.61105782
36.35277709
36.33666761
36.12453447
35.93019111
35.9528277
52.56963611
51.38961583
51.08966665
45.18360718
43.94629339
43.60154211
41.19904559
40.51741353
40.35921805
38.93008602
38.51954171
38.42272565
37.67522492
37.05611229
36.98990438
36.69271234
36.39043119
36.37023543
36.13077372
35.89835536
35.91415528
54.08718976
52.99551536
52.84078789
46.42252959
45.0499005
44.81124003
41.93940006
41.15560018
41.04380514
39.33080734
38.86048882
38.77840029
37.86481564
37.18147886
37.12091435
36.77235506
36.43157687
36.40996763
36.14290308
35.87967776
35.89039527
54.72604694
53.73018028
53.68038968
47.179927
45.76100866
45.59438653
42.44898631
41.59355127
41.52340047
39.60442101
39.09725995
39.05528875
37.23746313
36.45002395
35.87554176
41.02878241
47.30928013
46.76034743
47.5772257
50.77898959
50.43137964
51.61304863
52.69864187
52.51684529
53.6498545
57.9879236
57.53101715
57.64123826
57.74428412
57.4980652
58.64379063
58.11412292
58.56782307
58.62501506
57.74155167
57.7706298
56.77375289
59.16033143
58.12606603
57.92536539
58.707734
58.77029577
58.57518219
58.09703188
58.10270513
57.42608428
56.55828086
57.67688235
57.69612805
57.7263859
53.59775692
53.5347234
54.53680217
46.37298482
45.78082096
45.29949988
57.86686703
58.08099572
58.06801605
58.04475889
58.0442391
57.96933903
57.54643765
58.07908499
58.08533379
58.06567703
58.06410599
57.75040862
42.36435632
42.81767537
42.81572067
42.84977973
42.85752932
42.48880154
51.27597586
49.4813969
48.16673295
58.16599251
58.22867076
57.61457584
57.28723238
58.03804208
58.09859802
58.81968655
58.73977088
59.43374909
59.25942432
58.92550955
58.87641857
53.91411086
54.00007771
55.79471735
41.67113721
44.66858981
44.24690081
47.79385132
47.27511071
43.56476759
55.63676596
55.34203858
55.86995968
57.05111233
56.20884545
55.8756493
57.6205069
57.61851348
56.49857289
56.52102375
57.62173052
57.61911402
45.09045596
48.76903781
48.23784723
42.888836
42.37710528
42.52167065
58.02815022
58.04983858
58.04578537
55.75677144
56.72178387
56.75294165
41.98590695
42.59659319
42.45573938
44.67038187
44.25456158
44.36421265
57.80659932
57.03592553
57.18671091
47.44028363
48.10413677
47.45895089
47.5599107
46.6183001
46.81996901
37.07952037
37.06103289
37.10457262
37.08157231
37.0814921
37.07544684
37.07988755
37.10265356
37.04584114
37.06134762
37.05782116
37.08075769
37.0611119
37.06987858
37.03823406
37.05171142
37.06943811
37.02632729
37.0376245
37.02652414
37.01642307
37.00517656
37.02331185
36.9616196
36.98492458
36.99394842
36.97524793
36.97882714
36.95902696
36.91366829
36.91209196
36.93905401
36.86528382
36.88904714
36.88670951
36.90971781
36.89734323
36.8782912
36.80986464
36.82620115
36.84613142
36.79449628
36.81041201
36.79022574
36.86049591
36.83410893
36.82148041
37.20310802
37.16267064
37.25921616
37.20783148
37.20720431
37.19793298
37.20517351
37.25689023
37.13014187
37.16449461
37.15838969
37.21977152
37.17328361
37.1873114
37.13398874
37.1560874
37.19816912
37.09209233
37.1200941
37.10040495
37.11268285
37.07936834
37.10853585
37.01293558
37.04765461
37.0772997
37.00685517
37.02439111
36.99304372
36.95732034
36.93961221
36.97714324
36.86456021
36.90240307
36.91604844
36.8885325
36.89321469
36.85891085
36.79413783
36.79155852
36.82823683
36.72391761
36.75562336
36.75505833
36.7738731
36.76231127
36.73603123
37.46932089
37.38380623
37.59524947
37.48227891
37.47866269
37.46552585
37.47875254
37.59315857
37.31625597
37.39331601
37.38573067
37.52228156
37.42885507
37.44631216
37.36143343
37.40071615
37.48195364
37.2543152
37.3140682
37.28227949
37.34186076
37.26802576
37.31655799
37.16180181
37.21646589
37.28317609
37.11471818
37.16051217
37.11212557
37.08945263
37.04710368
37.10513316
36.93104136
36.9886174
37.02466786
36.93481325
36.95881254
36.9070785
36.8416243
36.82259879
36.87557038
36.72385
36.77229358
36.78616095
36.75693492
36.76257285
36.71852071
38.04200979
37.86684493
38.33946565
38.08529235
38.07572505
38.03094399
38.07188795
38.33857601
37.71691016
37.88874962
37.88151429
38.13924068
37.9810751
38.01026276
37.82740041
37.91246497
38.06942726
37.61311698
37.72281619
37.66952389
37.7954835
37.65256642
37.7411654
37.46931716
37.56209874
37.68885726
37.3621406
37.45345787
37.37148313
37.3633476
37.27932766
37.37375105
37.0966566
37.18698929
37.2584089
37.07026691
37.12369437
37.04383493
36.97097804
36.93005377
37.01088812
36.78286652
36.85423784
36.88639649
36.80422127
36.82685807
36.76271221
39.46674033
38.99943973
40.31690743
39.55997923
39.56405876
39.33612022
39.46941222
40.19491003
38.61076305
39.04599972
38.99149941
39.4706799
39.14213881
39.29211654
38.72608377
38.91959557
39.27902182
38.33134932
38.56527825
38.43879075
38.6120946
38.36548704
38.54316625
38.01958548
38.19124344
38.40077684
37.83556895
38.00151843
37.85338286
37.82217399
37.69109048
37.85162347
37.39112445
37.53742931
37.64822877
37.3417239
37.43252994
37.30439979
37.1957222
37.12905749
37.25460315
36.90703535
37.01350281
37.06726912
36.92370778
36.96563363
36.86940912
41.97171433
41.52280888
41.47843335
41.42834949
41.48348595
42.01539128
40.70601758
41.07633026
41.06394067
39.9101476
39.53566396
39.92095441
38.87208086
39.18946621
39.49689023
38.64027631
38.89800865
38.62235347
38.48552672
38.30752485
38.57898509
37.82697236
38.05663928
38.20860762
37.77503517
37.90971911
37.70603597
37.5181908
37.4281687
37.61778449
37.10338246
37.25722152
37.32991348
37.1257553
37.18977803
37.04809587
45.06101422
44.46584721
44.87895927
43.55968174
44.0069939
44.51819654
41.58466708
41.15114699
41.8777482
39.99899008
40.53464279
40.88759947
39.83056673
40.1687452
39.68542448
39.29752842
39.1028729
39.5262953
38.38372359
38.72305753
38.88912739
38.37233853
38.53685345
38.23042359
37.90982949
37.81073783
38.08073406
37.35737776
37.57049858
37.65238721
37.4048961
37.48616342
37.28895398
49.25331184
48.79705911
49.86331224
47.05527153
47.86177884
48.28281565
46.97802938
47.43568608
46.6996406
43.23584994
42.84611596
43.90192625
41.20036802
41.9597093
42.28134059
41.2554158
41.60486625
40.88817011
40.13471058
39.95431757
40.53965543
38.98120874
39.43690536
39.5952881
39.07863128
39.24808527
38.82612056
38.32299182
38.22470311
38.57905361
37.63878688
37.91265391
37.99483042
37.73938078
37.82557493
37.56704586
51.90848477
51.65173004
52.82948704
49.60427009
50.56961774
50.82882026
50.02066957
50.31695516
49.34110839
44.554606
44.25942892
45.52833241
42.24701188
43.18156316
43.42944038
42.60825747
42.89584543
41.98938274
40.86272898
40.71863193
41.43268297
39.52886507
40.08707837
40.2102516
39.77730188
39.92163089
39.39452763
38.69599854
38.60920856
39.038105
37.90679897
38.23392491
38.30789625
38.07702779
38.15893264
37.84390866
53.23931367
53.10440168
54.18910996
45.45296084
45.2585155
46.6317594
43.03856196
44.07747413
44.22878812
43.67180993
43.86467444
42.83543934
41.4109932
41.30177636
42.11745644
39.95878533
40.58651549
40.68721029
40.36645356
40.4629224
39.85964426
38.99449442
38.92494689
39.40767675
38.13713022
38.50339832
38.56444266
38.37733043
38.44857224
38.08950124
44.38061041
44.51643853
43.42113729
40.7815892
40.84516079
40.18433118
38.61708107
38.65582821
38.27589987
50.71589664
49.8459119
49.373475
50.59660219
50.17616703
51.15405778
55.4165037
54.26918343
54.08429446
54.59644687
54.43588142
55.55413045
52.34441827
51.29993525
50.9192543
51.94228377
51.60952625
52.70216411
56.64982885
55.87912104
55.83896673
55.93598056
54.8787027
54.74226528
55.12209761
55.0053093
56.02810046
41.43225876
41.02555817
40.97653604
40.53231413
41.7713879
41.2681751
41.30816322
41.07120236
41.14891055
41.66379219
45.37689574
46.02606131
46.51422856
45.02502409
45.53332838
45.01351743
46.96810481
46.20853176
45.62568173
48.47529055
49.38511232
49.72423809
48.66571903
49.04579633
48.1586763
51.23462419
50.07129897
49.67019357
50.45906731
51.43884188
51.62974912
51.03977247
51.26370985
50.25085969
53.48189983
52.34105822
52.12385192
49.62887683
52.93846179
52.76830287
53.31994972
53.15565049
50.0733487
57.30479037
57.43696637
57.94379303
53.6517413
56.1921591
55.92502771
56.639495
56.42265909
54.15209109
48.80984403
48.1957872
47.64126379
49.03683387
48.53032018
49.3186522
58.38679895
57.28212645
56.99407678
54.67483902
53.49030726
53.25507353
53.89619561
53.68187691
54.87384795
58.43577612
58.47844398
57.97598924
58.25949333
58.50714434
58.53669447
58.47749643
58.50103211
58.22219715
56.87121949
57.82408606
57.8635344
58.43060886
58.27092128
59.26830713
58.11880834
58.3986746
58.44773996
58.23584995
58.33459432
58.07631523
58.73673005
58.84707625