/*--------------------------------*- C++ -*----------------------------------*\
| =========                 |                                                 |
| \\      /  F ield         | OpenFOAM: The Open Source CFD Toolbox           |
|  \\    /   O peration     | Version:  v2012                                 |
|   \\  /    A nd           | Website:  www.openfoam.com                      |
|    \\/     M anipulation  |                                                 |
\*---------------------------------------------------------------------------*/
FoamFile
{
    version     2.0;
    format      ascii;
    class       volVectorField;
    location    "0.78";
    object      U;
}
// * * * * * * * * * * * * * * * * * * * * * * * * * * * * * * * * * * * * * //

dimensions      [0 1 -1 0 0 0 0];


internalField   nonuniform List<vector> 
3259
(
(99.99746962 0.4205972517 0)
(100.0009872 0.4346233356 4.826832243e-22)
(100.0037967 0.4086765961 -1.131073311e-21)
(100.0054523 0.3525596551 8.421838174e-22)
(100.0057609 0.2837137308 0)
(100.0054888 0.2161236707 1.512066443e-21)
(100.005263 0.1559408496 6.236756875e-21)
(100.0028335 0.1110806779 -1.782999403e-21)
(100.0117918 0.128541843 -1.55688366e-20)
(100.0082221 0.07968819638 0)
(100.0061754 0.04285788911 -1.966703158e-21)
(100.0059468 0.01361325054 -1.386213745e-20)
(99.87606207 1.897968756 -5.327622924e-21)
(99.9683748 1.982099273 -4.03222651e-22)
(100.0635576 1.879311389 -4.001177981e-22)
(100.1288088 1.632266996 4.330787519e-21)
(100.1507018 1.313458104 -8.889568794e-21)
(100.1389093 1.002888436 0)
(100.1526634 0.7665355019 -2.66902071e-20)
(100.110973 0.5287593795 5.169047294e-20)
(100.1109339 0.3684707002 1.507627648e-20)
(100.078898 0.2276140102 3.122978226e-20)
(100.0600416 0.1227274543 -3.132219196e-20)
(100.0527417 0.03895687369 1.582943709e-20)
(99.65175391 3.732681005 4.858807528e-20)
(100.0311067 3.918321322 0)
(100.3669721 3.679274371 -2.745931253e-19)
(100.5682519 3.141955465 3.472252499e-21)
(100.6223053 2.488733103 -9.628839204e-21)
(100.5647527 1.853583645 -2.341078882e-20)
(100.5084864 1.318705798 -1.601586058e-19)
(100.3790973 0.8954473558 -3.59113704e-20)
(100.3085476 0.5612251326 -1.552899654e-20)
(100.2220975 0.3447071197 3.533362308e-20)
(100.1695947 0.1857100123 -3.978550318e-21)
(100.1464382 0.0585817973 0)
(99.32492381 6.052047423 -3.635117374e-19)
(100.2945954 6.24432315 -3.645771339e-21)
(101.0411496 5.671169209 -8.758821941e-19)
(101.3934924 4.696634323 5.758944635e-19)
(101.4281281 3.596283805 1.709089444e-19)
(101.2696126 2.601434851 0)
(101.0658068 1.759766883 5.891091949e-20)
(100.7876073 1.165375204 -4.584537868e-20)
(100.5870596 0.6796771137 -3.98843063e-20)
(100.4239769 0.4120756969 2.023807661e-20)
(100.322414 0.2196881398 -4.066060501e-21)
(100.2757752 0.06870615084 0)
(98.9583135 9.275718394 2.492485289e-19)
(101.164205 9.242087121 0)
(102.5066215 7.851451526 1.21458456e-18)
(102.8936298 6.115625034 0)
(102.7099023 4.515632884 2.314353317e-19)
(102.2623295 3.129351267 -6.4977545e-22)
(101.795866 2.005965501 -9.899683173e-20)
(101.3089916 1.292850596 8.255969521e-21)
(100.9134033 0.6919803449 0)
(100.6541453 0.4137371857 4.162578305e-21)
(100.4920048 0.2157820936 -3.125869741e-21)
(100.416408 0.06659034559 -1.036963975e-21)
(98.16112058 14.34922092 5.008314092e-20)
(103.3648268 13.42433298 0)
(105.3755591 9.956983097 -1.048712681e-18)
(105.2969086 7.070199854 9.853694517e-19)
(104.5082828 4.951513325 -1.285295179e-18)
(103.548492 3.313400457 0)
(102.6319486 1.968659612 2.558374477e-20)
(101.883803 1.228834547 -1.718656846e-20)
(101.2483544 0.5807790974 0)
(100.8773321 0.3376620074 0)
(100.6484327 0.1677195335 -1.055394437e-21)
(100.5412521 0.05053639667 -3.172363531e-21)
(94.14975515 24.0098815 -2.569471151e-19)
(109.392739 19.43468571 0)
(110.2900492 11.20820306 2.7035871e-19)
(108.5703141 6.970729185 1.110779619e-18)
(106.6891783 4.552687527 0)
(104.9767603 2.927643546 1.760489012e-19)
(103.4742031 1.575334455 0)
(102.4292329 0.9179035422 9.527914499e-21)
(101.536106 0.3434614258 2.793224244e-21)
(101.0525908 0.1764261329 -3.298915613e-21)
(100.7605368 0.07435089709 -3.750731284e-21)
(100.6226799 0.02044755915 9.012634669e-21)
(124.4050235 22.24930792 0)
(116.9803997 9.206908052 0)
(112.0723034 5.029771329 3.122859257e-19)
(108.7799776 3.068841366 0)
(106.276785 1.849270768 -7.739099789e-19)
(104.154866 0.800281408 -5.118570258e-21)
(102.8364124 0.378426658 2.157642981e-20)
(101.7122115 -0.01306088445 -3.420811117e-21)
(101.1384154 -0.05883484692 2.793827338e-21)
(100.797115 -0.05815187312 -5.388529911e-22)
(100.6336762 -0.02216209409 -8.488109913e-21)
(137.015621 6.557271469 -9.355407703e-20)
(121.5661342 2.595830407 0)
(114.3711594 1.191062705 3.224104226e-19)
(110.1054074 0.5711816583 -2.810146189e-19)
(107.0745793 0.1987255066 -2.612495011e-20)
(104.5042692 -0.2649393825 -5.263149347e-21)
(103.0082631 -0.3385265313 1.220051928e-20)
(101.7278075 -0.4530465774 1.182361338e-21)
(101.1018615 -0.3451865257 0)
(100.7319913 -0.217537408 4.291122343e-21)
(100.552284 -0.07360703238 4.235866994e-21)
(134.157724 -9.500429651 -4.396158402e-18)
(121.2577102 -5.120705937 1.514786844e-18)
(114.4193521 -3.320468887 6.497250352e-19)
(110.160529 -2.320315232 1.090031045e-18)
(107.1114216 -1.701408486 8.557320222e-19)
(104.4099055 -1.455820772 4.4594726e-20)
(102.88491 -1.135251759 0)
(101.553505 -0.9245635816 -1.157634953e-21)
(100.924092 -0.6508209097 -4.758382798e-21)
(100.5500847 -0.3875166317 5.309633774e-22)
(100.3657821 -0.1286373696 0)
(125.3326358 -18.24214868 -3.279831545e-18)
(117.4469615 -10.76422506 -1.349785783e-18)
(112.4987929 -7.070485889 -1.175983982e-18)
(109.0624969 -4.901621909 1.013379234e-18)
(106.3908592 -3.483970843 0)
(103.8677222 -2.572284321 0)
(102.4678064 -1.895339735 -2.896343854e-20)
(101.1890979 -1.37068215 -1.438179711e-20)
(100.6039364 -0.9416774108 1.085110856e-21)
(100.2497147 -0.5504794075 -3.419147232e-21)
(100.0723672 -0.1816232823 5.01417542e-22)
(116.0563587 -21.30205639 1.035030785e-18)
(112.3428357 -13.59410355 4.98986461e-19)
(109.4836928 -9.394627166 0)
(107.1372432 -6.715158077 -1.703097673e-18)
(105.0858738 -4.835376063 0)
(102.9723783 -3.458355385 2.297687863e-21)
(101.8059587 -2.527060436 -3.499797723e-20)
(100.6648539 -1.749834231 8.525820188e-21)
(100.158179 -1.188375114 0)
(99.84200304 -0.691288482 3.940369962e-21)
(99.68094734 -0.2276941081 0)
(139.3480779 9.670496549 0)
(125.6014696 25.08768756 1.601897997e-18)
(137.0779969 -8.735676847 2.359763586e-18)
(139.870205 7.007903634 -1.018245458e-19)
(127.5659673 -18.83788446 1.812797559e-18)
(136.0818764 -10.48004248 -2.962746067e-18)
(117.5910114 -22.40368298 -1.200715532e-18)
(126.2863956 -19.57461986 -8.016229281e-20)
(116.4004313 -22.52720838 0)
(92.22496493 22.72450911 0)
(122.506223 25.80229131 -1.600273352e-18)
(107.4475159 21.22469262 0)
(148.3692771 28.74500056 2.692365024e-20)
(128.7413686 44.00759363 1.188854717e-19)
(136.4608842 8.9043378 0)
(123.4230518 5.458871636 3.240103994e-18)
(118.6441211 11.00610211 -1.385434176e-18)
(150.3333028 -4.248354478 2.107089518e-18)
(153.0653412 8.950105303 -1.772554487e-18)
(135.0061915 -7.873796745 2.226797038e-18)
(124.3208827 -3.807435009 0)
(124.2513916 3.144525058 -3.432445198e-18)
(136.8847786 -21.14596308 0)
(143.8332264 -15.08192207 -2.015243488e-20)
(126.5154789 -17.51471923 3.490895716e-18)
(120.4100686 -10.90990356 -9.18314562e-20)
(123.6692122 -5.88749227 0)
(124.1101961 -26.84056057 0)
(129.5524691 -25.10993666 4.349472831e-19)
(107.8360874 -32.26209597 6.738164881e-19)
(112.6060942 -27.37065388 3.644540389e-21)
(117.5148637 -27.71461815 1.059188692e-18)
(153.1256517 9.982067013 -3.199580249e-20)
(149.0785669 27.53415845 0)
(135.7004293 17.58583377 -1.627733714e-18)
(147.3955775 25.88268834 0)
(152.0555987 10.00083131 -4.651771221e-18)
(144.2644646 -14.54533411 8.316018484e-18)
(150.0445932 -5.001233815 -2.152420503e-18)
(138.8632198 -2.121060626 0)
(149.2278115 -4.644179085 -4.197192976e-18)
(143.7940426 -14.10382295 -2.016144011e-18)
(152.0382616 8.985954684 3.491599191e-18)
(149.5070225 -3.90526471 0)
(139.0597199 -1.001703783 2.235732305e-18)
(130.3535809 -24.7696264 0)
(136.4182599 -21.47966481 -1.694213441e-18)
(131.3720778 -16.01160993 3.953971599e-18)
(135.9160701 -20.86490395 5.089308542e-20)
(130.1250223 -23.95606022 0)
(143.378049 -14.6374193 0)
(136.8090511 -20.27538839 -1.551101302e-18)
(132.6132063 -14.83749115 2.590556244e-18)
(118.2303622 -27.68826675 -2.130841221e-18)
(123.3555792 -27.00568489 -1.351954561e-18)
(105.0532515 -31.95485314 1.374145854e-18)
(104.4909395 -31.77827871 2.405187139e-20)
(111.9145988 -27.3132224 -7.27689519e-19)
(107.9005663 -32.27436146 -6.599051285e-19)
(153.9824306 53.10250207 1.633932027e-17)
(127.6129231 67.20809752 -3.329052091e-18)
(121.6277326 -28.22392224 0)
(117.1730875 -21.1532206 0)
(114.6479006 -14.59835083 0)
(119.0483455 -12.14629432 2.625353864e-18)
(102.7213039 -30.52615182 8.985773547e-18)
(114.7727335 -30.74149975 -2.45579157e-19)
(117.2940381 -30.6362327 -8.664548353e-21)
(128.159027 40.27391389 -9.389651151e-19)
(146.0160345 28.23354594 -1.956351784e-18)
(133.6951242 19.97377755 5.87072781e-19)
(117.677088 -30.57941934 9.245926669e-19)
(120.2294825 -30.36986999 -5.160541037e-19)
(121.258515 -21.63233938 -1.368563621e-18)
(123.2434268 -26.23446597 -2.694762298e-18)
(118.1992998 -26.92535051 3.198240517e-18)
(129.3383585 -24.29341206 1.673384099e-18)
(123.9848416 -26.06031941 1.36340798e-18)
(122.5027637 -21.23450502 1.486941382e-18)
(84.25323415 33.49385555 0)
(124.829896 44.21508465 2.671923016e-18)
(106.4712103 36.29079499 -8.324338175e-20)
(87.049571 36.09194218 -6.71634932e-19)
(155.2767071 49.79856379 0)
(142.4414288 37.58831504 0)
(153.7883165 49.4465307 2.130841825e-18)
(127.5648176 62.60480813 -3.287980769e-18)
(151.6851723 52.20113123 -1.321181677e-18)
(139.5207058 39.79515646 6.464778442e-19)
(151.7507222 1.469876289 0)
(151.9567961 2.338893062 -2.512924265e-18)
(140.1623803 -18.74199439 -1.893749387e-18)
(140.6349137 -18.32393714 3.790608101e-18)
(122.8342823 -29.82402442 0)
(122.502787 -28.43566782 0)
(126.4057874 -26.23205268 -4.471074273e-20)
(125.4928388 -28.64738765 0)
(123.685264 -29.50598266 0)
(125.6228929 -27.08988328 5.005762585e-18)
(125.4702363 -28.53166976 0)
(127.182833 -25.98776311 3.188889159e-18)
(111.8066547 -30.34643853 0)
(114.0343156 -30.68285302 -6.9763063e-19)
(104.0239093 -30.83784471 -5.463443297e-18)
(152.3847166 17.64171674 1.189490724e-18)
(152.1498352 18.84292484 0)
(147.0483675 -10.37568713 2.15007524e-20)
(147.4167509 -9.735540705 1.165692765e-18)
(146.8457904 -9.39117699 -1.767452117e-20)
(142.8306549 -7.038203015 2.435017544e-18)
(144.1710775 -3.368627049 2.503310075e-18)
(140.5286526 -11.32678623 2.289919917e-18)
(142.3053667 -8.1805194 0)
(146.4918102 -10.03011341 1.092740179e-20)
(151.201834 2.529571458 2.420921507e-18)
(145.4376057 3.625144978 5.31566737e-18)
(145.4121824 8.316495987 2.628084783e-18)
(144.5278323 -2.051738111 2.583589896e-18)
(145.2971695 2.145960811 0)
(151.0147905 1.66667636 -4.736205161e-18)
(132.9411734 -23.36332484 -1.510489236e-18)
(125.9413322 -26.84116683 -1.82646409e-18)
(133.3627314 -23.10612026 3.041064941e-18)
(123.3151621 -29.58223058 5.384756985e-21)
(120.7715183 -29.94728401 2.067265822e-18)
(121.128495 -27.39919993 1.264047831e-18)
(120.5635085 -30.32351195 5.19996982e-19)
(122.5621986 -29.93046374 0)
(99.90292266 -30.0835367 3.423117764e-18)
(111.0659171 -30.19197543 -7.390844462e-19)
(122.9234465 89.8852415 1.306493814e-17)
(113.9199858 -31.87147348 0)
(114.118412 -31.56463381 -1.067369875e-20)
(35.07640277 11.15116942 -1.352125895e-17)
(113.8476017 -31.3872271 9.718335447e-19)
(112.898687 -30.76715738 0)
(69.72452781 45.55607087 2.078398199e-18)
(122.5702978 66.48891987 3.395838235e-18)
(101.8308256 53.8595305 0)
(77.21406806 52.39147389 -2.862907093e-19)
(151.0233235 -1.868797052 1.312701857e-17)
(156.2255984 8.720630373 3.080713786e-18)
(155.4861259 5.525049784 -3.114313293e-18)
(152.7032224 5.991182623 0)
(138.2694666 -20.2285239 -3.449586696e-18)
(138.6560122 -21.79867461 -3.662694893e-18)
(137.368358 -22.66899944 0)
(143.9949656 -16.58136999 -5.04536955e-18)
(142.3907891 -18.15259508 1.116494061e-17)
(142.4963338 -16.56968245 0)
(152.9896857 13.1564132 2.359517655e-18)
(156.3339192 13.1026768 2.6503706e-17)
(156.4714444 9.817198924 -4.549723152e-18)
(150.9800596 18.48564447 0)
(143.4513385 16.80675914 0)
(140.7369633 22.01820653 0)
(145.2316694 9.963553725 0)
(144.0722663 15.05752561 0)
(151.1970882 17.35668295 0)
(145.5104511 -12.84203844 -2.219047358e-18)
(146.0517957 -14.20374763 2.679846072e-18)
(144.5278028 -16.03081893 2.596931436e-18)
(149.0055643 -7.162252098 -4.28999856e-18)
(136.8825709 -22.97045374 -3.775722376e-18)
(135.4063743 -23.72505168 3.32895425e-18)
(135.0737881 -22.20499332 -1.596882761e-18)
(133.3553961 -22.36662472 1.899849156e-18)
(131.8061458 -19.85648318 -3.257306624e-21)
(134.0519133 -18.28550339 1.95589959e-18)
(140.3170858 -17.85212567 -1.846475028e-18)
(137.7856236 -14.8682355 4.214521261e-20)
(139.875174 -12.28478751 0)
(134.8068427 -17.68834308 -1.954383678e-18)
(137.0538837 -15.64001161 2.132427219e-18)
(139.8655968 -18.26746977 1.804480938e-18)
(120.3995333 -27.49717282 1.609977524e-20)
(120.4094282 -29.99644258 -1.028856852e-18)
(118.0012624 -30.00761291 2.909684624e-19)
(101.4903759 -30.83360886 -5.098151057e-18)
(145.3094645 62.60047155 -2.545928015e-18)
(124.3973716 86.15245048 -1.047061847e-17)
(141.2991292 65.29220528 0)
(122.9042342 -27.76701495 -1.848129801e-18)
(123.1669742 -27.64342938 0)
(113.3664608 -31.9554554 -7.270633859e-22)
(113.8694765 -31.87939914 -1.247778503e-18)
(102.399334 -30.11229869 0)
(47.43673648 -6.773697172 0)
(42.44981999 10.50510298 -5.373620171e-19)
(50.73100796 -8.916502103 9.868371559e-18)
(115.1628763 -30.48618182 -1.166402529e-18)
(116.0075008 -31.06258535 0)
(119.1515315 -30.48452282 9.981900033e-19)
(111.8646686 -30.38465579 0)
(111.1385839 -29.85776754 1.588338869e-18)
(157.2335039 41.37710893 1.079617724e-17)
(151.4756714 38.85249131 -2.371057946e-18)
(146.8080831 43.84060111 0)
(155.2136903 32.040693 2.477589463e-18)
(152.66124 37.13780349 4.869154553e-18)
(144.9744956 45.46208285 0)
(138.5711404 49.7067561 2.028348479e-18)
(143.4019148 59.03820105 2.198881834e-18)
(153.926962 0.8221122568 0)
(152.5651933 -1.877093169 -8.736776483e-17)
(151.1894659 -1.054859868 4.481397458e-18)
(152.5392495 5.042929209 0)
(155.1834883 4.515950195 7.690965945e-19)
(154.2479498 1.72400616 0)
(140.7210802 -20.20940714 0)
(139.1542613 -21.44627688 1.927520517e-18)
(138.7443042 -19.88800919 1.75964924e-18)
(137.6346989 -21.93464719 -1.337087174e-17)
(139.5476975 -20.68292246 0)
(136.5909503 -23.04886533 0)
(137.1032589 -22.29151348 -4.187325451e-18)
(140.104566 -20.14159859 -6.541258459e-19)
(142.0371631 -17.02167572 0)
(141.8265224 -18.56826022 -3.980199219e-18)
(141.216869 -19.74038149 -2.237762427e-18)
(122.9314932 -29.42925543 0)
(122.9869623 -29.21724173 -2.626660697e-18)
(124.9031823 -29.17273115 1.294284306e-18)
(125.5696858 -27.92008465 -1.223682721e-18)
(126.7396262 -27.64517869 -1.287933317e-18)
(126.1775282 -27.80459437 0)
(128.749366 -26.96611381 3.319349723e-21)
(129.9662517 -26.52218443 -1.42083647e-18)
(127.1288054 -27.48282923 2.557532874e-18)
(128.343187 -27.11096485 2.730712906e-18)
(126.0689976 -28.00695724 0)
(106.1340028 -31.7746295 2.176259552e-18)
(112.2211226 -31.85888634 -7.266502353e-19)
(113.1090167 -31.93082338 7.804892935e-19)
(156.3297609 18.12309575 -2.705401789e-18)
(156.2285016 14.36847874 -5.667927884e-18)
(152.8841669 14.23121661 -2.370388208e-18)
(157.2451828 14.52968484 7.826059496e-18)
(157.6426233 18.27800583 -1.591719705e-18)
(157.033665 13.13811708 -1.230681367e-16)
(156.7193715 25.45155649 5.942736792e-18)
(155.8521325 30.34864276 -4.899097965e-18)
(157.7398207 19.53451868 1.652281923e-18)
(156.8935464 23.97162766 2.920175995e-18)
(151.1776394 22.44739788 -2.39664485e-18)
(155.5816223 23.6351761 2.637309877e-18)
(156.3333323 19.45335833 -1.645444663e-19)
(147.888817 -11.55520367 0)
(146.5454546 -13.55554936 -8.125210214e-18)
(145.9089301 -12.24439342 1.127124577e-17)
(148.6011428 -7.823511687 2.176221465e-18)
(149.1133246 -9.034968934 0)
(148.2675246 -10.86464782 3.335698339e-20)
(131.9437869 -25.67600565 1.491018094e-18)
(133.1569613 -25.14814668 4.976869112e-18)
(130.3831438 -26.36399994 1.762149835e-20)
(131.5841807 -25.82354279 -1.695845426e-18)
(126.189453 -26.17925352 -2.703883832e-17)
(134.8138938 -24.08731351 -3.459186742e-18)
(136.2126993 -23.35484979 4.024803372e-18)
(133.5373626 -24.91856197 -6.194984904e-19)
(134.4108738 -24.32522114 -1.588142085e-18)
(110.3981358 -29.60746762 0)
(121.5704243 -30.18354488 -2.797472987e-20)
(113.7915885 -29.55240294 -5.911524601e-18)
(114.2005881 -30.13127364 0)
(113.9650001 -29.44917958 -5.282189305e-18)
(121.8628026 -30.09692852 2.246081311e-18)
(100.1179845 -30.51044601 0)
(121.8145776 22.94949303 0)
(116.5473165 12.07733516 -5.766804242e-19)
(110.551051 12.79735028 8.488674786e-19)
(106.0117993 -30.36524056 -1.544551052e-19)
(106.2657346 -30.29429101 -5.665174169e-18)
(113.1622262 -15.03448873 0)
(105.5377231 -30.04047515 2.116853799e-17)
(117.4960298 -26.9677056 -1.044855006e-18)
(113.0397511 -26.3909101 7.196997021e-19)
(112.9371757 -22.52648604 8.450864072e-19)
(55.51886263 58.13881497 1.108016214e-18)
(52.30830172 33.8271786 0)
(38.24836553 20.78709858 0)
(108.590388 94.55848845 0)
(91.79583152 73.4926214 -2.476972972e-19)
(63.08346203 67.0661509 -1.048936432e-18)
(114.334582 24.98599174 0)
(109.8254579 33.39659934 -1.160708176e-19)
(124.8259275 40.52457154 0)
(145.8456548 32.73552298 0)
(150.5434362 35.93754063 -2.397821984e-18)
(153.3237523 31.21723575 2.353946447e-18)
(110.8493431 -31.61838731 0)
(111.880616 -31.86247211 0)
(106.7330698 -31.90423017 -3.838214017e-19)
(117.2557312 -30.03783656 -1.361600808e-18)
(115.0263244 -29.95075932 0)
(115.388744 -27.68858434 1.858404335e-18)
(154.0394535 29.67410007 2.415589342e-18)
(155.3012386 25.07147961 -3.63073247e-21)
(150.7429478 23.65424633 0)
(100.50545 -31.01146516 2.023574994e-18)
(103.8085934 -31.63935766 -1.077871817e-18)
(97.91122782 -30.35237379 -5.739500873e-18)
(99.21037553 -30.61306076 4.630947577e-18)
(110.4804825 -31.59067254 1.26506962e-18)
(152.0944761 56.05881488 -1.248470913e-17)
(122.0588343 -28.06610297 0)
(108.5090042 -31.71141315 7.86434024e-19)
(108.1434465 -31.47098673 4.373022653e-18)
(103.1298145 -30.43166133 -1.511335106e-18)
(116.0086352 -31.5779249 -9.519058185e-19)
(115.228336 -31.67770566 1.261345143e-20)
(116.1814853 -30.57351207 8.581875465e-19)
(139.5086679 23.70485378 2.407269928e-18)
(134.8481903 28.21953476 0)
(140.1084064 34.87515031 -2.405614663e-18)
(118.7910441 -30.56530863 -9.632106588e-19)
(116.2668561 -31.23849463 -5.095457484e-19)
(116.1404697 -31.52157809 1.289979422e-20)
(114.7844397 41.34504893 -2.639635169e-19)
(106.7136789 50.71292821 0)
(123.4765174 62.22100969 3.335405188e-18)
(155.3696548 46.7895505 1.435157334e-17)
(153.045425 45.8291572 -5.0487216e-20)
(151.3156626 48.13947947 -2.589670736e-18)
(158.1544982 32.70026952 -4.509344974e-17)
(157.7896061 34.96797933 -9.633446495e-19)
(123.0112364 -29.66433553 -6.28620234e-19)
(120.3834762 -29.50267987 0)
(120.449115 -29.70847096 0)
(119.2240538 -28.11505903 0)
(119.9543343 -28.42121128 0)
(123.1539316 -28.75105433 -3.629018387e-19)
(123.9984824 -28.27791431 -1.159834495e-18)
(125.1650021 -28.06487448 0)
(124.5970486 -29.26587843 2.464795099e-18)
(125.1061984 -27.34718841 -1.148229065e-17)
(128.4050931 -27.42913325 2.872738136e-18)
(128.56316 -27.17313579 -2.992799206e-18)
(105.273476 -31.25849238 8.425898554e-19)
(109.4933587 -32.01763217 7.814725666e-19)
(109.0396372 -31.83249379 -7.931624943e-19)
(129.1545111 -25.61584162 7.757532811e-18)
(129.6819265 -25.42945905 4.744657481e-18)
(128.8356613 -26.9623529 1.608135935e-18)
(129.1558043 -26.75850676 -2.541415959e-18)
(126.4025617 -26.65239373 5.041182087e-19)
(129.9813861 -25.20936678 -8.042305041e-18)
(129.5361603 -24.91386118 2.526711811e-17)
(134.6316116 -22.49198776 1.946548457e-21)
(134.9562763 -23.94665203 4.803736071e-18)
(133.6874953 -24.47598677 1.987837167e-19)
(100.6168818 -30.34558709 -2.34834001e-18)
(105.232357 -30.55844814 3.589316595e-18)
(105.6737321 -30.44704567 -8.406382251e-18)
(110.4980039 -30.99667287 2.157426049e-18)
(110.7090875 -31.22621278 1.017285937e-18)
(114.1315618 -31.72909336 1.917395943e-18)
(35.84176377 4.01943318 1.94614741e-17)
(25.58994219 14.9892487 0)
(38.38917864 -2.620899531 0)
(113.4908339 -31.26754149 1.010732598e-18)
(108.3442665 -30.34089199 0)
(109.496774 -30.62997365 6.61510265e-18)
(108.7713397 -30.08228463 -3.025354067e-18)
(108.7878348 -30.20084868 -4.85103095e-18)
(113.2381462 -31.02015929 -1.05302023e-18)
(111.0065374 61.98384759 0)
(98.53769378 70.52103561 0)
(115.4724446 85.62157045 -8.561570062e-19)
(152.1372025 -3.342841639 -2.536343742e-18)
(152.3789885 -2.544762686 9.333203196e-18)
(151.4464142 -4.889109672 0)
(151.8022702 -4.116364954 -2.709067247e-18)
(155.9822402 7.647427842 -3.086960841e-18)
(155.0239508 7.698651182 -6.548181559e-19)
(155.2110131 8.750900152 3.252549544e-18)
(154.6131767 5.649316781 2.372614019e-18)
(154.8275123 6.665763731 0)
(155.7419661 6.588444196 6.208415093e-18)
(143.4616777 -17.15014019 0)
(144.2218732 -16.5685937 -4.210906972e-18)
(144.6941413 -16.02335445 2.210123967e-18)
(143.2466618 -17.58275922 5.924942026e-18)
(143.736774 -17.10032901 5.738380332e-20)
(142.8976958 -17.69833251 -4.765555495e-18)
(156.5469083 12.06156971 0)
(155.4022801 12.15024851 0)
(155.2671443 13.26890457 1.491135587e-17)
(155.3693379 9.841073207 -3.816423359e-18)
(155.4437233 10.98545936 0)
(156.6155962 10.96185956 0)
(145.5597847 -14.79995158 -1.066411601e-17)
(146.0401554 -14.27402512 0)
(146.4713579 -13.67051546 0)
(145.1582484 -15.46468112 -2.175493897e-20)
(145.6060555 -14.87337695 2.28458875e-18)
(145.0576116 -15.42276615 2.376261733e-20)
(150.7808117 -6.54066207 -1.857351231e-20)
(151.1263728 -5.691619189 2.722829706e-18)
(149.9214076 -8.001952185 -1.370628636e-17)
(150.3966107 -7.307983701 -2.529334474e-18)
(95.66056488 -29.97935952 -1.073079344e-20)
(97.11602816 -30.02348536 1.196012569e-17)
(98.08561948 -30.28681978 0)
(102.9582908 -31.27963938 7.181878501e-19)
(94.95234135 -29.75608443 -2.033584344e-17)
(148.0256247 64.46688172 2.880963565e-18)
(151.3571266 60.05946724 0)
(149.3249911 59.37984469 0)
(135.5288978 79.41926189 -1.655643808e-18)
(133.8736396 77.28142528 0)
(125.7258031 80.1112066 2.178207504e-18)
(145.7253171 68.47156031 -5.21661218e-17)
(140.4224453 72.93037731 3.131075917e-17)
(122.3972843 -27.90440592 1.772184891e-18)
(122.6468623 -27.40288231 0)
(103.1461676 -30.35003925 1.915030135e-18)
(107.7070704 -31.22603049 -2.783520039e-18)
(106.5073909 -30.84536419 0)
(44.63172171 -3.100698121 0)
(110.7143487 -30.10575479 5.240790333e-19)
(108.0159062 -29.82074293 4.422313218e-18)
(111.1456907 -29.97155054 0)
(155.8362395 41.0079111 0)
(154.5193736 43.54557338 -2.69388456e-18)
(156.4717728 44.32759858 -2.247366258e-17)
(154.4527372 33.66489575 0)
(156.2284748 34.43896359 -2.064906277e-18)
(156.9524696 32.42126607 -8.716412924e-18)
(157.4222672 36.78642574 -3.147634844e-18)
(156.8213448 38.80263409 2.587683737e-18)
(153.5694209 -0.02843538459 -4.093699306e-19)
(153.1020991 0.182410904 0)
(153.3491175 1.038178605 2.801231286e-18)
(152.5649868 -1.693362644 3.144690181e-17)
(152.9770833 -0.6344966313 -8.188514428e-18)
(153.2574948 -0.8121184061 -9.367758501e-19)
(154.8618676 3.574752767 1.569027371e-18)
(154.1112804 3.724585653 2.755897629e-18)
(154.3711796 4.665506832 -3.444743227e-18)
(153.5967797 1.913482878 1.424504026e-18)
(153.8528102 2.809902761 -6.251236557e-18)
(154.5566761 2.640099388 0)
(140.2069354 -20.66198998 0)
(140.3195514 -20.2161325 -3.971907614e-18)
(140.8339389 -19.78625902 0)
(138.2650648 -21.56403257 0)
(138.9112097 -21.17329568 9.657817884e-18)
(136.6541343 -22.74359857 -3.055617805e-18)
(134.5640092 -22.96290233 3.20010172e-17)
(134.7941001 -23.32631219 0)
(136.4727711 -22.60234345 3.638083834e-18)
(140.4556938 -19.68130062 -2.264618389e-18)
(140.3203743 -19.24103962 7.083283624e-17)
(141.8801572 -18.82831947 -2.748363933e-17)
(142.3282008 -18.45000374 0)
(142.7840149 -18.03607765 0)
(141.350192 -19.34610087 2.109594582e-18)
(141.8574993 -18.89532005 5.100776414e-19)
(141.6468975 -19.27872768 2.263648941e-18)
(118.7873088 -29.02398318 -1.002593121e-17)
(119.672474 -29.22147407 9.729805155e-20)
(122.9993088 -29.51601136 0)
(116.1611446 -28.84361405 -1.006002382e-19)
(116.6311868 -29.2053854 -6.340879265e-18)
(116.85321 -29.091367 0)
(123.1743316 -29.01452676 0)
(119.7334521 -28.63756895 0)
(119.3429436 -28.85178425 0)
(128.1243182 -27.75785203 0)
(128.2922818 -27.57446414 1.346127375e-18)
(125.7680038 -27.53052367 8.707552482e-18)
(156.2817558 16.84358974 2.827214577e-18)
(155.0985156 16.76928552 -2.636443742e-18)
(155.0592834 18.00386989 2.562348447e-18)
(155.1629791 14.36873731 5.284835219e-18)
(155.1289889 15.55858698 0)
(156.2496171 15.57171512 0)
(157.4090261 15.70298075 0)
(157.509234 17.03246797 0)
(156.5833592 26.99615365 2.78209478e-18)
(158.0912645 27.2984219 1.657166248e-18)
(158.0885527 25.75126545 -3.432093277e-18)
(157.6199925 30.64519179 1.036224643e-17)
(158.0135619 28.93182639 -1.511044333e-18)
(156.3288697 28.63524997 -2.610614235e-18)
(157.6335542 20.81762522 5.279805571e-18)
(158.162155 24.35584894 -4.035155136e-18)
(158.3465776 22.38820913 0)
(157.2848478 22.23947991 -2.198408764e-18)
(147.4656224 -12.2481209 0)
(147.6967541 -11.75134658 -7.552874957e-18)
(148.0722838 -11.08417013 -2.558629313e-18)
(146.8903458 -13.03841601 9.760971642e-18)
(147.2977673 -12.39778405 2.498575007e-18)
(147.0144221 -12.89310408 2.746099796e-18)
(148.9938047 -9.578014939 -1.753987691e-18)
(149.2546339 -9.122671956 0)
(149.7016467 -8.457120243 1.606142482e-17)
(148.4342329 -10.42626224 9.396452392e-21)
(148.8203828 -9.778675573 2.667293324e-18)
(148.648032 -10.20848715 4.606509009e-18)
(128.3649966 -25.99735614 6.969874097e-18)
(128.7885659 -25.7954 0)
(126.67431 -26.47650835 -5.809216735e-19)
(129.3232053 -26.51117738 6.411349746e-19)
(129.0005621 -26.19700063 1.184207057e-17)
(135.2505922 -23.8422513 -3.657487611e-18)
(133.1666558 -24.10186525 -2.111432767e-18)
(132.6131255 -24.34807301 2.03863631e-18)
(134.3659758 -23.62753391 -1.166306503e-18)
(133.7417995 -23.87615204 1.115450214e-18)
(135.7201654 -23.61053298 -3.852630167e-18)
(133.8220785 -24.71021669 -3.200394397e-18)
(132.0577845 -24.90376883 -1.115055418e-17)
(132.2708968 -25.16171812 2.241226625e-18)
(132.1690462 -24.5819375 -7.40931884e-18)
(131.6164992 -24.78167487 2.604694876e-17)
(134.0887165 -24.56263292 6.511371858e-18)
(113.5287449 -29.69170932 0)
(117.7918811 -30.3611603 0)
(117.8519763 -30.2023622 -1.248086532e-18)
(118.1667194 -30.68815167 0)
(117.9031661 -30.57614007 0)
(113.0865099 -29.86090131 0)
(115.8183002 -29.46932661 0)
(116.2927747 -29.33492986 0)
(117.7055394 -29.98801662 1.914418322e-18)
(116.8473142 -29.6847096 7.402587523e-18)
(113.1997088 -29.20531348 -1.522104426e-17)
(100.5695426 -30.43535587 1.857091611e-18)
(99.68782829 3.164753434 6.838007593e-19)
(99.91951111 1.840444984 0)
(99.73132468 3.245568204 -2.410526656e-20)
(99.94615001 3.399754147 1.109594537e-19)
(100.014646 1.975492154 -2.146431873e-23)
(100.0107712 3.40753707 0)
(100.2240315 3.291178172 -9.941481041e-20)
(100.1083996 1.927662399 0)
(100.2717258 3.213264041 9.9002375e-20)
(100.4106391 2.888423972 2.127327003e-22)
(100.1742842 1.7138618 0)
(100.4308476 2.759028012 1.795544461e-21)
(100.4820191 2.342373967 4.786114756e-21)
(100.1967233 1.40585057 -3.833086703e-21)
(100.4765339 2.199047681 -2.226184817e-21)
(100.4527918 1.778184977 0)
(100.1825867 1.085975762 -1.028624261e-20)
(99.23393268 5.24817157 7.657452761e-19)
(99.5812254 3.632650881 0)
(99.40940161 5.409533118 -6.390130331e-20)
(99.99740779 5.63391322 0)
(99.93994137 3.913726424 -2.321047685e-21)
(100.189653 5.613274664 -7.521068343e-21)
(100.688582 5.31571711 4.706515416e-19)
(100.2997422 3.77297675 0)
(100.8168715 5.153305214 2.225286461e-20)
(101.0852785 4.540825418 0)
(100.5375083 3.294065253 -6.208046874e-21)
(101.1355191 4.309201469 -6.715852859e-20)
(101.1963798 3.576117485 -8.901537425e-20)
(100.6247667 2.653084402 -1.784631318e-20)
(101.1880789 3.330647111 8.738965896e-20)
(101.1069299 2.638354976 -2.832106916e-19)
(100.5876935 2.004949373 -1.124038668e-20)
(98.61636785 8.092941851 -3.534253996e-19)
(99.10199453 5.872211131 0)
(99.06077099 8.344466399 -3.861189627e-19)
(100.4419807 8.535517114 0)
(100.0584699 6.280747048 0)
(100.8617251 8.40746891 4.216745349e-20)
(101.824953 7.632430079 -1.933916812e-18)
(100.8915352 5.866183135 -2.282370079e-21)
(102.037453 7.293764129 -1.424020126e-19)
(102.3942356 6.183789959 -2.818097676e-19)
(101.340702 4.959762192 -5.823756085e-19)
(102.4375488 5.794657446 1.482481982e-18)
(102.3989722 4.673759279 4.9153375e-21)
(101.4432741 3.873726834 -1.761514993e-19)
(102.3414146 4.318818487 -1.089554899e-18)
(102.0846302 3.320283609 0)
(101.3200073 2.829096731 0)
(97.45115667 12.2485008 0)
(98.41008393 8.972160349 8.3417427e-19)
(98.47378151 12.79390827 4.180104477e-20)
(101.7378388 12.71506063 1.302772771e-19)
(100.659939 9.423917284 0)
(102.6153479 12.21849889 0)
(104.2283276 10.18637887 6.605210409e-19)
(102.275832 8.258691292 -1.20501596e-18)
(104.4831323 9.463385545 -1.738112445e-19)
(104.6837626 7.488401831 0)
(102.8628406 6.552615122 0)
(104.6116532 6.905064621 5.965714337e-19)
(104.1944523 5.36207298 1.136128928e-20)
(102.7929232 4.898520898 -9.292225715e-19)
(104.0133325 4.906036045 -1.771876658e-18)
(103.4121723 3.678982322 -8.259673992e-19)
(102.3847207 3.448800039 -1.449417364e-20)
(93.39281181 20.99364549 3.072788225e-19)
(96.84519684 13.67723454 1.697768864e-19)
(94.91593366 22.08425752 -4.538439347e-20)
(105.4709233 19.75310217 0)
(102.309833 14.10702983 -1.476100256e-19)
(107.1550684 17.8764975 -9.223196565e-19)
(108.9175869 12.47165093 0)