/*--------------------------------*- C++ -*----------------------------------*\
| =========                 |                                                 |
| \\      /  F ield         | OpenFOAM: The Open Source CFD Toolbox           |
|  \\    /   O peration     | Version:  v2012                                 |
|   \\  /    A nd           | Website:  www.openfoam.com                      |
|    \\/     M anipulation  |                                                 |
\*---------------------------------------------------------------------------*/
FoamFile
{
    version     2.0;
    format      ascii;
    class       volScalarField;
    location    "0.98";
    object      k;
}
// * * * * * * * * * * * * * * * * * * * * * * * * * * * * * * * * * * * * * //

dimensions      [0 2 -2 0 0 0 0];


internalField   nonuniform List<scalar> 
3019
(
46.71970307
52.80360248
46.17208516
42.03994679
39.49789082
37.93793571
36.8030212
36.10468237
35.42728338
35.14789423
35.01440886
34.96127851
56.12227533
52.78817185
46.32451059
42.17154056
39.62013101
38.03320245
36.84264085
36.09924994
35.37174219
35.06541516
34.91502834
34.85474416
55.94398844
52.20534355
46.11334659
42.1362553
39.65396033
38.08782446
36.86005222
36.07992844
35.31592719
34.98792649
34.82311864
34.75680623
54.04670415
50.91753365
45.57823039
41.94721793
39.62199212
38.09547072
36.85177937
36.04272344
35.2526562
34.90902355
34.73381449
34.66254627
52.50238234
49.32070169
44.77849111
41.65177864
39.5563983
38.06636025
36.80824581
35.98615933
35.18137725
34.82763094
34.6437179
34.56839186
50.98878777
47.81488074
44.01141612
41.34358303
39.42821967
37.98059055
36.7270779
35.9053171
35.09589864
34.73658348
34.54864197
34.47031348
49.61321168
46.71373198
43.4760238
41.06687607
39.24805111
37.85081804
36.6185287
35.80510524
34.99854774
34.63746497
34.44732551
34.36735578
48.37991098
45.9978
43.0420428
40.77581561
39.04104961
37.69274494
36.48931146
35.68845248
34.88920116
34.52866242
34.33770711
34.25672503
47.22620962
45.33681327
42.63073254
40.48464775
38.8217786
37.51762126
36.34482802
35.5585849
34.77049897
34.41270696
34.22201227
34.14053333
46.14429291
44.71505847
42.24192846
40.20054367
38.59862027
37.33313375
36.18949217
35.41865763
34.64253393
34.28797762
34.09790353
34.01623346
45.13462032
44.12621662
41.87188367
39.92647152
38.37649631
37.14438441
36.02707629
35.27141902
34.50926398
34.15918086
33.97015408
33.88851584
44.1804295
43.56500706
41.51715801
39.66271174
38.15815869
36.95464887
35.86056451
35.11921136
34.36929879
34.02284546
33.83462352
33.75306248
43.27076859
43.02701992
41.1753854
39.40836306
37.94493811
36.7660496
35.69216532
34.96384335
34.22804675
33.88637441
33.69919198
33.61777173
42.39547787
42.50850831
40.84470573
39.16226753
37.73723973
36.57984832
35.52341944
34.80678838
34.0811243
33.74233011
33.55562074
33.47424078
41.55136941
42.00638719
40.5235715
38.92340865
37.53502182
36.3967611
35.35540491
34.64905167
33.93704897
33.60294417
33.41702039
33.33569063
40.73541472
41.51819366
40.21060668
38.69088549
37.33800291
36.21712181
35.1888197
34.49152992
33.78605059
33.45354058
33.26762758
33.18617569
39.94344813
41.04193953
39.90466106
38.46393277
37.14583119
36.04106182
35.02413078
34.33464586
33.64331478
33.3155123
33.13011183
33.0485557
39.17447783
40.57620688
39.60472757
38.24184901
36.95810401
35.8685622
34.86163113
34.17904447
33.48885231
33.16108736
32.97527848
32.89340969
38.428969
40.11981509
39.30997472
38.02401467
36.77441889
35.69953528
34.70151432
34.02472609
33.35176728
33.02894167
32.84338587
32.76126534
37.70615454
39.67209726
39.01976557
37.80990826
36.59439807
35.53382793
34.54390522
33.87238642
33.19167523
32.86738383
32.68114018
32.59852354
37.00556945
39.23277046
38.73356874
37.59905696
36.4176643
35.37123447
34.3889482
33.72163044
33.06656208
32.74713505
32.56083679
32.47786903
36.32758821
38.80240355
38.4510042
37.39107895
36.24390367
35.21163256
34.23705024
33.57386423
32.89402786
32.57298628
32.38591356
32.30227228
35.67351505
38.38055406
38.1718122
37.18563365
36.07281483
35.05479791
34.08948546
33.42910925
32.79244115
32.47342947
32.28594699
32.2019043
35.0486615
37.97039834
37.89748217
36.9830873
35.90445691
34.90066563
33.95037175
33.2931144
32.57033783
32.25013977
32.06148904
31.97645045
42.33441461
45.71538911
54.24606078
52.61456127
42.71491939
55.71656809
54.73954557
54.27033281
54.32449535
52.98462179
57.28322141
49.27607131
48.55218122
52.2067457
57.59478891
57.37460157
39.6859862
44.93437271
39.55078091
40.53195772
54.48110521
45.89773794
56.4404919
54.16591997
54.674723
55.77978505
54.86350039
41.17536982
57.74059047
57.65686973
52.73890598
53.43212198
61.19698224
39.73701667
41.61365511
51.24083516
48.29071997
41.60712708
40.3982239
50.10214778
61.42741182
41.66953808
47.43981105
68.06797229
39.8400276
40.84182244
39.8105344
39.7773958
60.03007994
63.56092362
39.63256174
61.24562671
53.92464425
53.42760849
47.55150141
40.83908509
40.86397737
39.74751055
45.15902983
40.29549406
39.65693246
46.75125693
64.88337474
67.38481258
69.09672559
58.01950242
66.05760424
40.56793875
39.91374135
58.35617405
52.76171066
59.32074822
55.29992163
64.51084503
64.60961048
62.48756523
42.99797018
56.54162243
50.39895708
63.11204576
64.25675938
45.14229008
48.16991694
51.97837132
66.71145315
54.6628577
43.63607135
45.33188441
59.94134251
45.6772651
48.07634842
41.89871105
43.71399611
60.94842617
46.11678287
42.80569821
41.96020473
39.97342611
39.45408251
38.22757768
49.4483089
56.61771338
56.04974947
52.85555779
47.71789737
47.61512711
46.30473685
42.99907914
42.88856565
42.15010436
40.12998242
40.02068871
39.59933855
38.34467634
38.26177981
56.42155895
57.4023005
57.70871539
52.42519352
47.54450598
47.72597346
46.19320707
42.99314566
43.02137742
42.15864849
40.17162347
40.14557266
39.6547419
38.41682454
38.36663595
51.45079549
51.28837915
54.47254621
52.79247232
53.88335216
51.28574026
46.96707889
47.440908
45.7491158
42.78878368
42.96094126
42.00676009
40.13055022
40.1699623
39.63493956
38.43319831
38.42423631
51.32275855
51.43582148
52.88062454
51.03783952
52.37459361
49.72638094
46.02449106
46.75189768
44.98583168
42.42810328
42.71319237
41.73363354
40.03436336
40.10901446
39.57643042
38.41244456
38.43145185
50.75800868
51.25219118
51.35510842
49.28943899
50.58502994
48.1627319
45.05863492
45.77315981
44.18693646
42.01227596
42.32140768
41.41306166
39.89981597
40.00533725
39.46644049
38.33410827
38.3987425
49.65631625
50.51205903
49.94387371
47.89914264
48.89677553
46.9418472
44.32790102
44.846179
43.58793978
41.68463093
41.92166652
41.13815341
39.71097707
39.85688243
39.29637283
38.20444256
38.30546043
48.36465373
49.34432621
48.68001646
46.99743862
47.63074184
46.17013304
43.83317382
44.19939181
43.14856239
41.36528149
41.60529683
40.84899747
39.49144421
39.65810202
39.09438556
38.04291041
38.16639574
47.08849355
48.03831417
47.50785806
46.22276061
46.79875828
45.49809501
43.37089648
43.71483594
42.73133897
41.04795341
41.28535232
40.5569704
39.25879445
39.43403247
38.87721257
37.86239644
37.99916028
45.8836739
46.78104433
46.40757814
45.49667061
46.03700013
44.86718471
42.93548183
43.25973727
42.33721025
40.74034348
40.96996634
40.27068691
39.02276814
39.19983851
38.65445978
37.67146913
37.81538647
44.73625146
45.59164564
45.38124949
44.8116542
45.32184798
44.27064473
42.52174028
42.83019926
41.96284535
40.44519026
40.66536542
39.99400239
38.78881964
38.96393963
38.43175022
37.47599162
37.62286228
43.64374098
44.45805026
44.41446232
44.16097392
44.64600568
43.70296997
42.1257693
42.42120219
41.60454333
40.1621401
40.37334696
39.72772382
38.55981135
38.73103644
38.21229434
37.27975932
37.42690715
42.6017257
43.37872583
43.49440062
43.53907997
44.0029966
43.15955487
41.74493862
42.02923417
41.25972182
39.88971902
40.09310281
39.47113242
38.33695196
38.50350148
37.99773047
37.08513228
37.23089948
41.60335839
42.34838682
42.61129886
42.94130242
43.38755472
42.63648721
41.37707949
41.65183824
40.92642199
39.62641486
39.82309346
39.22307445
38.12043327
38.28223496
37.78864239
36.8934417
37.03691194
40.64006267
41.35940149
41.7595918
42.36378772
42.79514163
42.13052608
41.02033252
41.28692156
40.60303893
39.37100398
39.56186735
38.98249647
37.91001017
38.06727287
37.58507564
36.70538232
36.84608176
39.7097778
40.40435772
40.93706579
41.80383117
42.22224114
41.63906016
40.67304804
40.9326838
40.28815499
39.12245202
39.30826084
38.74847104
37.70524655
37.85830824
37.38679298
36.52123249
36.65898341
38.81322652
39.48247488
40.13926416
41.25861937
41.66619554
41.1599725
40.33382575
40.58752828
39.98054796
38.8798691
39.06127407
38.52018899
37.50565445
37.65487914
37.19344192
36.34103631
36.47581906
37.94836649
38.5941291
39.36450553
40.72711598
41.12449729
40.69171297
40.00151801
40.25014302
39.67919557
38.64249059
38.82006686
38.29694868
37.31075727
37.45651059
37.0046412
36.16471873
36.29660727
37.11350798
37.7368935
38.61313552
40.20846981
40.59627028
40.23310455
39.67515726
39.91940413
39.38321277
38.40962079
38.58387729
38.07810334
37.12007462
37.26271136
36.81998107
35.99211664
36.12123479
36.30809953
36.90953445
37.88464906
39.70279463
40.08093473
39.78321645
39.35402819
39.59441031
39.09192306
38.18068793
38.35204141
37.86311235
36.93317696
37.07301383
36.63908112
35.82302578
35.94952971
35.53155007
36.11164665
37.17821979
39.2079121
39.57812399
39.34181861
39.03755247
39.27449281
38.80476239
37.95518352
38.12401046
37.6514852
36.74964591
36.88699588
36.4615565
35.65719135
35.781277
34.78334369
35.34297708
36.4935576
38.72237226
39.08576926
38.90909931
38.72533065
38.95911453
38.52131902
37.73269983
37.89929598
37.44282417
36.56912984
36.70424934
36.28708236
35.49442926
35.61622527
34.06213501
34.60392549
35.82961838
38.2454738
38.60262315
38.48449345
38.41696376
38.64791318
38.24120495
37.51286103
37.67750928
37.23675804
36.39129528
36.52443415
36.11534696
35.33451644
35.45419686
33.36407304
33.89590395
35.18255277
37.77451628
38.1293103
38.06482006
38.11116265
38.34069254
37.96338167
37.29505907
37.4583145
37.03275226
36.21574039
36.34723129
35.94598196
35.17717388
35.29495759
32.6451295
33.22367958
34.51085274
37.27797764
37.67032996
37.6210192
37.78708399
38.03949346
37.66899444
37.06510031
37.24224459
36.81777748
36.0319493
36.17273897
35.76904519
35.01363912
35.13849647
41.74961898
40.01636458
40.26393484
50.39572837
49.57392858
44.64885612
54.14443605
56.89267266
56.99190288
51.59780737
42.29876773
39.68360885
39.65693808
42.96255683
57.48012043
57.34741062
54.3824584
54.29575812
57.08662604
57.07267833
57.01780411
57.07813268
54.30186184
53.67141754
52.52391696
57.19813403
56.28323836
56.7641696
56.09263456
57.15681192
39.60789968
40.13387443
45.17293684
45.96156927
50.02229377
47.71620379
43.42586285
44.28633654
57.27522233
56.7914251
50.26134951
57.52680925
57.41859982
57.55342066
56.89280343
57.28936602
57.45160088
39.60384817
39.50337702
39.78348461
41.79847402
42.61464645
51.66819805
43.97577012
39.7307182
40.03899222
39.52347076
39.92024098
39.68053963
46.74725966
45.65918706
39.75593881
54.05729711
50.64664606
51.39061249
49.82783538
53.57787318
41.72918598
42.55106401
46.82392728
40.74954879
41.18884529
41.10421832
40.79621062
57.0028553
57.38396702
56.35711668
54.39221351
56.14957812
55.84576269
56.99140871
56.36626952
54.53755823
55.51687277
53.2836758
53.77828452
52.08472205
52.69807843
55.20504166
43.59554591
48.67552329
47.72579433
57.73314522
57.80459693
57.86192711
57.64865468
57.73436107
57.70264865
53.94597914
57.20216011
56.9893417
53.12127659
46.82787932
47.22959584
39.95126054
43.30718521
41.68896925
42.36187441
41.83157033
43.7237359
43.21913205
41.35951588
50.55510762
46.84731492
47.42664125
45.13423547
40.25006177
40.88326815
39.67757765
39.89762773
42.88970088
40.07623249
39.50173677
39.52836761
40.01899675
42.49269178
41.45760905
46.84267203
44.07870032
40.31971022
39.79981343
40.18854625
40.04290619
40.81200755
40.39428556
39.76234276
40.82041388
40.25558831
39.5210315
50.91018276
50.82034026
53.1721258
47.44797093
49.05389178
49.15346141
39.60231787
39.74162639
41.29079651
40.3209297
39.5296804
39.600832
39.55672385
39.53334676
39.98647687
40.81188905
40.57051612
39.61950818
45.59587989
43.03282181
42.94419549
42.18737693
45.175938
40.37319998
40.52156737
40.28016466
40.05000548
40.11074303
40.00412424
40.01597371
40.07110627
37.90833337
37.21197531
36.77733426
36.41415766
36.10512328
35.82065029
47.67794713
51.86032752
51.16331208
52.83984387
51.01719524
50.96354882
46.24549264
44.99625489
44.92512509
42.07062759
41.32449936
41.28362211
39.54362346
39.07468595
39.0353053
38.01349317
37.28898106
37.25419482
36.82483704
36.43635091
36.42637533
36.10392546
35.79828604
35.81219635
56.33697712
57.60706572
57.58523182
52.69433368
50.94157996
51.01214367
46.28834567
45.06565346
45.07893453
42.18124427
41.42512333
41.41298255
39.63657955
39.16914186
39.15273698
38.07849013
37.33566196
37.31603103
36.85433059
36.44603248
36.44334489
36.09353553
35.76908889
35.78667648
55.42696657
56.104101
56.57131439
51.9369115
50.33081101
50.55110858
46.01292051
44.85481078
44.93335198
42.10274742
41.37920896
41.40241767
39.65170943
39.19810099
39.1974664
38.0966758
37.34990188
37.34844652
36.8595592
36.43773211
36.4445403
36.06737039
35.72963529
35.75203911
53.64563456
54.11466403
54.61217273
50.53065019
49.12233867
49.45931478
45.39060866
44.37210769
44.52053888
41.88469487
41.21611996
41.26418412
39.6071061
39.17882245
39.18686542
38.0797794
37.33501616
37.34625908
36.83627113
36.40369466
36.42316773
36.02236173
35.6764277
35.70578415
52.12440177
52.21386428
52.67551388
48.92092834
47.7151101
48.06360922
44.57371263
43.70978085
43.87714029
41.56936927
40.98455918
41.04644991
39.531173
39.12010789
39.14209119
38.00758176
37.27457639
37.31108517
36.77158989
36.3367627
36.37307421
35.95156246
35.60551954
35.64428604
50.63231189
50.47818764
50.89635328
47.49336628
46.47936954
46.75616473
43.85149108
43.11945896
43.25000218
41.27666659
40.75275586
40.81124016
39.38683704
38.9907708
39.02821713
37.88685268
37.17341433
37.22819474
36.67580277
36.24409575
36.29284006
35.86005772
35.51658245
35.56374288
49.29416862
49.0364625
49.35472861
46.52481724
45.66009299
45.82123637
43.36567595
42.70699013
42.80572761
40.99474632
40.49948704
40.56487891
39.19810678
38.8178206
38.86388223
37.73446237
37.04381518
37.11155981
36.55615608
36.130154
36.18908727
35.75064732
35.41208246
35.46683094
48.08454824
47.91773303
48.18646374
45.82845572
45.05310163
45.20082289
42.93698373
42.31975729
42.4151243
40.70266187
40.23167957
40.29914778
38.98697443
38.62134183
38.67191391
37.56264338
36.89466436
36.97121614
36.4187026
35.99961005
36.06637216
35.62650332
35.29403366
35.35532835
46.94920365
46.89947413
47.14643059
45.17795718
44.48498368
44.62385666
42.53154064
41.94985824
42.04054827
40.41277911
39.96224845
40.02932838
38.76611057
38.41332998
38.46596887
37.37986573
36.73265591
36.81492763
36.26826902
35.85681035
35.92927077
35.49084498
35.16503445
35.23152609
45.8857545
45.95334647
46.18439605
44.5649849
43.94814383
44.07972369
42.14781492
41.59865199
41.68480598
40.13104077
39.69781573
39.76324339
38.54285451
38.20103596
38.25423302
37.19178432
36.56266857
36.64841368
36.10896904
35.705435
35.78183813
35.34664708
35.0274243
35.0979853
44.89140429
45.06255476
45.28049141
43.98351394
43.4375512
43.56296498
41.78187576
41.2637466
41.3461098
39.85959188
39.44139024
39.50467789
38.32148614
37.98893791
38.04177517
37.00203554
36.38828194
36.47584038
35.94417993
35.54835544
35.62733577
35.19643584
34.88369437
34.9570487
43.94915929
44.21918906
44.42602633
43.42849193
42.94924338
43.06942134
41.43058047
40.94231407
41.02153397
39.5982889
39.19369277
39.25481027
38.10434679
37.7796938
37.83164351
36.81299401
36.21213082
36.30029703
35.77649225
35.387828
35.46831998
35.04227339
34.73542709
34.81088415
43.04896722
43.41619282
43.61308692
42.89570162
42.47983171
42.59558321
41.09174289
40.63223646
40.70878716
39.34611019
38.95429012
39.01340658
37.89249365
37.57470451
37.62551374
36.62610029
36.03602968
36.12398964
35.60775927
35.22554538
35.30675848
34.8857815
34.58459536
34.6611038
42.18160084
42.65214143
42.84002516
42.3815491
42.02634201
42.13836239
40.76358546
40.3318696
40.40612521
39.10191262
38.72235981
38.77968553
37.68618051
37.37452166
37.42410501
36.44218833
35.86117843
35.94839043
35.43927111
35.06276486
35.14410929
34.72817592
34.43178644
34.5092037
41.34485741
41.91805433
42.09915544
41.88311634
41.5862903
41.69516445
40.44461522
40.03988668
40.11216325
38.86471765
38.49709606
38.55282999
37.48529419
37.17925644
37.22761801
36.26167078
35.68833546
35.77447332
35.27189856
34.90037743
34.98144531
34.57039495
34.27877405
34.35606269
40.5352328
41.20746465
41.3833085
41.39807905
41.15761
41.26380545
40.13350563
39.75511738
39.8256878
38.63365501
38.27773699
38.33205937
37.28952191
36.98875842
37.03594757
36.08470887
35.51795039
35.60281732
35.10621346
34.73902495
34.81952207
34.41307455
34.12505888
34.20273432
39.74903167
40.51595058
40.68706642
40.92456131
40.73867572
40.84257359
39.82914989
39.47657572
39.5456779
38.40798153
38.06361503
38.11669011
37.09849899
36.80278043
36.8488688
35.91132551
35.35027668
35.43376822
34.94258491
34.57913475
34.65886227
34.25675128
33.97282916
34.04947158
38.98586514
39.84261586
40.00939446
40.4612963
40.32819117
40.43008099
39.53057512
39.20337928
39.27122457
38.18700959
37.85410038
37.90608251
36.91181528
36.62100106
36.66607383
35.74144445
35.18540556
35.26749854
34.78123348
34.42102192
34.49985333
34.10169722
33.8201126
33.89721063
38.24608936
39.18588274
39.34855711
40.00706976
39.92522051
40.0253062
39.23701996
38.93481998
39.00156026
37.97015915
37.64865305
37.69966208
36.72908622
36.44310221
36.48723249
35.57492624
35.02338185
35.10407279
34.62228482
34.26485868
34.34273929
33.94826272
33.67052023
33.74562782
37.52869304
38.54548354
38.70407424
39.56149032
39.52907736
39.62749629
38.94785919
38.67030003
38.73607919
37.75690863
37.44677766
37.49693622
36.54992145
36.26873943
36.31201738
35.41156382
34.86420137
34.94355972
34.46572848
34.11073547
34.18775772
33.79639949
33.51948357
33.59592932
36.83319197
37.92194905
38.07650185
39.12430768
39.1393275
39.23621268
38.66260014
38.40933359
38.47426233
37.54680868
37.24804041
37.29744959
36.37395859
36.09758544
36.14008739
35.25122901
34.7076435
34.78605731
34.31136788
33.95844823
34.03505918
33.64623713
33.37371504
33.44707124
36.15912294
37.31477867
37.46611065
38.69590509
38.75552515
38.8509922
38.3808753
38.15154785
38.21572076
37.33949083
37.05208095
37.10082978
36.20089283
35.92936905
35.97116354
35.09370438
34.55294925
34.63173329
34.15848712
33.80740011
33.88517294
33.49686418
33.22314112
33.30135795
35.50446075
36.72215601
36.87375531
38.27447558
38.3771429
38.47209823
38.10220067
37.89650066
37.96015462
37.13458009
36.8585396
36.90673929
36.03041458
35.76380437
35.80496826
34.93867817
34.39753789
34.48168728
34.00465708
33.65520438
33.73926311
33.3464191
33.07922272
33.15743877
34.86166349
36.13624817
36.30483007
37.85234314
37.99791726
38.10288822
37.82255012
37.64086038
37.70863433
36.93006242
36.66566536
36.71542161
35.86127912
35.59975391
35.6415364
34.7777251
34.23034881
34.34095698
33.83920876
33.4913042
33.60148378
33.18355198
32.91078995
33.02316593
54.2031647
55.1469369
55.18163953
52.14533496
48.69891744
49.17147755
40.81830445
40.7194154
43.78308561
55.19018093
55.21307729
54.28059341
56.99736437
57.08021596
54.76257225
54.49097995
51.65045804
42.95381999
42.31691317
40.24615009
40.50406472
40.41640719
41.04610648
44.53464255
43.38117841
53.19109018
55.42173739
55.15807638
40.81390286
40.63696723
44.86638587
44.75484356
46.00149683
42.72683078
43.67602755
43.77002569
41.21726466
41.15495191
41.89261514
39.91865865
40.49884811
40.55921062
38.99363395
38.95078101
39.40532176
38.19185147
38.5481276
38.58655631
53.0594785
52.49877845
48.60835117
56.45246525
55.03928036
55.39349438
54.26644706
54.66528841
56.22084677
51.05859961
51.02945631
52.83767549
47.70950969
49.318238
49.32945451
49.22567979
49.28476433
47.67778639
45.06560437
45.03578331
46.2817962
42.98173136
43.94353925
43.96887348
43.84406424
43.89589396
42.92262059
41.39839291
41.36192105
42.12414021
40.09303044
40.68851614
40.72627099
40.61240718
40.66224151
40.06997889
39.12852884
39.10201169
39.56684943
38.32093761
38.68953669
38.71293884
38.62547344
38.6594687
38.29339036
57.51257259
57.58249241
56.43596222
57.8834622
57.87175941
57.67089798
50.71431339
50.84234444
52.57388309
47.62355661
49.17180437
49.06526014
49.30999497
49.25060908
47.67936041
44.99397597
45.03564185
46.2513423
43.01222635
43.96259516
43.93358863
43.98318261
43.98917136
43.03445524
41.41676246
41.43017343
42.17339507
40.17758475
40.76655036
40.75712509
40.74004622
40.75694639
40.16319104
39.19559938
39.18189105
39.65185248
38.40087274
38.76915408
38.78479096
38.73653113
38.754265
38.38580607
51.46575493
51.47313748
55.11516384
55.61539158
54.93074463
53.188209
54.6673739
54.21659127
55.49086912
55.09521612
53.55492286
49.7776619
50.0705773
51.62778689
47.1588232
48.55887609
48.31750957
48.93510836
48.76922176
47.31604882
44.65161232
44.76008235
45.89457632
42.85719562
43.75307542
43.66640214
43.88861953
43.82785846
42.91507517
41.30865439
41.34749521
42.05896638
40.14883171
40.71366195
40.68600922
40.75018288
40.73540143
40.16238681
39.19248611
39.19633075
39.64552616
38.43333815
38.79658867
38.79546053
38.79023904
38.79518899
38.43057418
51.38145642
51.41602686
53.14535555
53.62546605
53.25983622
51.49104983
52.78509147
52.29577891
53.74996179
53.27138176
51.93847226
48.41811516
48.77312834
50.1318149
46.27492434
47.47241114
47.17118228
48.05168883
47.76786272
46.5192239
44.0459995
44.21243517
45.19146475
42.53165478
43.32877278
43.19622761
43.56968113
43.45455327
42.62882712
41.10747427
41.16541147
41.81222226
40.06073409
40.58345583
40.54285394
40.6541445
40.6186356
40.08476262
39.15878578
39.16960208
39.5923603
38.42086999
38.78113264
38.77182795
38.79332211
38.78885166
38.42791454
50.97392637
51.14830025
51.32920499
51.76490252
51.73869837
49.70499895
50.853285
50.39767652
51.80767585
51.3251447
50.13874383
47.05656099
47.37777534
48.53310437
45.28617484
46.28748442
46.01537686
46.8698649
46.57374145
45.52565411
43.39323946
43.54744531
44.3753757
42.11083845
42.79490081
42.6705949
43.06075553
42.92592257
42.21468845
40.86736491
40.92440379
41.48892202
39.93899221
40.41095837
40.36559056
40.49924427
40.45511198
39.97394875
39.0625835
39.09339906
39.50096999
38.35924326
38.71349064
38.6857047
38.75704006
38.73746551
38.3811942
49.95455475
50.24297975
49.70374514
50.07824737
50.28312364
48.19777707
49.18116065
48.84171414
49.96347036
49.55741083
48.5323288
46.00881306
46.23056116
47.20144139
44.47793865
45.3187056
45.13353599
45.76111306
45.52773733
44.65227323
42.90491578
43.0059646
43.70862645
41.76311354
42.36054214
42.27217166
42.55508773
42.45174268
41.84079534
40.62913454
40.6918938
41.20821848
39.76199342
40.21080586
40.15436424
40.31691872
40.26514487
39.8107747
38.90825726
38.95066446
39.34275285
38.24037425
38.58370121
38.54473223
38.65452425
38.62040968
38.27428612
48.69610051
49.02952042
48.46186719
48.74461158
48.98478626
47.19971712
48.02705537
47.79170121
48.53377148
48.26771208
47.40653211
45.35111138
45.50413247
46.34563568
43.95339528
44.70290057
44.56799336
44.98058581
44.84020768
44.07545985
42.51152974
42.60886525
43.25647444
41.4453783
42.006468
41.91833006
42.18361106
42.09496276
41.52545778
40.36639445
40.43324368
40.92204067
39.54807355
39.97611495
39.91470658
40.09621059
40.03669905
39.60370755
38.72162866
38.77033536
39.14680765
38.08546455
38.41701648
38.3715865
38.5037978
38.46113862
38.12673378
47.40044181
47.71698177
47.39815499
47.65512764
47.79382184
46.41155607
47.10996286
46.89054081
47.5604425
47.33322249
46.60350941
44.764751
44.90779154
45.6619334
43.48374817
44.17687186
44.05066243
44.43541927
44.30508332
43.59837256
42.13242955
42.22550835
42.8334146
41.12657279
41.65754879
41.57219543
41.83071236
41.74374907
41.20574018
40.09665298
40.16413926
40.62967434
39.31756056
39.72750815
39.66463991
39.85268591
39.79023441
39.37601826
38.51824659
38.57008193
38.93231818
37.90878562
38.22937919
38.18044327
38.32508573
38.27761322
37.95440569
46.17879806
46.47774761
46.41898813
46.65716974
46.67619079
45.67405815
46.25398605
46.04858571
46.67484242
46.46268142
45.85412285
44.21300755
44.34806856
45.02145276
43.04211076
43.68287399
43.56357377
43.92633298
43.80375962
43.1501625
41.77202806
41.86036548
42.43372529
40.8161163
41.32171483
41.24016402
41.4877491
41.40424145
40.89266476
39.82915304
39.89550516
40.34144467
39.08173911
39.47623395
39.41378441
39.60174301
39.53890803
39.14078558
38.30738823
38.36044917
38.71031399
37.71982971
38.03075676
37.98018243
38.13098121
38.08103174
37.76781225
45.01787918
45.30303711
45.50151161
45.72575744
45.63153111
44.97944455
45.45047449
45.25666816
45.84630112
45.64697632
45.14947442
43.689828
43.81820064
44.41687407
42.62338608
43.21445273
43.10080413
43.4457804
43.32942617
42.7261869
41.42935198
41.51351732
42.05480569
40.51779691
41.00121655
40.92338018
41.15957859
41.07993828
40.59118416
39.56851643
39.6329001
40.06219171
38.84692123
39.22832817
39.16727609
39.35161861
39.28978616
38.90530762
38.09476056
38.14786538
38.48721657
37.52506517
37.82757939
37.77659092
37.92943353
37.87853103
37.57402131
43.91186437
44.18332655
44.63543116
44.84757012
44.65139099
44.32074216
44.69028502
44.50616841
45.06544408
44.87669044
44.48240411
43.19082769
43.31351484
43.84244366
42.22324967
42.76728742
42.6584479
42.98842735
42.87727413
42.32172177
41.10148979
41.18221294
41.69276762
40.23184199
40.69481491
40.62016621
40.84639266
40.77021835
40.30224109
39.31645851
39.37864709
39.79334242
38.61651087
38.98675184
38.92749878
39.10665318
39.04647666
38.67359517
37.8838442
37.93628377
38.26674102
37.32875131
37.62399821
37.5733617
37.72565099
37.67476512
37.37779724
42.85786065
43.1168324
43.81290164
44.01485095
43.72053162
43.69212208
43.96650991
43.79056779
44.32422623
44.14437266
43.84673816
42.71237214
42.83024345
43.2933605
41.83885083
42.33830239
42.23357851
42.55069771
42.44399562
41.93360498
40.78596729
40.86380118
41.34477768
39.95691492
40.40038273
40.3284189
40.54623025
40.4729779
40.02470179
39.07300375
39.1330949
39.53443511
38.39206884
38.75253003
38.69512698
38.86871167
38.81038971
38.44758563
37.67661848
37.72801685
38.05086864
37.1335645
37.42256736
37.37272235
37.52290578
37.47262567
37.18214308
41.84935934
42.09762197
43.02987705
43.2218826
42.82914635
43.08873677
43.27300237
43.10362568
43.61648387
43.44395001
43.23746396
42.25125579
42.36507446
42.76554553
41.46794223
41.92483994
41.82360877
42.12978415
42.02688285
41.55951516
40.48092296
40.55629231
41.0087662
39.69146337
40.11607295
40.04639485
40.25706053
40.18628531
39.7570141
38.83743946
38.8956413
39.28435501
38.17398248
38.52557651
38.46991173
38.63817226
38.58165809
38.2279126
37.47399494
37.52420076
37.84039749
36.94105801
37.22467676
37.17583493
37.32312606
37.27376773
36.98886769
40.87775906
41.11756427
42.28180481
42.46610902
41.96967232
42.50642662
42.60483708
42.44153053
42.93583922
42.76959393
42.6501989
41.80477687
41.91515874
42.25556817
41.10857275
41.5245573
41.42630703
41.72317821
41.6235043
41.19742716
40.18490741
40.25813699
40.68303679
39.43417678
39.84044169
39.77275208
39.97724621
39.90860062
39.49779259
38.6089442
38.66545038
39.04199351
37.9620674
38.30537429
38.25130994
38.41466587
38.35982294
38.01448587
37.27628009
37.32524851
37.63546071
36.75204672
37.03096699
36.98322279
37.12727564
37.07897997
36.7989344
39.93920237
40.1708214
41.56033333
41.73845384
41.1401816
41.94229211
41.95981399
41.80174456
42.27961738
42.11905832
42.08175467
41.37064361
41.47812561
41.76068207
40.75906239
41.13545817
41.03972507
41.32872454
41.23178315
40.8456004
39.89666942
39.96806119
40.36614898
39.18399751
39.57233124
39.50635779
39.7055139
39.63871159
39.24592918
38.38672498
38.4417317
38.8064091
37.75593315
38.09132052
38.03869512
38.19761895
38.14429193
37.80695111
37.08342802
37.13119546
37.43588659
36.5669067
36.8416567
36.79501279
36.93576108
36.88856822
36.61281195
39.03428602
39.25735781
40.8593472
41.03281261
40.33653277
41.39359933
41.33653582
41.18401436
41.64527237
41.49025438
41.52945706
40.94701568
41.05202094
41.27867923
40.41793969
40.7558387
40.66225184
40.94454928
40.84993108
40.50250115
39.61512668
39.68493538
40.05682441
38.93999727
39.31072365
39.24623636
39.44076783
39.37556308
39.00046155
38.17006246
38.22374165
38.57675969
37.55509275
37.88279039
37.83145496
37.98639897
37.93443541
37.60483175
36.89522408
36.94185311
37.24133704
36.38572386
36.65669974
36.61112354
36.74863931
36.70253405
36.43064046
38.16175624
38.37697988
40.17718273
40.34598384
39.55608872
40.85877668
40.7329528
40.58460203
41.03261719
40.88228463
40.99122337
40.53244569
40.63530468
40.807825
40.08400348
40.38433902
40.29259568
40.56915113
40.47651909
40.16687364
39.33936107
39.40780774
39.75399886
38.70138722
39.05475672
38.99155373
39.18208706
39.11826404
38.76057576
37.95832032
38.01082841
38.35232326
37.35906834
37.67921274
37.62902733
37.7804188
37.72967381
37.40765034
36.71138828
36.75695609
37.05143776
36.20844969
36.47594035
36.43137814
36.56580995
36.52074708
36.25240249
37.31951187
37.52720905
39.51221236
39.67691118
38.7988141
40.3368289
40.14492267
39.99992363
40.4371603
40.29064729
40.46609832
40.1258236
40.22678171
40.34693729
39.75623008
40.01983679
39.9297066
40.20127405
40.11035151
39.83763875
39.06856085
39.13583089
39.456743
38.46744705
38.80365179
38.74156068
38.92864288
38.86600692
38.52552724
37.75090126
37.80237833
38.13243251
37.16737312
37.48003314
37.43086947
37.57910795
37.5294415
37.21491454
36.53158863
36.57617685
36.86577814
36.03493319
36.29913826
36.25552738
36.38706253
36.34297834
36.07796279
36.50695136
36.70715909
38.86363131
39.02427349
38.06477105
39.82814101
39.56960401
39.42771945
39.85569933
39.71225038
39.9541742
39.72632115
39.82556152
39.894875
39.43385436
39.66151968
39.57282759
39.83995029
39.75055763