/*--------------------------------*- C++ -*----------------------------------*\
| =========                 |                                                 |
| \\      /  F ield         | OpenFOAM: The Open Source CFD Toolbox           |
|  \\    /   O peration     | Version:  v2012                                 |
|   \\  /    A nd           | Website:  www.openfoam.com                      |
|    \\/     M anipulation  |                                                 |
\*---------------------------------------------------------------------------*/
FoamFile
{
    version     2.0;
    format      ascii;
    class       pointVectorField;
    location    "0.98";
    object      pointDisplacement;
}
// * * * * * * * * * * * * * * * * * * * * * * * * * * * * * * * * * * * * * //

dimensions      [0 1 0 0 0 0 0];


internalField   nonuniform List<vector> 
6426
(
(0 0 0)
(0 0 0)
(0 0 0)
(0 0 0)
(0 0 0)
(0 0 0)
(0 0 0)
(0 0 0)
(0 0 0)
(0 0 0)
(-0.0003002610903 -0.05785592381 0)
(-0.0003066181383 -0.05802044803 0)
(-0.0003118690211 -0.05818501995 0)
(2.841821318e-05 -0.05818637574 0)
(4.054744077e-05 -0.05785753331 0)
(0.005239565197 -0.05791120461 0)
(0.005218646128 -0.05856943216 0)
(0.005197453537 -0.05922747123 0)
(0.006594497406 -0.05924545439 0)
(0.006635114385 -0.05792851983 0)
(0.005937599847 -0.05791992764 0)
(0.0103677762 -0.05538474202 3.431699369e-13)
(0.01019287617 -0.05583784164 3.382988334e-13)
(0.01084352481 -0.05250372016 3.18051141e-13)
(0.01112768555 -0.0525709355 3.256700465e-13)
(0.01115791526 -0.03907063481 2.420563749e-13)
(0.01075734876 -0.0385606901 2.336048022e-13)
(0.009964528719 -0.03286024754 1.991046217e-13)
(0.01038394816 -0.03345677808 2.073202721e-13)
(0.006298687889 -0.01635741329 1.014743845e-13)
(0.00591949076 -0.01572804518 9.539591339e-14)
(0.004327538681 -0.01079981493 6.553091403e-14)
(0.004661327103 -0.01137057858 7.0568551e-14)
(0.0006621740025 -0.001367412757 8.493206138e-15)
(0.0005382795148 -0.001137173221 6.911138328e-15)
(4.267468522e-05 -8.581593102e-05 5.134781489e-16)
(8.153291009e-05 -0.0001602609436 9.992007222e-16)
(0 0 0)
(0 0 0)
(0 0 0)
(0 0 0)
(0 0 0)
(0 0 0)
(0 0 0)
(0 0 0)
(0 0 0)
(0 0 0)
(0 0 0)
(0 0 0)
(0 0 0)
(0 0 0)
(-0.0005869299492 -0.06307633016 0)
(-0.0005920030662 -0.06340672446 0)
(-0.0005970811926 -0.06373742582 0)
(0.0001065942942 -0.06374823182 0)
(0.0001167464201 -0.06308713618 0)
(0.005042455516 -0.06316277791 0)
(0.005022155979 -0.06448466214 0)
(0.006406439788 -0.0642592218 3.578665142e-13)
(0.006445019894 -0.06313434891 3.589628594e-13)
(0.009678941569 -0.05704056257 3.240185897e-13)
(0.009442894159 -0.05697890272 3.171074514e-13)
(0.00988110807 -0.05257929306 2.925854004e-13)
(0.01016668463 -0.05287355309 3.003153282e-13)
(0.009366219655 -0.03590717412 2.039757252e-13)
(0.008988126893 -0.03521088762 1.959543638e-13)
(0.007998833867 -0.0287907539 1.602606936e-13)
(0.008547010907 -0.03012368553 1.711686348e-13)
(0.004466714378 -0.01266992525 7.20534743e-14)
(0.003892161446 -0.01127196553 6.281086762e-14)
(0.00264302068 -0.007188960874 4.007905119e-14)
(0.003011968132 -0.008023367631 4.56440441e-14)
(0.0001108151969 -0.0002499459304 1.415534356e-15)
(5.005367127e-05 -0.0001152914165 6.383782392e-16)
(0 0 0)
(0 0 0)
(0 0 0)
(0 0 0)
(0 0 0)
(0 0 0)
(0 0 0)
(0 0 0)
(0 0 0)
(0 0 0)
(0 0 0)
(0 0 0)
(0 0 0)
(0 0 0)
(0 0 0)
(0 0 0)
(-0.0006681365161 -0.0683644812 0)
(-0.0006884407679 -0.06968667248 0)
(0.0007189068813 -0.06970828444 0)
(0.000739211133 -0.06838609315 0)
(0.004921033252 -0.06783997903 3.56048524e-13)
(0.004831998291 -0.06807363166 3.504974089e-13)
(0.006028407334 -0.06600457584 3.397560011e-13)
(0.006181308996 -0.06630598958 3.478883848e-13)
(0.008657088663 -0.05554659915 2.912947661e-13)
(0.008283110976 -0.05416729947 2.786937348e-13)
(0.008432782469 -0.0485714582 2.498834473e-13)
(0.00886987082 -0.0501362699 2.629008122e-13)
(0.007433620063 -0.03090968485 1.62134195e-13)
(0.006904902109 -0.0292511988 1.505462421e-13)
(0.005848506215 -0.02276453168 1.171840402e-13)
(0.00636587758 -0.0243205355 1.276062589e-13)
(0.002489883736 -0.007653637878 4.019007349e-14)
(0.002139054212 -0.006700237817 3.452793607e-14)
(0.001093834442 -0.00321853131 1.659783422e-14)
(0.001486020392 -0.004291136111 2.25375274e-14)
(0 0 0)
(0 0 0)
(0 0 0)
(0 0 0)
(0 0 0)
(0 0 0)
(0 0 0)
(0 0 0)
(0 0 0)
(0 0 0)
(0 0 0)
(0 0 0)
(0 0 0)
(0 0 0)
(0 0 0)
(0 0 0)
(0 0 0)
(0 0 0)
(-0.0006989646021 -0.07071358169 3.449046604e-13)
(-0.0006613635571 -0.06861932302 3.287925487e-13)
(0.000623876881 -0.06749551372 3.233247003e-13)
(0.0006501349791 -0.06983846601 3.40547035e-13)
(0.004288613964 -0.06385464874 3.111400027e-13)
(0.004009384437 -0.0605789111 2.899763762e-13)
(0.004856921297 -0.0569503115 2.725736303e-13)
(0.005236427739 -0.06048958696 2.946809463e-13)
(0.006712407966 -0.04623213798 2.251532294e-13)
(0.00605466401 -0.0423562036 2.026712131e-13)
(0.005935921863 -0.03658092087 1.750405376e-13)
(0.006657477518 -0.04038539232 1.966898866e-13)
(0.004906951055 -0.02190633543 1.067201882e-13)
(0.004155930179 -0.01886116077 9.028888748e-14)
(0.003240946919 -0.01352251049 6.473988012e-14)
(0.0039380869 -0.01615948991 7.874256802e-14)
(0.0009848657579 -0.003256433358 1.587618925e-14)
(0.0006341940293 -0.002133679472 1.021405183e-14)
(0.0001420825279 -0.0004493470472 2.15105711e-15)
(0.0003284785108 -0.001020733998 4.982125823e-15)
(0 0 0)
(0 0 0)
(0 0 0)
(0 0 0)
(0 0 0)
(0 0 0)
(0 0 0)
(0 0 0)
(0 0 0)
(0 0 0)
(0 0 0)
(0 0 0)
(0 0 0)
(0 0 0)
(0 0 0)
(0 0 0)
(0 0 0)
(0 0 0)
(-0.000451276114 -0.05519876674 2.511879593e-13)
(-0.0003663362275 -0.04884804832 2.186306691e-13)
(0.000482186731 -0.04736015389 2.119276976e-13)
(0.0005263380172 -0.05371641818 2.443878433e-13)
(0.002923868448 -0.04565452378 2.076255834e-13)
(0.002505519236 -0.03943365536 1.76386683e-13)
(0.002912620727 -0.03577324269 1.600108934e-13)
(0.003441288419 -0.0418499978 1.902922264e-13)
(0.003846261143 -0.0280690187 1.276201367e-13)
(0.003094376558 -0.02287691047 1.023209295e-13)
(0.002813213627 -0.01835815881 8.211487046e-14)
(0.003586991331 -0.0230907521 1.049993426e-13)
(0.001949982452 -0.009275799018 4.218847494e-14)
(0.001316950108 -0.006360235296 2.844946501e-14)
(0.0007758447297 -0.003449720066 1.543210004e-14)
(0.001290747444 -0.005650478733 2.570166302e-14)
(1.083426375e-05 -3.834756389e-05 1.665334537e-16)
(0 0 0)
(0 0 0)
(0 0 0)
(0 0 0)
(0 0 0)
(0 0 0)
(0 0 0)
(0 0 0)
(0 0 0)
(0 0 0)
(0 0 0)
(0 0 0)
(0 0 0)
(0 0 0)
(0 0 0)
(0 0 0)
(0 0 0)
(0 0 0)
(0 0 0)
(0 0 0)
(0 0 0)
(-0.0001440930467 -0.02745546708 1.170868957e-13)
(-9.276343089e-05 -0.02051321558 8.612555114e-14)
(0.0002339261462 -0.01943964285 8.16152701e-14)
(0.0003037088778 -0.02622450264 1.118272142e-13)
(0.001245206156 -0.01998488159 8.520961714e-14)
(0.0008726229162 -0.01409725115 5.917488721e-14)
(0.0009296666058 -0.01183235729 4.966860256e-14)
(0.001369219925 -0.01727120374 7.363554211e-14)
(0.00111740852 -0.008578822788 3.658184866e-14)
(0.0006337861147 -0.004928447534 2.069178162e-14)
(0.0004337106493 -0.002986125486 1.253164239e-14)
(0.0008701409084 -0.005910229823 2.520206266e-14)
(9.97524443e-05 -0.0005040439131 2.137179322e-15)
(2.800279664e-07 -1.436789439e-06 0)
(0 0 0)
(1.166099712e-06 -5.432163977e-06 2.775557562e-17)
(0 0 0)
(0 0 0)
(0 0 0)
(0 0 0)
(0 0 0)
(0 0 0)
(0 0 0)
(0 0 0)
(0 0 0)
(0 0 0)
(0 0 0)
(0 0 0)
(0 0 0)
(0 0 0)
(0 0 0)
(0 0 0)
(0 0 0)
(0 0 0)
(0 0 0)
(0 0 0)
(0 0 0)
(0 0 0)
(-1.243620652e-05 -0.004397426978 1.765254609e-14)
(-3.672710778e-06 -0.001464464309 5.787037516e-15)
(1.560105734e-05 -0.001199076014 4.74620343e-15)
(5.069398446e-05 -0.003917494777 1.572353359e-14)
(0.0001089870104 -0.001807108364 7.244205236e-15)
(1.348070951e-05 -0.0002262460884 8.881784197e-16)
(2.484056533e-06 -3.307821484e-05 1.387778781e-16)
(8.266665675e-05 -0.00108625519 4.357625372e-15)
(0 0 0)
(0 0 0)
(0 0 0)
(0 0 0)
(0 0 0)
(0 0 0)
(0 0 0)
(0 0 0)
(0 0 0)
(0 0 0)
(0 0 0)
(0 0 0)
(0 0 0)
(0 0 0)
(0 0 0)
(0 0 0)
(0 0 0)
(0 0 0)
(0 0 0)
(0 0 0)
(0 0 0)
(0 0 0)
(0 0 0)
(0 0 0)
(0 0 0)
(0 0 0)
(0 0 0)
(0 0 0)
(0 0 0)
(0 0 0)
(0 0 0)
(0 0 0)
(0 0 0)
(0 0 0)
(0 0 0)
(0 0 0)
(0 0 0)
(0 0 0)
(0 0 0)
(0 0 0)
(0 0 0)
(0 0 0)
(0 0 0)
(0 0 0)
(0 0 0)
(0 0 0)
(0 0 0)
(0 0 0)
(0 0 0)
(0 0 0)
(0 0 0)
(0 0 0)
(0 0 0)
(0 0 0)
(0 0 0)
(0 0 0)
(0 0 0)
(0 0 0)
(0 0 0)
(0 0 0)
(0 0 0)
(0 0 0)
(0 0 0)
(0 0 0)
(0 0 0)
(0 0 0)
(0 0 0)
(0 0 0)
(0 0 0)
(0 0 0)
(0 0 0)
(0 0 0)
(0 0 0)
(0 0 0)
(0 0 0)
(0 0 0)
(0 0 0)
(0 0 0)
(0 0 0)
(0 0 0)
(0 0 0)
(0 0 0)
(0 0 0)
(0 0 0)
(0 0 0)
(0 0 0)
(0 0 0)
(0 0 0)
(0 0 0)
(0 0 0)
(0 0 0)
(0 0 0)
(0 0 0)
(0 0 0)
(0 0 0)
(0 0 0)
(0 0 0)
(0 0 0)
(0 0 0)
(0 0 0)
(0 0 0)
(0 0 0)
(0 0 0)
(0 0 0)
(0 0 0)
(0 0 0)
(0 0 0)
(0 0 0)
(0 0 0)
(0 0 0)
(0 0 0)
(0 0 0)
(0 0 0)
(0 0 0)
(0 0 0)
(0 0 0)
(0 0 0)
(0 0 0)
(0 0 0)
(0 0 0)
(0 0 0)
(0 0 0)
(0 0 0)
(0 0 0)
(0 0 0)
(0 0 0)
(0 0 0)
(0 0 0)
(0 0 0)
(0 0 0)
(0 0 0)
(0 0 0)
(0 0 0)
(0 0 0)
(0 0 0)
(0 0 0)
(0 0 0)
(0 0 0)
(0 0 0)
(0 0 0)
(0 0 0)
(0 0 0)
(0 0 0)
(0 0 0)
(0 0 0)
(0 0 0)
(0 0 0)
(0 0 0)
(0 0 0)
(0 0 0)
(0 0 0)
(0 0 0)
(0 0 0)
(0 0 0)
(0 0 0)
(0 0 0)
(0 0 0)
(0 0 0)
(0 0 0)
(0 0 0)
(0 0 0)
(0 0 0)
(0 0 0)
(0 0 0)
(0 0 0)
(0 0 0)
(0 0 0)
(0 0 0)
(0 0 0)
(0 0 0)
(0 0 0)
(0 0 0)
(0 0 0)
(0 0 0)
(0 0 0)
(0 0 0)
(0 0 0)
(0 0 0)
(0 0 0)
(0 0 0)
(0 0 0)
(0 0 0)
(0 0 0)
(0 0 0)
(0 0 0)
(0 0 0)
(0 0 0)
(0 0 0)
(0 0 0)
(0 0 0)
(0 0 0)
(0 0 0)
(0 0 0)
(0 0 0)
(0 0 0)
(0 0 0)
(0 0 0)
(0 0 0)
(0 0 0)
(0 0 0)
(0 0 0)
(0 0 0)
(0 0 0)
(0 0 0)
(0 0 0)
(0 0 0)
(0 0 0)
(0 0 0)
(0 0 0)
(0 0 0)
(0 0 0)
(0 0 0)
(0 0 0)
(0 0 0)
(0 0 0)
(0 0 0)
(0 0 0)
(0 0 0)
(0 0 0)
(0 0 0)
(0 0 0)
(0 0 0)
(0 0 0)
(0 0 0)
(0 0 0)
(0 0 0)
(0 0 0)
(0 0 0)
(0 0 0)
(0 0 0)
(0 0 0)
(0 0 0)
(0 0 0)
(0 0 0)
(0 0 0)
(0 0 0)
(0 0 0)
(0 0 0)
(0 0 0)
(0 0 0)
(0 0 0)
(0 0 0)
(0 0 0)
(0 0 0)
(0 0 0)
(0 0 0)
(0 0 0)
(0 0 0)
(0 0 0)
(0 0 0)
(0 0 0)
(0 0 0)
(0 0 0)
(0 0 0)
(0 0 0)
(0 0 0)
(0 0 0)
(0 0 0)
(0 0 0)
(0 0 0)
(0 0 0)
(0 0 0)
(0 0 0)
(0 0 0)
(0 0 0)
(0 0 0)
(0 0 0)
(0 0 0)
(0 0 0)
(0 0 0)
(0 0 0)
(0 0 0)
(0 0 0)
(0 0 0)
(0 0 0)
(0 0 0)
(0 0 0)
(0 0 0)
(0 0 0)
(0 0 0)
(0 0 0)
(0 0 0)
(0 0 0)
(0 0 0)
(0 0 0)
(0 0 0)
(0 0 0)
(0 0 0)
(0 0 0)
(0 0 0)
(0 0 0)
(0 0 0)
(0 0 0)
(0 0 0)
(0 0 0)
(0 0 0)
(0 0 0)
(0 0 0)
(0 0 0)
(0 0 0)
(0 0 0)
(0 0 0)
(0 0 0)
(0 0 0)
(0 0 0)
(0 0 0)
(0 0 0)
(0 0 0)
(0 0 0)
(0 0 0)
(0 0 0)
(0 0 0)
(0 0 0)
(0 0 0)
(0 0 0)
(0 0 0)
(0 0 0)
(0 0 0)
(0 0 0)
(0 0 0)
(0 0 0)
(0 0 0)
(0 0 0)
(0 0 0)
(0 0 0)
(0 0 0)
(0 0 0)
(0 0 0)
(0 0 0)
(0 0 0)
(0 0 0)
(0 0 0)
(0 0 0)
(0 0 0)
(0 0 0)
(0 0 0)
(0 0 0)
(0 0 0)
(0 0 0)
(0 0 0)
(0 0 0)
(0 0 0)
(0 0 0)
(0 0 0)
(0 0 0)
(0 0 0)
(0 0 0)
(0 0 0)
(0 0 0)
(0 0 0)
(0 0 0)
(0 0 0)
(0 0 0)
(0 0 0)
(0 0 0)
(0 0 0)
(0 0 0)
(0 0 0)
(0 0 0)
(0 0 0)
(0 0 0)
(0 0 0)
(0 0 0)
(0 0 0)
(0 0 0)
(0 0 0)
(0 0 0)
(0 0 0)
(0 0 0)
(0 0 0)
(0 0 0)
(0 0 0)
(0 0 0)
(0 0 0)
(0 0 0)
(0 0 0)
(0 0 0)
(0 0 0)
(0 0 0)
(0 0 0)
(0 0 0)
(0 0 0)
(0 0 0)
(0 0 0)
(0 0 0)
(0 0 0)
(0 0 0)
(0 0 0)
(0 0 0)
(0 0 0)
(0 0 0)
(0 0 0)
(0 0 0)
(0 0 0)
(0 0 0)
(0 0 0)
(0 0 0)
(0 0 0)
(0 0 0)
(0 0 0)
(0 0 0)
(0 0 0)
(0 0 0)
(0 0 0)
(0 0 0)
(0 0 0)
(0 0 0)
(0 0 0)
(0 0 0)
(0 0 0)
(0 0 0)
(0 0 0)
(0 0 0)
(0 0 0)
(0 0 0)
(0 0 0)
(0 0 0)
(0 0 0)
(0 0 0)
(0 0 0)
(0 0 0)
(0 0 0)
(0 0 0)
(0 0 0)
(0 0 0)
(0 0 0)
(0 0 0)
(0 0 0)
(0 0 0)
(0 0 0)
(0 0 0)
(0 0 0)
(0 0 0)
(0 0 0)
(0 0 0)
(0 0 0)
(0 0 0)
(0 0 0)
(0 0 0)
(0 0 0)
(0 0 0)
(0 0 0)
(0 0 0)
(0 0 0)
(0 0 0)
(0 0 0)
(0 0 0)
(0 0 0)
(0 0 0)
(0 0 0)
(0 0 0)
(0 0 0)
(0 0 0)
(0 0 0)
(0 0 0)
(0 0 0)
(0 0 0)
(0 0 0)
(0 0 0)
(0 0 0)
(0 0 0)
(0 0 0)
(0 0 0)
(0 0 0)
(0 0 0)
(0 0 0)
(0 0 0)
(0 0 0)
(0 0 0)
(0 0 0)
(0 0 0)
(0 0 0)
(0 0 0)
(0 0 0)
(0 0 0)
(0 0 0)
(0 0 0)
(0 0 0)
(0 0 0)
(0 0 0)
(0 0 0)
(0 0 0)
(0 0 0)
(0 0 0)
(0 0 0)
(0 0 0)
(0 0 0)
(0 0 0)
(0 0 0)
(0 0 0)
(0 0 0)
(0 0 0)
(0 0 0)
(0 0 0)
(0 0 0)
(0 0 0)
(0 0 0)
(0 0 0)
(0 0 0)
(0 0 0)
(0 0 0)
(0 0 0)
(0 0 0)
(0 0 0)
(0 0 0)
(0 0 0)
(0 0 0)
(0 0 0)
(0 0 0)
(0 0 0)
(0 0 0)
(0 0 0)
(0 0 0)
(0 0 0)
(0 0 0)
(0 0 0)
(0 0 0)
(0 0 0)
(0 0 0)
(0 0 0)
(0 0 0)
(0 0 0)
(0 0 0)
(0 0 0)
(0 0 0)
(0 0 0)
(0 0 0)
(0 0 0)
(0 0 0)
(0 0 0)
(0 0 0)
(0 0 0)
(0 0 0)
(0 0 0)
(0 0 0)
(0 0 0)
(0 0 0)
(0 0 0)
(0 0 0)
(0 0 0)
(0 0 0)
(0 0 0)
(0 0 0)
(0 0 0)
(0 0 0)
(0 0 0)
(0 0 0)
(0 0 0)
(0 0 0)
(0 0 0)
(0 0 0)
(0 0 0)
(0 0 0)
(0 0 0)
(0 0 0)
(0 0 0)
(0 0 0)
(0 0 0)
(0 0 0)
(0 0 0)
(0 0 0)
(0 0 0)
(0 0 0)
(0 0 0)
(0 0 0)
(0 0 0)
(0 0 0)
(0 0 0)
(0 0 0)
(0 0 0)
(0 0 0)
(0 0 0)
(0 0 0)
(0 0 0)
(0 0 0)
(0 0 0)
(0 0 0)
(0 0 0)
(0 0 0)
(0 0 0)
(0 0 0)
(0 0 0)
(0 0 0)
(0 0 0)
(0 0 0)
(0 0 0)
(0 0 0)
(0 0 0)
(0 0 0)
(0 0 0)
(0 0 0)
(0 0 0)
(0 0 0)
(0 0 0)
(0 0 0)
(0 0 0)
(0 0 0)
(0 0 0)
(0 0 0)
(0 0 0)
(0 0 0)
(0 0 0)
(0 0 0)
(0 0 0)
(0 0 0)
(0 0 0)
(0 0 0)
(0 0 0)
(0 0 0)
(0 0 0)
(0 0 0)
(0 0 0)
(0 0 0)
(0 0 0)
(0 0 0)
(0 0 0)
(0 0 0)
(0 0 0)
(0 0 0)
(0 0 0)
(0 0 0)
(0 0 0)
(0 0 0)
(0 0 0)
(0 0 0)
(0 0 0)
(0 0 0)
(0 0 0)
(0 0 0)
(0 0 0)
(0 0 0)
(0 0 0)
(0 0 0)
(0 0 0)
(0 0 0)
(0 0 0)
(0 0 0)
(0 0 0)
(0 0 0)
(0 0 0)
(0 0 0)
(0 0 0)
(0 0 0)
(0 0 0)
(0 0 0)
(0 0 0)
(0 0 0)
(0 0 0)
(0 0 0)
(0 0 0)
(0 0 0)
(0 0 0)
(0 0 0)
(0 0 0)
(0 0 0)
(0 0 0)
(0 0 0)
(0 0 0)
(0 0 0)
(0 0 0)
(0 0 0)
(0 0 0)
(0 0 0)
(0 0 0)
(0 0 0)
(0 0 0)
(0 0 0)
(0 0 0)
(0 0 0)
(0 0 0)
(0 0 0)
(0 0 0)
(0 0 0)
(0 0 0)
(0 0 0)
(0 0 0)
(-0.0002948323333 -0.05769110892 0)
(-0.0004660296965 -0.05769019985 0)
(-0.000471114099 -0.05785505075 0)
(5.194018973e-05 -0.05752824958 0)
(-0.0002892758402 -0.05752629599 0)
(0.005258928644 -0.05725227748 0)
(0.00456306656 -0.05724407922 0)
(0.004543427704 -0.05790294069 0)
(-0.0005818531643 -0.06274562879 0)
(-0.0009336989462 -0.06274022566 0)
(-0.0009387712256 -0.0630709271 0)
(-0.0004767347234 -0.05801973984 0)
(0.0001268985459 -0.06242604054 0)
(-0.0001997380089 -0.06243146697 0)
(-0.0005293680899 -0.06244206864 0)
(0.005099891475 -0.06185460915 0)
(0.00440376247 -0.06184579252 0)
(0.00370346455 -0.06183645119 0)
(0.003677510619 -0.06249254365 0)
(0.003656139036 -0.06315223848 0)
(0.004522417932 -0.05856107471 0)
(0.002533317392 -0.05524079495 0)
(-0.0006579843903 -0.06770338555 0)
(-0.00136165975 -0.06769257955 0)
(-0.001371811876 -0.06835367519 0)
(-0.0009438418603 -0.06340132144 0)
(-0.0004014438755 -0.05537889975 0)
(-0.0002297282093 -0.05538027747 0)
(0.002452948715 -0.05787771793 0)
(0.002474473389 -0.05721925398 0)
(0.001781436502 -0.05721208192 0)
(0.001770325303 -0.05754143139 0)
(0.001758907035 -0.05787037688 0)
(0.002177736435 -0.05556725018 0)
(0.002523911802 -0.05557087701 0)
(-5.680272371e-05 -0.05538207304 0)
(-0.0004164520489 -0.06047933579 0)
(-0.0007526445226 -0.06047979353 0)
(-0.0007701232156 -0.06080612749 0)
(-0.0004343987969 -0.06080550899 0)
(-0.0003982009189 -0.06015292156 0)
(-0.0007353112217 -0.06015302736 0)
(-7.671392222e-05 -0.06048006888 0)
(-5.852164857e-05 -0.06015380732 0)
(0.002356279995 -0.06050628237 0)
(0.00238185199 -0.05985006119 0)
(0.00168245045 -0.05984094861 0)
(0.001653028858 -0.06049585143 0)
(0.001747246191 -0.05819931864 0)
(0.001735436063 -0.05852798169 0)
(0.00243042018 -0.05853555221 0)
(-0.0002618466938 -0.05653695909 0)
(-0.0004372168979 -0.056534481 0)
(-0.0004394862588 -0.05670041937 0)
(-0.0002656718844 -0.05670235144 0)
(-0.001552498393 -0.05916279032 0)
(-0.001543980951 -0.05899934352 0)
(-0.001722241776 -0.05899589966 0)
(-0.0003518595135 -0.05917047839 0)
(-0.0003375696615 -0.05884249839 0)
(-0.000676144905 -0.05884205958 0)
(-0.0006831049052 -0.05900626741 0)
(-0.0006899084816 -0.05917010908 0)
(-0.0002581798024 -0.05637159502 0)
(-0.0004348273786 -0.05636869805 0)
(-8.853275809e-05 -0.0565386992 0)
(-8.418827754e-05 -0.05637359124 0)
(0.001112948831 -0.05654729088 0)
(0.001123270639 -0.05621734574 0)
(0.0007796382051 -0.05621452579 0)
(0.0007692223942 -0.05654459234 0)
(0.0007984581262 -0.0555543925 0)
(0.001142541705 -0.05555743438 0)
(-0.00181423892 -0.06179425603 0)
(-0.00180903891 -0.0616298369 0)
(-0.0007044358318 -0.05949805472 0)
(-0.000366369504 -0.05949839358 0)
(-0.00155596585 -0.05932858744 0)
(-0.001587706106 -0.06048287925 0)
(-0.001581624357 -0.06031884221 0)
(0.0007595106695 -0.06706420893 0)
(5.583838016e-05 -0.06705340297 0)
(-0.0006478369798 -0.06704259697 0)
(0.004974186552 -0.06702026967 3.586575481e-13)
(0.003574209038 -0.06710743289 0)
(0.003553163015 -0.06841282435 3.591571485e-13)
(0.003624964952 -0.06380226174 0)
(0.003614817542 -0.06446305032 0)
(0.001069061686 -0.05786417522 0)
(0.001080579397 -0.05753535411 0)
(0.000737041921 -0.05753275061 0)
(0.000725596961 -0.05786163426 0)
(0.0007588842797 -0.05687419939 0)
(0.001102537494 -0.0568768661 0)
(-9.305793126e-05 -0.05670377367 0)
(0.002227769429 -0.06311955414 0)
(0.002265522119 -0.06246993903 0)
(0.001564618397 -0.0624622469 0)
(0.001524094069 -0.06310874814 0)
(0.001621373749 -0.06114979857 0)
(0.002330594619 -0.06116228681 0)
(-9.546126897e-05 -0.06080607623 0)
(-0.000627532731 -0.06572040569 0)
(-0.0006173806135 -0.06505931004 0)
(-0.001321055962 -0.06504850404 0)
(-0.001331208088 -0.06570959968 0)
(-0.0008773194016 -0.05589484986 0)
(-0.0007559689308 -0.05587355576 0)
(-0.0008051101908 -0.05566266256 0)
(-0.0002441352085 -0.05587582597 0)
(-0.0002402452617 -0.05571009677 0)
(-0.0004166172532 -0.05570763401 0)
(-0.0004192022915 -0.05587362896 0)
(-0.001594198841 -0.06064687926 0)
(-0.001486322316 -0.06179207413 0)
(-0.001466074191 -0.06146513773 0)
(-0.001795264811 -0.06146868216 0)
(-0.0004951233244 -0.06178146583 0)
(-0.0004748201698 -0.06145606593 0)
(-0.0008079467681 -0.06145813712 0)
(-0.0008248896119 -0.06178481714 0)
(-0.001834089016 -0.06195427322 0)
(-0.0009576722922 -0.05652934493 0)
(-0.0009613932038 -0.05669464675 0)
(-0.0007894867889 -0.05669584312 0)
(-0.000790704071 -0.05652899125 0)
(-0.0009707110036 -0.05719021197 0)
(-0.0007972893344 -0.05719207658 0)
(-0.0007923736161 -0.05702753023 0)
(-0.0009632701614 -0.05702647222 0)
(-0.0002789338872 -0.05719711898 0)
(-0.0002743523686 -0.05703247536 0)
(-0.0004460309027 -0.05703115963 0)
(-0.0004507003825 -0.05719577119 0)
(-0.001124618564 -0.05702850929 0)
(-0.001140431528 -0.05718963271 0)
(-0.001083339625 -0.05654866854 0)
(-0.001127545491 -0.05668530765 0)
(-0.0009910622117 -0.05784986104 0)
(-0.0009899047844 -0.05768369061 0)
(-0.001166100503 -0.05768116914 0)
(-0.00116602733 -0.05784760417 0)
(-0.001161796373 -0.0573492888 0)
(-0.0009824086449 -0.05735274997 0)
(-0.001718289097 -0.05847110538 0)
(-0.001514515489 -0.05851038387 0)
(-0.00150888585 -0.05834538778 0)
(-0.001672563699 -0.05833691593 0)
(-0.001003512281 -0.05851199635 0)
(-0.0009990036456 -0.05834679877 0)
(-0.001170170424 -0.05834579804 0)
(-0.001174178314 -0.05851118759 0)
(-0.001167747627 -0.05801342812 0)
(-0.0009931679876 -0.05801558693 0)
(-0.001028820886 -0.05916926582 0)
(-0.001022064311 -0.05900548485 0)
(-0.001193601456 -0.05900420201 0)
(-0.001200304175 -0.05916807595 0)
(-0.001179315947 -0.05867634479 0)
(-0.001008961227 -0.05867702593 0)
(-0.001678242926 -0.05867894116 0)
(-0.001518615968 -0.05867580271 0)
(-0.001010110006 -0.05631763329 0)
(-0.000423932952 -0.05603888455 0)
(-0.0002486843209 -0.05604129934 0)
(-0.0009214141087 -0.05603665047 0)
(-0.0007699597354 -0.05603578212 0)
(-0.0007956135933 -0.05636085415 0)
(-0.001782125099 -0.06114083806 0)
(0.005956504594 -0.05726087061 0)
(0.01050795181 -0.05470792597 3.468614285e-13)
(0.0094001723 -0.05621421676 3.56506491e-13)
(0.009309587703 -0.05717328122 3.543554339e-13)
(-0.0004557843903 -0.05736037639 0)
(-0.0002844837787 -0.05736150203 0)
(-0.0008044043113 -0.05735603633 0)
(-0.0008162572355 -0.05785214617 0)
(-0.0008131830427 -0.05768655801 0)
(0.003227105168 -0.05524846995 0)
(0.005315212946 -0.05527310345 0)
(0.004619566746 -0.05526484708 0)
(-0.0005694551179 -0.05537865388 0)
(-0.0005879826159 -0.05553970491 0)
(-0.0004111126641 -0.05554242101 0)
(-0.0002354043673 -0.05554484286 0)
(-7.004636811e-05 -0.0558778851 0)
(-6.568513128e-05 -0.05571228599 0)
(0.0004463986738 -0.05588173107 0)
(0.0004511550835 -0.05571659872 0)
(0.0002795099968 -0.05571534494 0)
(0.000274635962 -0.0558805369 0)
(0.000288210067 -0.0553854056 0)
(0.000460265438 -0.0553869421 0)
(-0.001338328106 -0.05784624818 0)
(-0.001333014254 -0.0576816158 0)
(-0.001458897229 -0.0577011818 0)
(-0.001504140501 -0.05783697572 0)
(-0.001382398605 -0.05747087244 0)
(-0.001626310678 -0.05820116822 0)
(-0.001501765072 -0.05818109028 0)
(-0.001548884739 -0.05797087311 0)
(-0.001339280084 -0.05817903996 0)
(-0.001341482846 -0.05801168154 0)
(-0.001788796871 -0.06130489675 0)
(-0.00169802195 -0.05883813019 0)
(-0.001566548717 -0.0598245325 0)
(-0.001563100374 -0.05965938007 0)
(-0.00105555141 -0.05982632917 0)
(-0.001048926168 -0.05966230048 0)
(-0.001218061615 -0.05966222162 0)
(-0.001224383341 -0.05982628568 0)
(-0.001206354253 -0.05933285058 0)
(-0.001035989378 -0.05933347045 0)
(-0.0007199333323 -0.05537947578 0)
(-0.0007636884194 -0.0555259807 0)
(-0.0005924182207 -0.05587216677 0)
(-0.0005935401834 -0.0557049478 0)
(-0.0009637387263 -0.05686018468 0)
(-0.00117092615 -0.05681941025 0)
(-0.001245529273 -0.05705008656 0)
(-0.001290971998 -0.05719066866 0)
(-0.0009886800456 -0.05751733693 0)
(-0.001169149572 -0.05751352131 0)
(-0.001337817383 -0.05733559047 0)
(-0.001345022911 -0.05851040679 0)
(-0.001340679144 -0.05834514525 0)
(-0.001529512188 -0.05883835301 0)
(-0.001357889308 -0.05883945289 0)
(-0.001349845689 -0.05867566097 0)
(-0.0009671188827 -0.05618189692 0)
(-0.0007898828559 -0.05619607461 0)
(-0.000609455868 -0.0561999203 0)
(-0.0005989370882 -0.05603668851 0)
(-0.0006144297458 -0.05653151393 0)
(-0.0006145228339 -0.05636495574 0)
(0.006012017479 -0.05528193045 0)
(0.008104980129 -0.05530841987 0)
(0.006708914129 -0.05529075886 0)
(0.01131586468 -0.05213193279 3.304578833e-13)
(0.01144944962 -0.03913915605 2.481070904e-13)
(0.01181196069 -0.04419751964 2.801370247e-13)
(0.01154639836 -0.04426923103 2.742250871e-13)
(0.01081877467 -0.03403927353 2.158134782e-13)
(0.006814567655 -0.01728968148 1.09745546e-13)
(0.008383076653 -0.02273855613 1.442734821e-13)
(0.007871153385 -0.02185474457 1.355165979e-13)
(0.00515436007 -0.01228459215 7.800704527e-14)
(0.0009047285155 -0.001825375268 1.16157084e-14)
(0.002062497762 -0.004384848391 2.786659792e-14)
(0.001705875 -0.003711755546 2.305100555e-14)
(-1.140169756e-05 -0.05917180608 0)
(2.675714103e-06 -0.05884369997 0)
(0.00101773706 -0.05917858044 0)
(0.001031514498 -0.05885040829 0)
(0.0006874642351 -0.05884779691 0)
(0.0006740590501 -0.05917612834 0)
(0.0007135589077 -0.05819053952 0)
(0.001057056937 -0.0581931117 0)
(0.006502368911 -0.06187476423 0)
(0.009850841307 -0.05666714835 3.287231598e-13)
(0.008984433123 -0.05959267585 3.45778961e-13)
(0.008859699893 -0.06019358232 3.419764472e-13)
(0.009213873335 -0.05808624993 3.520100877e-13)
(0.01042080731 -0.05294245436 3.070876886e-13)
(0.009907505056 -0.03716325305 2.155775558e-13)
(0.01046901926 -0.04302636512 2.495503804e-13)
(0.01001106942 -0.04206247928 2.389061171e-13)
(0.01117997167 -0.04389200191 2.658706588e-13)
(0.008994064098 -0.03101913401 1.799810301e-13)
(0.004837353556 -0.01343049506 7.800704527e-14)
(0.006361909194 -0.01888809544 1.096622793e-13)
(0.005948329774 -0.01804362175 1.025846075e-13)
(0.007460643255 -0.02119449631 1.285083151e-13)
(0.003324371404 -0.008668290329 5.037636974e-14)
(0.0002568428171 -0.0005670623589 3.28903571e-15)
(0.0009932705737 -0.002310262019 1.34336986e-14)
(0.0007039526796 -0.00167258861 9.520162436e-15)
(0.001501683734 -0.003342613161 2.028932578e-14)
(7.614263191e-05 -0.06573121169 0)
(8.629475778e-05 -0.06507011605 0)
(0.002187165641 -0.06576362965 0)
(0.002197317767 -0.06510253401 0)
(0.001493642407 -0.065091728 0)
(0.001483490281 -0.06575282365 0)
(0.001513941943 -0.06376984378 0)
(0.002217617303 -0.06378064978 0)
(0.006288587266 -0.06601891218 3.532035775e-13)
(0.008956216649 -0.05633753104 3.012312622e-13)
(0.008345333415 -0.06063589858 3.242545121e-13)
(0.008109333819 -0.06012297238 3.153172168e-13)
(0.008677931886 -0.06042219043 3.363281875e-13)
(0.009224732146 -0.05113095157 2.733646642e-13)
(0.007874815683 -0.03212030599 1.717792575e-13)
(0.008668843372 -0.0387817617 2.073757832e-13)
(0.00824011738 -0.03758226605 1.970923424e-13)
(0.009651059681 -0.04144811352 2.306349556e-13)
(0.006943890868 -0.02603001806 1.392497229e-13)
(0.003091691362 -0.009325127038 4.993228053e-14)
(0.004426322615 -0.01427871974 7.642497746e-14)
(0.003786398103 -0.01244741285 6.535050279e-14)
(0.005350224059 -0.01657097574 9.230116671e-14)
(0.001849434888 -0.005236730561 2.804700916e-14)
(0 0 0)
(0.0001958411432 -0.0004948849104 2.650657471e-15)
(9.141397579e-05 -0.0002356186811 1.235123115e-15)
(0.0005308359722 -0.001287950857 7.188694084e-15)
(-0.0007148312696 -0.07149988094 3.551187122e-13)
(-0.002116137525 -0.07175588643 3.564926132e-13)
(-0.0020676904 -0.07118027866 3.472777621e-13)
(-0.002075484165 -0.06834286924 0)
(-0.002095788417 -0.06966506052 0)
(0.000674926023 -0.07094711627 3.522737657e-13)
(0.004518941868 -0.06617544152 3.283068262e-13)
(0.003327809903 -0.068414578 3.395062009e-13)
(0.00318005272 -0.06649680562 3.240741009e-13)
(0.003512003133 -0.06925909823 3.567146578e-13)
(0.005558865003 -0.06316760098 3.133188153e-13)
(0.007307841061 -0.0495138675 2.455119441e-13)
(0.006993430919 -0.05478387119 2.716576963e-13)
(0.006481781537 -0.05161339316 2.513683706e-13)
(0.00780756712 -0.05901438292 3.03659875e-13)
(0.007320778888 -0.04368221912 2.165906343e-13)
(0.005627367803 -0.02470076548 1.225269886e-13)
(0.006451581798 -0.03105814888 1.540295669e-13)
(0.005721904369 -0.02801124009 1.364464097e-13)
(0.007722312893 -0.03588363397 1.846439668e-13)
(0.004618253255 -0.01862906046 9.24260668e-14)
(0.001367132945 -0.004441216766 2.205180483e-14)
(0.00238553406 -0.008284934469 4.111988527e-14)
(0.001876976066 -0.006633665937 3.233524559e-14)
(0.003359267877 -0.01125233042 5.795364189e-14)
(0.0005633504762 -0.001719606625 8.534839502e-15)
(0 0 0)
(0 0 0)
(0 0 0)
(8.761952166e-06 -2.30190002e-05 1.110223025e-16)
(-0.0005326897237 -0.06073678879 2.81094592e-13)
(-0.00166167855 -0.06156341241 2.849942504e-13)
(-0.001463144665 -0.05606818746 2.551847622e-13)
(-0.001972235185 -0.06924809724 3.318872954e-13)
(0.000563559087 -0.05931400704 2.744610095e-13)
(0.003320295847 -0.05136614553 2.375460939e-13)
(0.002524181952 -0.05462998475 2.526728826e-13)
(0.002246159013 -0.04892694201 2.225164497e-13)
(0.002995244046 -0.06352838237 3.041733532e-13)
(0.003950056893 -0.04751673094 2.197270144e-13)
(0.004604398057 -0.033152736 1.532801663e-13)
(0.004607101702 -0.03830981485 1.771222058e-13)
(0.003911965806 -0.03294843916 1.498107194e-13)
(0.005906574315 -0.04776140201 2.285394096e-13)
(0.004380986048 -0.02780965539 1.285915818e-13)
(0.002652282985 -0.01242421251 5.746791931e-14)
(0.003362175998 -0.01725522769 7.979727989e-14)
(0.002593842342 -0.01351251926 6.145084441e-14)
(0.004950010654 -0.02462864914 1.178779296e-13)
(0.001891359376 -0.008150421396 3.770594947e-14)
(0.0001231608046 -0.0004286895021 1.984523657e-15)
(0.0005376675124 -0.001998858604 9.24260668e-15)
(0.0002368940715 -0.0008952794115 4.080069615e-15)
(0.001383073007 -0.004972608075 2.381428388e-14)
(0 0 0)
(0 0 0)
(0 0 0)
(0 0 0)
(0 0 0)
(-0.0002084042353 -0.03469397673 1.503103197e-13)
(-0.0008189026723 -0.03550377004 1.538491556e-13)
(-0.0006211644982 -0.02819366984 1.202510314e-13)
(-0.001249438205 -0.04972686047 2.225858386e-13)
(0.0003700916369 -0.03333732686 1.444261377e-13)
(0.001651924622 -0.02634767412 1.141170491e-13)
(0.001323408859 -0.02911299691 1.261074578e-13)
(0.001017635104 -0.02243276809 9.564571357e-14)
(0.001947858637 -0.04262094722 1.906669267e-13)
(0.001858759251 -0.02324315608 1.006694728e-13)
(0.001704942367 -0.01292618661 5.598299602e-14)
(0.001880575304 -0.01641262167 7.108202915e-14)
(0.001296810718 -0.01144981826 4.882205751e-14)
(0.003211389716 -0.02737984209 1.224575996e-13)
(0.001428676304 -0.009575205417 4.146682997e-14)
(0.0003666174719 -0.001824682253 7.91033905e-15)
(0.0007120137771 -0.003875254978 1.679212325e-14)
(0.0003144847633 -0.00173683778 7.410738689e-15)
(0.001877917982 -0.009927814051 4.440892099e-14)
(0.0001075358713 -0.0004931999474 2.137179322e-15)
(0 0 0)
(0 0 0)
(0 0 0)
(5.081426645e-05 -0.0001951972478 8.743006319e-16)
(0 0 0)
(0 0 0)
(0 0 0)
(0 0 0)
(0 0 0)
(-2.860711836e-05 -0.008707628744 3.547162564e-14)
(-0.0001760643885 -0.009129759179 3.719247132e-14)
(-8.722226127e-05 -0.004694624778 1.884603584e-14)
(-0.0004451668931 -0.02116018209 8.884559755e-14)
(0.0001021286092 -0.008016701629 3.264055692e-14)
(0.0002909029703 -0.004774740317 1.944278072e-14)
(0.0002687220225 -0.005991535049 2.439715097e-14)
(0.0001142428928 -0.002566401022 1.029731855e-14)
(0.0007317993304 -0.01617240383 6.789013796e-14)
(0.0002712138788 -0.003522038273 1.434963259e-14)
(6.03401243e-05 -0.0004820409104 1.956768081e-15)
(0.0001391526084 -0.001274993569 5.19029264e-15)
(1.050857344e-05 -9.762425068e-05 3.885780586e-16)
(0.00079843455 -0.007133407592 2.994826609e-14)
(6.978688728e-06 -4.943211321e-05 2.081668171e-16)
(0 0 0)
(0 0 0)
(0 0 0)
(7.15222047e-05 -0.0004008953152 1.679212325e-15)
(0 0 0)
(0 0 0)
(0 0 0)
(0 0 0)
(0 0 0)
(0 0 0)
(0 0 0)
(0 0 0)
(0 0 0)
(0 0 0)
(0 0 0)
(0 0 0)
(0 0 0)
(-2.944419333e-05 -0.001634196001 6.467049118e-15)
(0 0 0)
(0 0 0)
(0 0 0)
(0 0 0)
(2.327077681e-05 -0.0005281372137 2.081668171e-15)
(0 0 0)
(0 0 0)
(0 0 0)
(0 0 0)
(0 0 0)
(0 0 0)
(0 0 0)
(0 0 0)
(0 0 0)
(0 0 0)
(0 0 0)
(0 0 0)
(0 0 0)
(0 0 0)
(0 0 0)
(0 0 0)
(0 0 0)
(0 0 0)
(0 0 0)
(0 0 0)
(0 0 0)
(0 0 0)
(0 0 0)
(0 0 0)
(0 0 0)
(0 0 0)
(0 0 0)
(0 0 0)
(0 0 0)
(0 0 0)
(0 0 0)
(0 0 0)
(0 0 0)
(0 0 0)
(0 0 0)
(0 0 0)
(0 0 0)
(0 0 0)
(0 0 0)
(0 0 0)
(0 0 0)
(0 0 0)
(0 0 0)
(0 0 0)
(0 0 0)
(0 0 0)
(0 0 0)
(0 0 0)
(0 0 0)
(0 0 0)
(0 0 0)
(0 0 0)
(0 0 0)
(0 0 0)
(0 0 0)
(0 0 0)
(0 0 0)
(0 0 0)
(0 0 0)
(0 0 0)
(0 0 0)
(0 0 0)
(0 0 0)
(0 0 0)
(0 0 0)
(0 0 0)
(0 0 0)
(0 0 0)
(0 0 0)
(0 0 0)
(0 0 0)
(0 0 0)
(0 0 0)
(0 0 0)
(0 0 0)
(0 0 0)
(0 0 0)
(0 0 0)
(0 0 0)
(0 0 0)
(0 0 0)
(0 0 0)
(0 0 0)
(0 0 0)
(0 0 0)
(0 0 0)
(0 0 0)
(0 0 0)
(0 0 0)
(0 0 0)
(0 0 0)