/*--------------------------------*- C++ -*----------------------------------*\
| =========                 |                                                 |
| \\      /  F ield         | OpenFOAM: The Open Source CFD Toolbox           |
|  \\    /   O peration     | Version:  v2012                                 |
|   \\  /    A nd           | Website:  www.openfoam.com                      |
|    \\/     M anipulation  |                                                 |
\*---------------------------------------------------------------------------*/
FoamFile
{
    version     2.0;
    format      ascii;
    class       volScalarField;
    location    "0.96";
    object      nut;
}
// * * * * * * * * * * * * * * * * * * * * * * * * * * * * * * * * * * * * * //

dimensions      [0 2 -1 0 0 0 0];


internalField   nonuniform List<scalar> 
3019
(
0.07300128542
0.2060276501
0.2795910683
0.3732288824
0.4943821518
0.6581518754
0.9003413292
1.162510887
1.153838694
1.149848726
1.148262259
1.148013465
0.1359681371
0.3037667392
0.3894305424
0.4828164626
0.5982916809
0.7495575854
0.9688167957
1.163794054
1.154651211
1.150269339
1.1484513
1.148123457
0.1920177379
0.4754009316
0.59084561
0.6527062808
0.7450004843
0.8801123738
1.080204919
1.16489357
1.155434081
1.150742465
1.148758065
1.148385041
0.217219802
0.5070780543
0.7921445739
0.8998989679
0.94709043
1.050158244
1.167707547
1.165769108
1.15614745
1.151245618
1.149143755
1.148734359
0.2575358131
0.5461592308
0.8201713833
1.007648908
1.106889117
1.151791152
1.16865924
1.166376663
1.156718229
1.151691804
1.149514858
1.149083825
0.3007980062
0.5845708737
0.8423001191
1.014213885
1.10853971
1.152734683
1.169040922
1.166668706
1.157128829
1.152065592
1.149873024
1.149431922
0.3296237467
0.6061925655
0.8507010141
1.01583754
1.10904724
1.152895793
1.168992702
1.166689828
1.1573473
1.15229931
1.150118779
1.14967515
0.3364575308
0.6073395671
0.8523917242
1.016237067
1.108761967
1.152490102
1.168603721
1.166482063
1.157454584
1.152481023
1.150326645
1.14987862
0.3391679509
0.6064736738
0.8517742613
1.015686137
1.10790253
1.151678389
1.16794991
1.166093564
1.157402196
1.152518379
1.150395998
1.149944578
0.3406898301
0.6047752167
0.84900906
1.014193255
1.106581074
1.150567316
1.167097801
1.165571093
1.157295089
1.152533149
1.150441776
1.149980052
0.341300938
0.6024935904
0.8448368513
1.011690513
1.104821366
1.149213027
1.166098648
1.164952442
1.157064909
1.152413734
1.150348402
1.149874949
0.3412315478
0.5997679031
0.8399313314
1.008258215
1.102612662
1.147635748
1.164982484
1.164262354
1.156827547
1.152309161
1.150264907
1.14977273
0.3406751886
0.5967230739
0.83465669
1.004097038
1.099965412
1.145843577
1.163766971
1.163516232
1.156483255
1.152075605
1.150045298
1.149533397
0.3398120773
0.5934395591
0.8291651735
0.9994007954
1.096918003
1.143846416
1.162464418
1.162723323
1.156163668
1.151890079
1.149870872
1.14933403
0.3387278878
0.5899520715
0.8235090227
0.9943053281
1.093518087
1.141657025
1.161082018
1.161887804
1.155736967
1.151573
1.149559377
1.148997838
0.3374392419
0.5862624003
0.817694305
0.9888869569
1.08980296
1.139283801
1.159621303
1.161010434
1.155355977
1.151329752
1.14932376
1.148735136
0.3359499157
0.5823513923
0.8117000404
0.9831752875
1.085794418
1.136727366
1.15807856
1.160088371
1.154861758
1.150952173
1.148950914
1.148336821
0.3342396253
0.5781881534
0.8055105603
0.97720752
1.081500034
1.133979784
1.156444332
1.159117329
1.154419203
1.150658352
1.148670369
1.148031621
0.332298271
0.573780493
0.7991261174
0.9709736191
1.076916656
1.131025718
1.154704912
1.158087725
1.15386858
1.15024388
1.148266775
1.147606146
0.3301728588
0.5691708144
0.7925551678
0.9644739739
1.072032524
1.127844822
1.152845115
1.156994145
1.153338166
1.149883196
1.14793427
1.147254791
0.3279122269
0.5643934376
0.7857756461
0.9576864049
1.066830041
1.124416072
1.150851661
1.155823039
1.152759702
1.149468522
1.147542112
1.146848432
0.3255243091
0.559428506
0.7787581329
0.9505807193
1.061277312
1.120725394
1.148720035
1.154579821
1.152068828
1.148988365
1.147112174
1.14640659
0.3230062612
0.554234282
0.7714582874
0.9431303775
1.055377258
1.116766511
1.146470152
1.153262919
1.151556032
1.148640814
1.146801893
1.146093726
0.3203798956
0.5488478895
0.763902784
0.9353624275
1.049156267
1.112557477
1.144190363
1.151954642
1.150498888
1.147914215
1.146169671
1.145460508
0.0541865049
0.0683808082
0.181027766
0.09695696212
0.05578328388
0.1230442357
0.2451624691
0.1841566243
0.1419610643
0.1083182486
0.1436287014
0.08189209526
0.08005372867
0.09402477453
0.1592826511
0.1471685679
0.03665467449
0.0664773278
0.03330720928
0.04433325113
0.1127482566
0.07117893484
0.1852872059
0.3963815035
0.276003232
0.1209953111
0.1177214989
0.04797776319
0.1978532104
0.1654350405
0.09752742247
0.1172175331
0.006970242769
0.0225705212
0.03837086103
0.08724266184
0.01092849105
0.01411796871
0.04413389566
0.01087729705
0.01045393075
0.01431617236
0.01091192836
0.01091913054
0.02407850664
0.01621076111
0.03436418175
0.02705908859
0.01073600715
0.007163979114
0.0253576497
0.01027840456
0.01071137336
0.1884362302
0.2424324745
0.04657594111
0.01582203524
0.02320161593
0.01112071164
0.01752922163
0.0338111921
0.06828980668
0.01066347251
0.007434221594
0.007527504152
0.01088449807
0.01062808844
0.04363009867
0.03684075148
0.01030558468
0.01038598928
0.0103083444
0.01044363225
0.007131933932
0.0104559739
0.01051770915
0.01263760945
0.01089412292
0.01080461994
0.01069244131
0.0104981433
0.01169304069
0.01131802873
0.01093575544
0.01077052029
0.01103465465
0.01300273984
0.01215782095
0.01044836231
0.01108986368
0.0109185867
0.01325789666
0.01192603349
0.01026084584
0.2611271975
0.326999061
0.3523803922
0.4407180899
0.4745117166
0.5887862282
0.08661186715
0.121394319
0.1212666074
0.2703244249
0.3351773707
0.2600108209
0.3559195554
0.4257861047
0.3476810256
0.451172952
0.5361428588
0.4609569085
0.5676027878
0.6710909409
0.6081943718
0.1527673487
0.2773654812
0.2128800038
0.4676998842
0.5156936954
0.3700619477
0.5300609685
0.5825068464
0.4583922946
0.6033358402
0.676627898
0.5671189087
0.704463258
0.7952816993
0.698978411
0.1303151836
0.1144260494
0.2095749298
0.424121048
0.4029850587
0.4984882465
0.7177717944
0.5801976457
0.7850293534
0.8220713466
0.6342173027
0.8298985551
0.8718828802
0.7185634397
0.8912630558
0.9667891814
0.8353763789
0.1670638674
0.1375476724
0.2464369793
0.460329342
0.4322490286
0.5359042319
0.7498916821
0.7256738349
0.8134041147
0.9664768855
0.8997815242
1.004971264
1.087650513
0.9304401252
1.10622717
1.143551665
1.018601076
0.2171240764
0.1790157975
0.2907599605
0.5010840206
0.4705878716
0.5758803181
0.7791057927
0.7578190041
0.8377647901
0.978065011
0.970017787
1.013307762
1.090272299
1.088591771
1.108251705
1.144876076
1.143984492
0.2578946447
0.2291485458
0.3246167696
0.5307245054
0.5103018164
0.6030444743
0.7956285582
0.7848285368
0.8499317076
0.9816346122
0.9796809078
1.015563932
1.091243848
1.090625561
1.10900572
1.145282782
1.145051436
0.2703110991
0.2637040218
0.3355571174
0.5371415939
0.5346670614
0.6073554239
0.7982831654
0.7966562789
0.8521750648
0.9826414254
0.9820055958
1.016231917
1.091252649
1.09132287
1.108893693
1.145025698
1.145272138
0.2732409302
0.2711718787
0.3386134255
0.5379280487
0.5374516592
0.6067844555
0.797906151
0.7984567423
0.8521501974
0.982491871
0.982707074
1.015908794
1.090573105
1.091139228
1.108163308
1.144287363
1.144880181
0.2750565442
0.2737810181
0.340403715
0.5376889754
0.5379517037
0.6052601609
0.7951726319
0.7974011562
0.8498644297
0.9811762488
0.9822769893
1.014659972
1.089345276
1.09031457
1.106952247
1.143193133
1.144043439
0.2760875132
0.2753770017
0.3412203148
0.5366525165
0.5374963144
0.603110723
0.7911169084
0.7942462732
0.8459693861
0.978612009
0.9806503303
1.01240953
1.087593499
1.0889569
1.105303015
1.141813062
1.142873527
0.2765359486
0.2762446188
0.341301986
0.5349886915
0.5362870028
0.6004832967
0.7864322601
0.7899861227
0.841201672
0.974950929
0.9777877474
1.009193028
1.085297106
1.087070472
1.103206883
1.140170343
1.141426871
0.276580389
0.2765771652
0.3408476247
0.5328645942
0.5344935276
0.5975086745
0.7814417862
0.7852049101
0.8359991269
0.970494812
0.9738990297
1.005194101
1.08246951
1.084637959
1.100666521
1.138271104
1.139719538
0.2763282923
0.2765418819
0.3400500754
0.530406928
0.5322761993
0.5942800122
0.7762729586
0.7801626633
0.8305543
0.9655004017
0.9692881308
1.000616374
1.079166481
1.081685195
1.097714635
1.136124478
1.13775726
0.2758486895
0.2762243904
0.339017993
0.5276894721
0.529748824
0.5908423087
0.7709647812
0.7749574416
0.8249374614
0.9601282331
0.9641876732
0.9956114671
1.075457176
1.078274241
1.094398739
1.133746127
1.135551078
0.2752115264
0.2757008035
0.33777943
0.5247324878
0.5269704435
0.5872043235
0.7655159581
0.7696152667
0.8191631899
0.9544634964
0.9587364009
0.9902701652
1.071397569
1.074472908
1.090759848
1.13114986
1.133117162
0.2744202355
0.2750273521
0.3363416204
0.5215463724
0.5239564552
0.5833513663
0.7599020061
0.7641283243
0.8132136355
0.9485308406
0.9530010167
0.9846224105
1.067022171
1.070331827
1.086823362
1.128341236
1.130467531
0.2734296114
0.27419077
0.3346893285
0.5181164353
0.5207104451
0.5792532654
0.7540931634
0.7584687869
0.8070687628
0.9423552118
0.9470084235
0.9787243172
1.06234804
1.065880772
1.082600454
1.125316891
1.127605658
0.2722148888
0.2731438064
0.3328034101
0.5144524991
0.5172211637
0.574902844
0.7480923466
0.752610366
0.800741935
0.9359400203
0.9407728029
0.9725562023
1.057380745
1.061132993
1.078090467
1.122064613
1.124525717
0.270813613
0.2718762771
0.3307183924
0.5105702129
0.5134993346
0.5703390551
0.7418983837
0.7465569017
0.7942145799
0.929283854
0.9342977749
0.9661245391
1.052112105
1.056092214
1.073282186
1.118565607
1.121213594
0.2692811957
0.2704374035
0.3284891226
0.506491878
0.5095675768
0.5656045174
0.735519282
0.7403256976
0.7874920968
0.9223694761
0.9275794761
0.9594117178
1.046524709
1.050750368
1.06815495
1.114798181
1.117649324
0.26763539
0.2688769736
0.3261311451
0.5022188212
0.5054403743
0.5606875426
0.7289173818
0.7338877331
0.7805361222
0.9151645765
0.9205954955
0.9523883641
1.040596652
1.045075861
1.062694841
1.110744948
1.113811849
0.2658663643
0.2672054143
0.3236301238
0.4977246498
0.501118898
0.5555436433
0.7220590391
0.7272310429
0.7733061272
0.907634201
0.9133125846
0.9450244106
1.034310855
1.039058453
1.056884155
1.106396947
1.109686555
0.2639655418
0.2654233766
0.3209660013
0.4929635865
0.4965832791
0.5501039244
0.7148637626
0.7203049778
0.7657317317
0.8997342615
0.9056991835
0.9372861124
1.02765937
1.03268263
1.05072005
1.101767266
1.105265803
0.2617640739
0.263550898
0.317903645
0.4875235747
0.4918687702
0.5439116833
0.7067593596
0.7131420146
0.7572210611
0.8908989297
0.8977808248
0.9286360093
1.020222874
1.025977793
1.043825656
1.096589478
1.100574844
0.05128299144
0.04177901224
0.04384668839
0.0885874441
0.08402823626
0.06340186742
0.1652388715
0.1458974061
0.1541348906
0.08973780779
0.03795832131
0.02611303443
0.03449003358
0.05719433606
0.1510923817
0.1403294685
0.1077114939
0.2133545725
0.1800518558
0.2166751751
0.1579640036
0.1726957276
0.2061613357
0.121617134
0.1065095899
0.1406160374
0.1293426841
0.1264403989
0.125990657
0.1398087157
0.02821329882
0.03952520125
0.06559810179
0.06746509565
0.08384847424
0.07861887748
0.0601662672
0.06359061506
0.1263630254
0.1242913029
0.09096970221
0.1546413592
0.1389476583
0.1431156924
0.1316000102
0.1344722303
0.1507769427
0.02527346344
0.02823738378
0.03904231031
0.01527446296
0.01414902254
0.01094936609
0.06218955026
0.03711167141
0.04278568119
0.03077925265
0.01943692779
0.02221091011
0.06972968757
0.06471537688
0.03656290193
0.1082954218
0.08625036984
0.09090383344
0.08130552379
0.1033176343
0.05161339313
0.05629317673
0.07547199312
0.01906511775
0.01714173992
0.04602160877
0.04516200924
0.2637697894
0.256174804
0.1599626295
0.380304603
0.3253252876
0.3321349718
0.2392299559
0.2955055442
0.3206034366
0.1210539477
0.1051011446
0.1094447604
0.0957772724
0.100337064
0.1203752324
0.05851093626
0.07918046644
0.07435539309
0.1840746865
0.1636959256
0.1749656635
0.148104444
0.155077111
0.1731796354
0.1024526858
0.1340780779
0.1283188461
0.1122050481
0.07344549313
0.07713426811
0.01984419961
0.01195463043
0.01337498136
0.05113724053
0.049429443
0.05372413783
0.05230739581
0.03647825331
0.08530728446
0.06960475716
0.07052436718
0.01156203033
0.01753403944
0.01524830019
0.02307785089
0.02031933421
0.01276443605
0.04180695677
0.03116672635
0.03391620988
0.0213654173
0.01366498204
0.01519799732
0.0114676117
0.01231109349
0.01858303547
0.03228081229
0.02141085705
0.02391603405
0.0171440299
0.01922812397
0.02935486131
0.01522664365
0.0169939042
0.02786698027
0.2090273629
0.196195867
0.1762702797
0.2269778136
0.2092060191
0.2231336753
0.03650041585
0.03897854655
0.04916675697
0.01763514677
0.02828189895
0.02575970321
0.03374848766
0.03127188093
0.0203989819
0.04506939469
0.04281758164
0.03095571356
0.06356434026
0.0545107465
0.05463252061
0.05069926106
0.06189022087
0.02385710335
0.02163673024
0.04110688775
0.03191831407
0.0342232788
0.02672013014
0.02931164323
0.03879710789
0.6284911952
0.7507911466
0.875259879
1.00642821
1.146695635
1.158253616
0.07769025084
0.09753654317
0.09323528325
0.2225851855
0.2428297497
0.2240117845
0.3011075599
0.3230155361
0.3011162201
0.3963383085
0.423755809
0.4002693988
0.5168453958
0.5521314058
0.5301785959
0.7122180452
0.8250528031
0.7815827314
0.9300518799
1.051327386
1.027189829
1.163045492
1.159462214
1.158889721
0.1431200648
0.1831547566
0.1663517541
0.3463278786
0.366068663
0.323581837
0.430038279
0.4512487942
0.4115970096
0.5186492771
0.5442470409
0.5090828929
0.6298381407
0.662474556
0.6311488602
0.8272961247
0.9299390997
0.8752501941
1.018482735
1.130921684
1.087455677
1.164292981
1.160565469
1.160055924
0.1975090507
0.2756130913
0.2702822035
0.4827820754
0.5573982784
0.5496933415
0.6600964796
0.6675716043
0.6037515164
0.7066884119
0.7243130905
0.6729001173
0.7902757626
0.8163832623
0.7737094911
0.9841426023
1.066306814
0.9923718825
1.154451363
1.167563335
1.166983985
1.165347007
1.161518742
1.16108379
0.2260285027
0.3020619694
0.2943097614
0.5162191624
0.5911599129
0.5821386733
0.7992912551
0.8587368755
0.8525283537
0.9805525979
0.9789620915
0.9063255168
1.006841419
1.023591108
0.9660945774
1.151406956
1.164303194
1.154205213
1.168277743
1.16852217
1.1681245
1.166132407
1.162273945
1.161941548
0.2688302814
0.3394190979
0.3294560364
0.5564103172
0.6294477919
0.6198437452
0.8265755343
0.8816000625
0.876361373
1.009963914
1.041227878
1.039598636
1.107435575
1.122394422
1.121926388
1.152584545
1.165208044
1.16486501
1.168910304
1.169009567
1.16881304
1.166571743
1.162778119
1.162581772
0.3099402992
0.3772694089
0.3686504185
0.5921235354
0.6621583542
0.6552888294
0.8458781925
0.8965119372
0.8938787905
1.014766507
1.044294687
1.043862112
1.108757144
1.12349759
1.123323001
1.152917474
1.165439825
1.165393378
1.169064925
1.16912222
1.169106269
1.166721398
1.16303189
1.162955453
0.333215126
0.398946647
0.3958713326
0.6069955954
0.6748370881
0.6741730117
0.8513237611
0.9000934764
0.8995842673
1.016036057
1.045226032
1.045099704
1.109039569
1.123665558
1.123694243
1.152635516
1.165184704
1.165364845
1.168835974
1.168921741
1.169054581
1.166620183
1.163068472
1.163099225
0.3372622063
0.4024549533
0.4017460103
0.6072273718
0.6749900292
0.6752134655
0.8524605738
0.9010711894
0.9009898703
1.016183731
1.045157443
1.045253165
1.108594615
1.123173707
1.123347554
1.151912373
1.164565164
1.164913845
1.168305747
1.168475211
1.168723321
1.166314337
1.162926422
1.163042575
0.339646332
0.4044555316
0.4040720907
0.6061117729
0.6730638
0.6736610708
0.8512596004
0.9002122837
0.900608957
1.015404514
1.044302201
1.044586138
1.107613061
1.122196404
1.122479943
1.150868136
1.163676708
1.164149711
1.167544996
1.16784521
1.168178093
1.165852163
1.162642414
1.162826262
0.3409173857
0.4053275884
0.4052014218
0.6042528436
0.6702081361
0.6709792675
0.8480657583
0.8975047457
0.8983350204
1.013661977
1.042678471
1.043159981
1.106182427
1.120825748
1.121203154
1.149571225
1.162585604
1.163153515
1.166614343
1.167082988
1.16747697
1.165276539
1.16225635
1.162486635
0.3413374462
0.4053163409
0.405390278
0.601847486
0.6668454872
0.6677225348
0.8436594008
0.8934207919
0.8945369669
1.010912315
1.040237254
1.040924057
1.104311261
1.119085818
1.119555624
1.148048527
1.161330033
1.161976894
1.165553946
1.166222272
1.166662592
1.164618812
1.161792658
1.162059559
0.3411280699
0.4046661072
0.4048697162
0.5990316211
0.6631545988
0.6641013411
0.8386381215
0.8885299287
0.8898045929
1.007277483
1.037020217
1.037890823
1.101990613
1.11697421
1.117536806
1.146309285
1.159929508
1.160647014
1.16438626
1.165282984
1.165760896
1.163898101
1.16127345
1.161564678
0.3404822822
0.4036311923
0.4039211709
0.5959216509
0.6592419392
0.6602374487
0.8333003734
0.8831930964
0.8845575105
1.002966376
1.033157537
1.034175707
1.099238981
1.11450078
1.115151807
1.14436222
1.158397375
1.159179146
1.163125978
1.164278037
1.164787655
1.163127006
1.160706402
1.161020761
0.3395585465
0.4022951132
0.4026543378
0.5925853305
0.6551572953
0.6561936115
0.8277651166
0.8775808638
0.8790048733
0.9981600014
1.028789357
1.029922185
1.096099103
1.11169287
1.112424366
1.142219899
1.156744574
1.15758551
1.161782991
1.163215231
1.163753294
1.162311608
1.160102176
1.160432437
0.3384232453
0.4007050379
0.4011266161
0.5890481706
0.6509113408
0.6519884837
0.8220696848
0.8717618323
0.8732348641
0.9929783145
1.024022769
1.025247683
1.092617504
1.108582831
1.109387195
1.139892367
1.154977151
1.155875035
1.160361588
1.162097305
1.162662913
1.161454874
1.159459731
1.159809442
0.3370853467
0.3988795094
0.3993567295
0.5853057142
0.6464900006
0.6476134392
0.8162116135
0.8657505071
0.8672745375
0.9874855961
1.018922405
1.02022659
1.088827518
1.105193829
1.10606642
1.13738213
1.153094692
1.154050522
1.158860791
1.160923102
1.161517298
1.160554957
1.158782391
1.159147432
0.3355433897
0.3968205142
0.3973600446
0.5813348448
0.6418619481
0.6430403209
0.810169039
0.8595450849
0.8611158434
0.9817131062
1.01351544
1.014895897
1.084747081
1.101536902
1.102476149
1.13468351
1.151089867
1.152108167
1.157274029
1.159687297
1.160313024
1.159609479
1.158067177
1.158452244
0.3337741046
0.3944894006
0.3950981284
0.5771065295
0.6370016679
0.6382383817
0.8039345352
0.8531309541
0.8547522305
0.9756725387
1.007833205
1.009283798
1.080380533
1.097611269
1.098618481
1.131782815
1.14894835
1.15003702
1.155589411
1.158380795
1.159042953
1.158610055
1.157307596
1.157713387
0.3317810894
0.3919043785
0.3925708487
0.5726440966
0.6319211735
0.6332106506
0.797497781
0.8465154197
0.8481885303
0.9693735504
1.001868869
1.003386956
1.075721676
1.093406458
1.094485203
1.128660629
1.146652355
1.147820477
1.153792026
1.1569921
1.157695988
1.157551256
1.156507701
1.156934214
0.3296189801
0.3891325418
0.3898402402
0.5679920075
0.6266518896
0.6279868768
0.7908809364
0.8396983066
0.8414227895
0.9628046123
0.995614859
0.9972067206
1.070756115
1.088904053
1.090060442
1.125295395
1.144183749
1.14544082
1.151865889
1.155509361
1.156261061
1.156420865
1.155641788
1.156099995
0.3273261388
0.3862074359
0.3869534879
0.5631689622
0.6211823264
0.622569431
0.7840432814
0.8326483338
0.8344344689
0.9559402534
0.9890473598
0.9907200882
1.065471305
1.084087617
1.085325217
1.121670601
1.141523876
1.142882817
1.149794917
1.153919759
1.154726577
1.155215539
1.154742839
1.155213963
0.3248985221
0.3831221404
0.3839139903
0.5581478392
0.6155081621
0.6169510634
0.7769590368
0.8253313024
0.8271887821
0.9487500967
0.9821398425
0.9838999638
1.05983534
1.078944614
1.080261671
1.117777426
1.13865054
1.140138287
1.14756005
1.152208696
1.15308994
1.15391682
1.153737077
1.154264259
0.3223207071
0.3798565505
0.3807169145
0.5528657582
0.6095665307
0.611093965
0.769568879
0.817697231
0.8196455777
0.9412056174
0.9748704718
0.9767248651
1.053846473
1.07345409
1.074855491
1.113622991
1.135512541
1.137229864
1.145118947
1.150339893
1.151364098
1.152502964
1.152709633
1.153265108
0.3195475896
0.3763450098
0.3773874917
0.5472043747
0.6032449186
0.6050381031
0.7617225947
0.8096017657
0.8118286869
0.9332077395
0.9671591399
0.9692231721
1.047471899
1.067605748
1.069145013
1.108982084
1.131862365
1.134287733
1.142290824
1.148183719
1.149625039
1.150870794
1.151430798
1.152268237
0.1735439017
0.1657534751
0.1703179604
0.09570293262
0.0731026986
0.07983229029
0.04732141165
0.04772158018
0.06040912083
0.18011244
0.1815522166
0.190848428
0.1341975657
0.1403419639
0.1098279769
0.106601108
0.09292354498
0.05538928676
0.05245422486
0.0420636812
0.03324453228
0.03188069479
0.04839909032
0.06169213111
0.05708207038
0.09837072097
0.1104152227
0.1105354293
0.03695369089
0.03609564648
0.2816045233
0.2645909474
0.2449397068
0.3091897856
0.2860112058
0.3035337649
0.3797992149
0.3612470737
0.3342644852
0.4218316008
0.3902750516
0.4091120024
0.5107434091
0.4921896538
0.4557373526
0.5722041674
0.5309138543
0.5491446694
0.1032654475
0.1019692739
0.0823487782
0.1221118409
0.1157884286
0.1135156158
0.1115721954
0.1127174068
0.1236487471
0.2903352457
0.2644886945
0.2439484342
0.3056933285
0.2820454683
0.3107635912
0.2393970549
0.258574624
0.2809045338
0.3779200419
0.3488014059
0.3264663137
0.396277778
0.3719109568
0.4010364823
0.3236463381
0.3458591673
0.3703584122
0.4777628871
0.4486551637
0.4214398697
0.5090331777
0.4779331162
0.5059755705
0.4295080128
0.4528908231
0.4838710331
0.6020358584
0.576571519
0.5416121194
0.648929337
0.6122094451
0.6375734576
0.5679024925
0.5890514009
0.626107942
0.193911868
0.1883567256
0.1495813131
0.1905427758
0.2108990077
0.2345264353
0.4814684042
0.4182774656
0.4003706893
0.4597822312
0.4405018749
0.4997346786
0.3463309846
0.3892967298
0.4112299191
0.5466612983
0.4956803263
0.4764385431
0.5368940111
0.515779326
0.5641968264
0.4346899193
0.4726613418
0.4945289753
0.6260569005
0.583150257
0.5597083267
0.6354236861
0.608467459
0.650371674
0.5373833003
0.5714288715
0.5995883353
0.7334804012
0.6964932422
0.6647078235
0.7614474909
0.7285870705
0.7641283198
0.6652971031
0.6962245081
0.727886758
0.1243905473
0.1196006081
0.2873625493
0.2811824828
0.2030553039
0.4166247447
0.3495901902
0.356168098
0.337944836
0.3435749024
0.4096439306
0.573522467
0.5652982264
0.4904210667
0.7100255476
0.639379561
0.6474060546
0.5701263015
0.6315993111
0.6563319982
0.8239805992
0.7398233119
0.7409760967
0.7538491549
0.7443586722
0.8193024056
0.6181404328
0.6783119086
0.6912336564
0.8410446225
0.7803291342
0.7659065739
0.8170071397
0.7974010687
0.8550612417
0.6948785437
0.7440975948
0.7660590406
0.9126994545
0.8627307916
0.8389764267
0.9209469031
0.8892269838
0.9381293355
0.8030550074
0.8445760502
0.87495393
0.1559939922
0.1461035007
0.3197707208
0.3105896554
0.2358405535
0.4504283985
0.3799482992
0.3891268096
0.3634133547
0.3713439499
0.4410286511
0.6101471182
0.6005281047
0.5258643847
0.7418129567
0.6730982235
0.6820088046
0.6557161515
0.6643006966
0.7337071193
0.8707391412
0.8648322622
0.8064079994
0.9626158348
0.9169409639
0.9217843491
0.9066186231
0.9118634112
0.9584967721
1.037639486
1.035383161
1.001979835
1.063677873
1.0599996
1.064995679
0.9164945409
0.9833881253
0.9934599183
1.121365822
1.085845814
1.072138514
1.131515219
1.105073724
1.133667538
0.9891523727
1.045034096
1.070313257
0.2044441752
0.1916182233
0.3592729565
0.3494545047
0.2799995301
0.4912451226
0.4186304687
0.4283304604
0.3987730598
0.4086663854
0.4809602034
0.6474224744
0.6387040182
0.5664167835
0.772596474
0.7078065727
0.7154846556
0.6908795104
0.6995510956
0.7654376294
0.8904767005
0.8863362366
0.832495315
0.9758807634
0.9341170862
0.9372044605
0.9263179045
0.9304564626
0.9731739911
1.043320412
1.042477522
1.011866233
1.089832397
1.068230265
1.068765833
1.066388804
1.06746197
1.089293347
1.123085217
1.122777968
1.107886368
1.144642031
1.134898558
1.135163197
1.134157261
1.134565629
1.144347601
0.2498310652
0.2402425898
0.3911258786
0.3848498667
0.317892262
0.5254515197
0.453316619
0.4591763035
0.4375789235
0.4459399768
0.5184248873
0.671809809
0.667678252
0.598448401
0.7932271127
0.7327701659
0.7362117209
0.7223066016
0.7282045413
0.7895663973
0.8989653959
0.8981631865
0.848573029
0.9811724456
0.9422371009
0.9428315426
0.9396492271
0.9413593888
0.9806012858
1.044906394
1.04464022
1.015209443
1.091104942
1.069811599
1.07000666
1.069198306
1.069544459
1.09090107
1.123678536
1.123614417
1.108910726
1.145251201
1.135602683
1.135647052
1.135365131
1.135510255
1.145176062
0.269340658
0.2679429778
0.4009434934
0.4000449953
0.334545857
0.5367370553
0.4669742118
0.4677122338
0.4636624717
0.4660807277
0.5361960735
0.675283078
0.6751682172
0.6072541892
0.7979220666
0.7389674371
0.7392243875
0.7377621613
0.7384879894
0.7973792592
0.9007973992
0.9004977612
0.85181729
0.9825044195
0.9440173049
0.944235336
0.9433192587
0.9437130484
0.9822942143
1.045298604
1.045290784
1.016166233
1.091323246
1.07021919
1.070181766
1.070136095
1.070205426
1.091348105
1.123489181
1.123596122
1.108987316
1.145141
1.135528154
1.135415078
1.135647076
1.135606478
1.145224407
0.2726290342
0.2719436444
0.4036136497
0.4030759672
0.3379806533
0.5378391136
0.4693857583
0.4697778805
0.468356855
0.4689136478
0.5376830741
0.6741920415
0.6746414705
0.6070390276
0.7982596422
0.7388082681
0.7383444241
0.7392710093
0.7391252912
0.7984476981
0.9008839123
0.9010371478
0.8523805455
0.9826334178
0.9443775856
0.9442465824
0.944368897
0.9444173283
0.9827049856
1.044823164
1.045013675
1.016074492
1.090797525
1.069797839
1.069586825
1.070097195
1.069968557
1.090986995
1.122738188
1.122969966
1.108394549
1.144509329
1.13489328
1.134665168
1.135270102
1.135095461
1.144707481
0.2746847784
0.2742627764
0.4050163887
0.4047688729
0.3400580411
0.5378299036
0.4705203676
0.4706346614
0.4700951686
0.4703419054
0.5379192408
0.6717155884
0.6724123989
0.6057068268
0.796017246
0.7363035679
0.735466988
0.7377586188
0.7370725328
0.796766327
0.8990688581
0.8996970637
0.8506192252
0.9816216684
0.9432790237
0.942759832
0.9440215544
0.9436997535
0.9819882735
1.043590367
1.043970645
1.015063312
1.089700652
1.068721252
1.068354588
1.069336919
1.069048546
1.090023878
1.121557513
1.121888723
1.107296304
1.143495408
1.133842123
1.133524875
1.134413179
1.134138407
1.143778918
0.2758906499
0.2756562908
0.4054186465
0.4053988047
0.3410943468
0.5369766165
0.470631968
0.4705251812
0.4706893089
0.4706878352
0.5372594196
0.6685769277
0.6694062327
0.6036980285
0.7922087102
0.7326652074
0.7316579037
0.7345759321
0.7336399319
0.7932554063
0.8955957941
0.8965882187
0.8470491011
0.9793660598
0.9406466025
0.9397744559
0.9421451199
0.9414390978
0.9800468045
1.041560395
1.042145283
1.013067305
1.088081772
1.067012599
1.066481878
1.067948168
1.067501225
1.088536201
1.120002101
1.120425432
1.105756629
1.142183363
1.132454586
1.132058634
1.133187774
1.132830893
1.142536556
0.2764666902
0.2763726527
0.4050491415
0.4052035704
0.3413368292
0.5354532788
0.469938265
0.4696646651
0.4703719198
0.4701758192
0.5358877451
0.6650330225
0.6659481541
0.6011772849
0.7876399034
0.7284903572
0.7273955394
0.7306240282
0.7295675448
0.7888263353
0.8910480616
0.8922553144
0.8424459472
0.9759525903
0.9367562133
0.9356388115
0.9388306183
0.9378224745
0.9769001588
1.038718645
1.039501407
1.010078855
1.085922323
1.064638939
1.063942304
1.06590926
1.065294948
1.086513701
1.118076335
1.118592685
1.103773147
1.140605591
1.130755496
1.130282213
1.131643636
1.131209228
1.141024034
0.2765984144
0.2765995862
0.4041909233
0.4044395236
0.3410001681
0.5334304683
0.4686404804
0.4682419452
0.4693546498
0.4690124823
0.5339747129
0.6612217666
0.6621942935
0.5982787182
0.7827087279
0.7240302026
0.7228846897
0.7262863452
0.7251644968
0.7839639221
0.8859033151
0.8872282784
0.8373268988
0.9716674661
0.9320393733
0.9307715156
0.9344769378
0.9332758553
0.9728036396
1.03516034
1.036109221
1.006255228
1.083223537
1.061622515
1.060776933
1.063206522
1.062432918
1.08394677
1.115781328
1.116388931
1.101341808
1.138769937
1.128748251
1.128198884
1.129789999
1.129278579
1.139252329
0.2764150941
0.2764884331
0.4029968652
0.4033228382
0.3402747447
0.5310472616
0.4669153977
0.4664340936
0.4678204167
0.4673781894
0.5316712734
0.6572197739
0.6582358921
0.595107742
0.7775786618
0.7193936785
0.718211589
0.7217299602
0.7205665483
0.7788756009
0.8804154046
0.8818118612
0.8319329846
0.9667891191
0.926814666
0.9254513329
0.929476482
0.9281570201
0.9680525479
1.031028857
1.032107916
1.001805616
1.08003294
1.058047535
1.05707802
1.059898266
1.058988101
1.080872925
1.113136487
1.113828843
1.098488589
1.136683887
1.126442216
1.125820961
1.12763138
1.127045679
1.137227755
0.2759844699
0.2761118188
0.4015326278
0.4019218107
0.3392950186
0.5283909761
0.4648918782
0.4643484321
0.465935623
0.4654226726
0.5290776572
0.6530549218
0.6541109976
0.5917201461
0.772304199
0.7146172388
0.7134012217
0.7170218028
0.7158241058
0.7736353626
0.8746955296
0.8761440523
0.8263560753
0.9615007426
0.9212555383
0.9198243081
0.9240698536
0.9226711641
0.9628545047
1.026450976
1.027631776
0.9968965652
1.076419059
1.05401295
1.052942264
1.056081728
1.055059814
1.077358434
1.11017386
1.110942527
1.095259228
1.134361862
1.123857511
1.123170239
1.125183062
1.124528458
1.13496315
0.2753829944
0.2755478473
0.39982001
0.4002693248
0.3381079454
0.5254924811
0.4626580558
0.4620700028
0.4637958905
0.4632332022
0.5262391555
0.6487244028
0.6498233516
0.5881328944
0.7668918337
0.7097005092
0.7084467355
0.7121769066
0.7109438453
0.7682585468
0.8687825329
0.8702775947
0.8206212391
0.9559028594
0.9154435627
0.9139566154
0.9183783387
0.916917283
0.9573275597
1.021511774
1.022777214
0.9916332974
1.072442966
1.049598476
1.048441545
1.051849226
1.050734583
1.073468318
1.106922264
1.107761068
1.091698049
1.131819155
1.121015691
1.120266557
1.122467542
1.121749313
1.132474535
0.2746332806
0.2748373553
0.3978825108
0.3983879251
0.3367208175
0.5223648606
0.4602253727
0.4595800746
0.4614690628
0.4608549568
0.5231686746
0.6442040298
0.6453536095
0.5843361205
0.7613219123
0.7046209153
0.7033211068
0.707182816
0.7059081461