/*--------------------------------*- C++ -*----------------------------------*\
| =========                 |                                                 |
| \\      /  F ield         | OpenFOAM: The Open Source CFD Toolbox           |
|  \\    /   O peration     | Version:  v2012                                 |
|   \\  /    A nd           | Website:  www.openfoam.com                      |
|    \\/     M anipulation  |                                                 |
\*---------------------------------------------------------------------------*/
FoamFile
{
    version     2.0;
    format      ascii;
    class       volScalarField;
    location    "2.03";
    object      omega;
}
// * * * * * * * * * * * * * * * * * * * * * * * * * * * * * * * * * * * * * //

dimensions      [0 0 -1 0 0 0 0];


internalField   nonuniform List<scalar> 
3019
(
814.903684
149.4481857
71.85180602
46.31544133
37.00999964
33.43939874
31.7750989
31.13272208
30.73874008
30.5845458
30.5011046
30.45757263
505.7475811
139.6143029
70.21189828
45.8787845
36.97131292
33.49270689
31.77499076
31.0973532
30.67264024
30.50570684
30.412872
30.36443635
362.3224951
129.4144872
66.99738407
44.96980173
36.74323613
33.47031184
31.74736741
31.05200027
30.60652187
30.42925976
30.32802054
30.27583265
303.0567602
116.163664
62.6409025
43.66839301
36.41193365
33.37810055
31.69057208
30.9950327
30.53547755
30.35092556
30.24363258
30.1876936
226.6429367
99.46108214
57.61517904
42.2672522
36.09833224
33.24799885
31.61108303
30.92702487
30.46043513
30.27128671
30.15854551
30.10000206
172.3014423
84.79766215
53.4967802
41.25846682
35.80812062
33.09337959
31.51266252
30.84524707
30.37655504
30.18457427
30.06911579
30.00829553
143.0861114
76.50123293
51.44231256
40.65154148
35.5112916
32.923847
31.40223576
30.75330772
30.28675089
30.09388248
29.97662759
29.91462194
132.1907802
73.73683058
50.25131489
40.09608494
35.22421063
32.75022531
31.28463365
30.65304687
30.18888741
29.99553919
29.87735227
29.81479715
124.5773249
71.408565
49.24015034
39.59913824
34.95692922
32.57991171
31.16309961
30.54624748
30.086608
29.89413934
29.7757883
29.71310922
118.1025947
69.32883782
48.39690233
39.16879083
34.71540848
32.41725763
31.03982239
30.43459072
29.97732664
29.78517918
29.6669838
29.60461826
112.4585071
67.45344446
47.68646963
38.80767844
34.50231718
32.26434567
30.91643679
30.31951601
29.86644197
29.67584997
29.55825163
29.49640198
107.3516623
65.73593378
47.07115289
38.5090965
34.3172354
32.1215972
30.79399588
30.20224379
29.74962789
29.55921369
29.44212489
29.38101416
102.6566759
64.17931914
46.54097924
38.26645684
34.15806249
31.98840385
30.67307187
30.08366928
29.63442671
29.44575424
29.32949761
29.2691637
98.57626258
62.87899812
46.1243174
38.08018739
34.02195681
31.86362411
30.5539256
29.96455981
29.51316898
29.32400569
29.20821352
29.14872201
95.46425584
61.94775753
45.84504628
37.94543676
33.90449542
31.74599496
30.43667741
29.84539482
29.39716255
29.20981697
29.09482701
29.03611168
93.40137914
61.36794564
45.67743562
37.84699065
33.80079444
31.63439992
30.32135782
29.72667257
29.27302172
29.08422267
28.96947835
28.91152405
92.01928444
60.99589324
45.57088163
37.77001316
33.70734819
31.52803279
30.20799443
29.60856353
29.15911436
28.97229497
28.85820856
28.80090916
90.93519179
60.71089955
45.49151624
37.70610348
33.62207608
31.42632438
30.09661682
29.49149161
29.03204362
28.84266395
28.72858242
28.67190945
89.97864179
60.46270665
45.42586683
37.65134493
33.54363112
31.32884785
29.98726839
29.37540368
28.92335285
28.7361624
28.6225327
28.5663601
89.09742727
60.23610243
45.36921545
37.60360727
33.47097712
31.23523188
29.8799979
29.26081834
28.79144564
28.60071047
28.48690774
28.43122566
88.27104154
60.02452228
45.31890413
37.56135553
33.40325573
31.14513759
29.77491054
29.14747417
28.69248055
28.50375879
28.3901124
28.33476679
87.48311392
59.8224433
45.27251857
37.52328554
33.3397585
31.05831422
29.67229909
29.03639941
28.55091878
28.3586733
28.24476109
28.1897825
86.72168407
59.62482518
45.2277453
37.48820544
33.27985431
30.97448458
29.57294313
28.92764839
28.4693407
28.27704907
28.162938
28.10810785
85.98244011
59.42900274
45.18289047
37.45520097
33.22316453
30.89359245
29.47889793
28.82464259
28.28775231
28.09144431
27.97666941
27.92207978
997.4523697
850.6626655
181.5129535
623.9769549
977.0788057
528.0224166
177.0796803
179.555529
473.2287366
614.7592023
347.8679489
715.0897833
734.4410727
645.9543758
308.1549408
335.9465511
1405.870649
863.1342432
1550.084469
1173.079347
610.5248343
821.2799012
378.8096928
162.5219441
173.542106
532.6765403
587.102575
1100.880707
282.5337609
299.1053403
628.5941094
570.441928
6207.764747
2358.654405
1346.110566
662.1389009
4845.749464
3566.20819
1180.895264
4990.138132
6082.817279
3524.436315
4760.342646
6454.400458
2330.904313
3178.565078
1611.661487
2086.583337
5805.026623
6417.369903
2082.936291
6151.942738
5374.168879
164.400977
84.70243755
1125.454544
3243.841357
2376.271007
4602.181737
2985.386322
1519.454008
871.2861339
6232.545959
6562.755352
6700.660982
5585.660908
6398.407668
1236.126452
1473.263202
5945.58377
5456.727597
6016.73116
5577.384339
6330.687853
6283.107332
6147.721366
3943.052335
5461.990479
5010.870158
6099.908986
6303.657669
4345.608851
4633.217474
5064.307702
6358.718191
5240.641591
3877.215594
4187.446659
5976.478869
4628.962305
4871.697048
3785.093959
4219.303539
6150.823093
72.27075903
50.48019902
46.30192327
38.52403885
36.96546937
34.01403745
724.9188524
476.8893406
514.8856558
142.4798644
82.03841066
84.1639928
70.48922182
50.04966737
50.46314089
46.04423623
38.52942663
38.56998165
37.00429138
34.09225506
34.04368141
459.8033522
252.0182981
276.2856828
132.0525871
78.40373685
81.49011079
67.85880278
48.95239931
49.80204496
45.22927886
38.23123567
38.46997895
36.81781126
34.07915884
34.09474822
492.3069701
566.113805
320.9550127
147.0653631
159.1828029
119.9357284
72.9833533
77.24771546
63.85200995
47.31054698
48.59981038
44.02108739
37.78278398
38.13453699
36.49949355
33.97939953
34.05793662
344.2804616
458.2976339
244.6608929
125.5332178
142.1486763
103.6887188
66.18403438
71.35032316
58.84739813
45.34743766
46.83388804
42.60255486
37.2903648
37.6541405
36.16869883
33.83300398
33.94517052
229.0441884
309.2503912
183.2208518
104.0211043
119.8017429
87.97014325
59.97511653
64.48808995
54.3659573
43.68813133
44.87593104
41.44507082
36.91761687
37.18616617
35.88210821
33.66052195
33.79208198
175.4415346
210.6552817
148.3061791
89.85897845
99.59236978
77.91056709
56.21792217
58.75225648
51.77015412
42.80867951
43.3973607
40.79854272
36.56527449
36.82915419
35.58509598
33.4704797
33.61392632
157.6897274
168.6911062
134.3158983
84.69869261
87.77240269
74.36577259
54.67824775
55.79135662
50.53238634
42.12331762
42.63077355
40.22979642
36.22581197
36.47862049
35.29443305
33.27627075
33.421828
147.8838577
155.0947326
126.3602994
81.47458812
83.84833617
71.96517732
53.40848384
54.33852775
49.47617327
41.5118055
41.96310739
39.71740056
35.91073818
36.14438844
35.021503
33.08684608
33.22819162
139.4319372
145.6538879
119.6316159
78.64353028
80.73396239
69.82787433
52.34581095
53.12541572
48.59366119
40.9833302
41.37152916
39.26982046
35.62727442
35.83668214
34.77316991
32.90746064
33.04091676
132.0595245
137.4982821
113.8081503
76.11399952
77.98559002
67.90575427
51.43667664
52.10596119
47.85387592
40.54126625
40.86482209
38.89170499
35.37922655
35.56185689
34.5528985
32.74080651
32.86454683
125.4295973
130.3463928
108.5902965
73.80657712
75.51894363
66.15195099
50.63592776
51.22763741
47.21735447
40.17593108
40.44330165
38.57838107
35.16660963
35.32282344
34.36098453
32.58759081
32.70125481
119.2715693
123.8478614
103.7854168
71.68855064
73.25769665
64.54943779
49.9265368
50.44946865
46.66440478
39.87559111
40.09490874
38.32188632
34.9869369
35.11869802
34.19555888
32.4471222
32.5513301
113.7345904
117.8127465
99.51871977
69.85054225
71.196445
63.17270405
49.34086483
49.76628606
46.21581993
39.64164739
39.81059129
38.12150946
34.83755763
34.94687664
34.05403538
32.31793877
32.41384009
109.2956351
112.5010901
96.13775973
68.45276877
69.45415836
62.14374701
48.92619557
49.220078
45.90253473
39.47580398
39.59408591
37.97503725
34.71383511
34.80447731
33.93239546
32.19824658
32.2872032
106.2560913
108.4069552
93.83469103
67.54239242
68.18276816
61.48717308
48.67402952
48.84993494
45.71173688
39.3630525
39.44353319
37.86911812
34.60897978
34.68612159
33.8256539
32.08632792
32.1696017
104.2668979
105.6847772
92.32570572
66.96447515
67.37511869
61.07739981
48.52102765
48.62919774
45.59408753
39.28174006
39.34051873
37.78781011
34.51729308
34.58499706
33.72988096
31.9808969
32.05940407
102.7693114
103.8633977
91.19064714
66.53701031
66.84871466
60.77765618
48.41213423
48.49112417
45.50978153
39.21759823
39.26446527
37.72111771
34.43539462
34.49600205
33.6427095
31.8810944
31.95545109
101.4697521
102.431935
90.20962215
66.1704986
66.44148894
60.5224106
48.32278736
48.38848106
45.44131932
39.16415702
39.20340375
37.66431047
34.36132686
34.41621271
33.5626632
31.78629178
31.85695149
100.2747826
101.1633769
89.31184265
65.83680143
66.08462433
60.29113669
48.24494149
48.30246245
45.38269417
39.11848627
39.15211379
37.61497558
34.29373595
34.3438779
33.48864885
31.69596932
31.76331415
99.15328908
99.9892484
88.47302985
65.52596957
65.75737185
60.07631604
48.17505349
48.22689062
45.33102547
39.07874676
39.10808073
37.57148035
34.23154622
34.27772988
33.41976514
31.60966339
31.67403627
98.08258765
98.88353817
87.67576385
65.23067252
65.45113725
59.8723135
48.11018343
48.15853328
45.28388067
39.04340778
39.06958004
37.53248095
34.17387914
34.21674789
33.35527399
31.52701261
31.58867526
97.04308766
97.8251591
86.90430798
64.94375034
65.15878327
59.67358967
48.0474337
48.09447156
45.23887357
39.0110442
39.03511646
37.49675252
34.11995899
34.16008809
33.29452223
31.44766862
31.50688202
96.01734035
96.80046419
86.14309112
64.65745146
64.87398992
59.47423287
47.98389008
48.03192026
45.19363789
38.98027597
39.00330041
37.46311128
34.06901808
34.10700035
33.23684988
31.37124114
31.42831472
94.92203505
95.80559179
85.32902041
64.34622549
64.59367767
59.25581876
47.91266059
47.96895085
45.14300666
38.94791949
38.97304914
37.42842431
34.01734962
34.05698849
33.17826203
31.29285273
31.3528797
1042.129957
1245.80886
1184.91259
722.5603154
749.4430854
897.9464892
188.2206885
311.0291234
283.3558879
653.6287286
1176.322788
2122.30252
1558.043611
959.1940615
414.2424639
430.0922387
577.0675845
172.0958281
250.2625967
240.066344
274.9758865
256.3167572
173.4275202
549.8352224
619.7201774
360.3186715
497.1544509
460.196702
514.6641236
344.318241
1839.024031
1304.354058
841.9836081
809.7190061
693.6584016
760.197364
929.5619218
881.7187294
428.1759325
467.4002621
700.3396347
315.5462886
385.0929242
374.4305538
442.9656536
401.342992
326.1094557
2124.703984
1878.327389
1320.746632
3350.847809
3583.297978
5020.065272
899.7776611
1439.215514
1220.442515
1683.438221
2734.979374
2416.275997
853.3094773
899.0758787
1405.211186
632.1627866
747.0267097
718.7810667
780.3182797
658.3630522
1045.419319
970.7109483
788.9896913
2829.671586
3056.59134
1192.974266
1191.582021
265.4563118
274.9104623
438.9775463
165.8879403
206.5247786
201.3603967
233.7556732
212.3410863
169.6010465
548.1259304
642.1980327
621.3529911
690.712057
666.4292199
568.8408391
950.5650686
781.8701791
816.5207467
285.9195793
344.2049757
338.0907264
361.8493375
353.7930461
294.0097768
593.9877107
436.3905375
455.9883038
592.1689734
831.7177569
796.9406029
2668.737481
4217.828918
3765.832422
1043.996296
1089.483904
940.2293299
971.0175159
1424.518916
681.0548481
777.9787439
760.0008357
4405.44997
2990.652195
3351.756842
2363.223149
2653.716757
3928.086191
1234.485312
1679.681262
1532.094082
2567.082678
3671.361372
3353.043851
4501.032276
4086.435031
2861.32409
1732.15514
2563.73479
2372.849234
3040.744967
2799.514723
1923.03912
3368.315254
3058.597659
1873.881753
122.3540936
123.5174172
166.2180289
85.12081781
101.0944411
100.3782575
1421.250036
1327.23233
1077.017397
2966.251439
1914.618703
2113.532927
1567.39251
1706.265144
2651.260443
1160.063161
1215.572939
1666.61068
914.3986367
1008.57257
1003.974362
1064.580486
930.4367993
2395.136559
2572.483152
1304.411017
1798.294502
1661.53907
2155.644952
1970.224635
1402.152622
33.41621383
32.30940956
31.7627379
31.39582721
31.15212383
30.97956942
780.4021542
673.8812292
696.1788783
147.1858342
119.1460737
120.3828985
71.50773794
62.53830637
62.70622291
46.20331515
43.02863967
43.07944431
37.02397988
35.80251823
35.77664437
33.48720622
32.35876839
32.33852181
31.77757315
31.38689565
31.39275113
31.12054177
30.93211223
30.95758329
490.1782002
387.2364029
400.1823485
137.0010862
112.6204619
114.3778457
69.32146876
61.00618133
61.56403397
45.74066005
42.65057903
42.80499264
36.92728384
35.75850339
35.78447282
33.48354736
32.35253626
32.35822337
31.7662841
31.3594119
31.37467425
31.0804489
30.88033341
30.90788564
349.6521373
250.8679427
257.4025339
126.5541402
104.8281721
107.0262438
66.04735683
58.5277275
59.2401108
44.6784619
41.91483476
42.12724304
36.66784973
35.58857207
35.63926713
33.40571543
32.30732619
32.33504642
31.72472018
31.31334702
31.33759318
31.02898502
30.82233257
30.8526293
283.7131405
213.9769422
224.7724387
112.1434554
93.98195584
96.96871571
61.38664958
55.09259314
56.01897142
43.31396385
40.92233656
41.1807764
36.32514993
35.36099131
35.41884911
33.28336255
32.22212291
32.26824387
31.65402687
31.25102528
31.28211025
30.96689971
30.7566146
30.79063837
210.3309592
169.741929
180.2951237
95.36920087
81.71287541
84.69084984
56.44254529
51.47558099
52.32836624
41.95743131
39.97409555
40.18734826
36.02751937
35.1346928
35.19337621
33.13449772
32.11596229
32.171652
31.56374951
31.17106273
31.21234263
30.89029502
30.68125
30.72032409
162.9095962
135.3814928
142.5784113
82.04948095
72.00610647
74.02408745
52.77019521
48.85205915
49.36604117
41.10123912
39.37769434
39.50552734
35.73374273
34.88692916
34.95014935
32.96731966
31.99241393
32.05585699
31.45863118
31.07801555
31.12552898
30.80265329
30.5960808
30.63964085
139.0142098
117.2647794
120.1466679
75.69674324
67.41261833
68.026758
51.1280116
47.65857832
47.91606564
40.50762948
38.88475139
39.00481841
35.43811338
34.63297496
34.69617701
32.79374255
31.85933718
31.92663004
31.34410712
30.97505923
31.0272556
30.70581505
30.50259995
30.55018228
130.1604139
110.9022577
112.382305
73.12795872
65.31385832
65.80302713
49.98150811
46.7098807
46.93458177
39.9659863
38.42998914
38.53957317
35.15522492
34.38671478
34.44703193
32.62200373
31.72275517
31.79120677
31.2242149
30.86504506
30.92053397
30.60165024
30.40173561
30.45292286
122.8640398
105.5091499
106.7855018
70.86699638
63.53297803
63.95532996
49.01463363
45.89817632
46.08798953
39.4850179
38.0224668
38.11950609
34.89395955
34.15655808
34.21228447
32.45712548
31.58640595
31.65438533
31.10156663
30.75032846
30.80796734
30.49188293
30.29493722
30.34894477
116.6249712
100.8089406
101.9288085
68.84246128
61.96754797
62.3419537
48.20838928
45.22190132
45.37921544
39.07211735
37.66887983
37.7520114
34.65942889
33.94719574
33.99744926
32.30166624
31.45251436
31.51906032
30.9780672
30.63283087
30.69170424
30.37809597
30.18330697
30.23966057
111.1410353
96.62010755
97.62988396
67.01054503
60.56347745
60.90195081
47.52479025
44.6584564
44.79049136
38.72753827
37.37079948
37.4403123
34.4534886
33.76035631
33.80496015
32.15638931
31.32225167
31.3868886
30.85505519
30.51392382
30.57339597
30.26159632
30.06840973
30.12624708
106.1361542
92.7763234
93.7092745
65.32923687
59.28363441
59.59222324
46.92998019
44.17945817
44.29212481
38.4432366
37.12354779
37.18088579
34.27510328
33.59537199
33.63466217
32.02089091
31.19604195
31.25863638
30.73332362
30.39454882
30.45418512
30.1434343
29.95093966
30.01004519
101.5649566
89.27981724
90.11197967
63.82488153
58.14882616
58.41483352
46.42461079
43.78082672
43.87192716
38.21457637
36.92341509
36.96907057
34.12201836
33.45032989
33.48485392
31.89411742
31.07382745
31.13445134
30.61326687
30.27533165
30.33484406
30.02441195
29.8323104
29.89184714
97.6953542
86.35010161
87.01338929
62.60901542
57.24544612
57.44438748
46.04168456
43.48302161
43.54711185
38.04214747
36.768636
36.80337461
33.99104766
33.32246548
33.3530101
31.77480946
30.95534428
31.01413845
30.49506137
30.1567122
30.2158917
29.9051484
29.71254162
29.77269425
94.85909807
84.22955847
84.67989864
61.77445041
56.63788123
56.76295012
45.79466251
43.29003401
43.3297593
37.91810173
36.6512215
36.67775916
33.87745088
33.20822611
33.23570264
31.66179185
30.84028503
30.89740688
30.37877168
30.03898364
30.09769846
29.78610459
29.59308219
29.65290273
93.01049475
82.85902937
83.14823717
61.26151266
56.27134828
56.34692822
45.64685319
43.17090292
43.19596278
37.82617954
36.55877586
36.58014646
33.77657593
33.10438815
33.12950687
31.55417348
30.72838454
30.783957
30.26442071
29.92236851
29.98051441
29.66761688
29.47312542
29.53333452
91.73041628
81.91375421
82.12691978
60.91949488
56.0303479
56.08395665
45.54929452
43.08963952
43.10777061
37.75302319
36.48192154
36.50000142
33.6853283
33.00881325
33.03201508
31.45134271
30.61945425
30.67356672
30.15203151
29.80702167
29.86452894
29.54995423
29.35459181
29.41383499
90.68734652
81.14528305
81.32784016
60.64635317
55.8400278
55.88486173
45.47409741
43.02647496
43.04110102
37.69166467
36.4157131
36.43143135
33.60187157
32.92015861
32.94173191
31.3528449
30.51334199
30.56607742
30.04162009
29.69308347
29.74990665
29.43329076
29.23554148
29.29533858
89.7523585
80.4576695
80.62405418
60.40439376
55.67304779
55.71319229
45.41099905
42.97390293
42.9862518
37.63882866
36.35758826
36.37146165
33.5249659
32.83746143
32.85762394
31.25829782
30.40993533
30.46137174
29.933193
29.58062343
29.6367775
29.31779415
29.11905858
29.17720428
88.88629429
79.82165803
79.97668158
60.18207541
55.52082893
55.55776668
45.35616309
42.92882357
42.93951215
37.59259449
36.30588407
36.31828323
33.45361929
32.75991739
32.77885955
31.1673462
30.30911955
30.35939021
29.82668757
29.46967079
29.52529002
29.20346171
29.00128086
29.06075687
88.07039034
79.22308589
79.37014032
59.97336012
55.37862786
55.41348267
45.307058
42.88909265
42.89863487
37.55150558
36.25931149
36.2705362
33.38701643
32.6868556
32.70473251
31.07973101
30.21066745
30.26013771
29.72193167
29.36004892
29.41558819
29.09025148
28.88748423
28.94470551
87.28781656
78.64940661
78.79213089
59.77268358
55.24202258
55.27593223
45.26127536
42.85269684
42.86159355
37.51428966
36.21676572
36.2270823
33.32447353
32.6177152
32.63466227
30.99517201
30.11403989
30.16372142
29.61843583
29.25134174
29.30805497
28.9776204
28.7700203
28.83143403
86.52380635
78.08885054
78.23291915
59.57450191
55.10662702
55.14101638
45.2164684
42.8176897
42.82645372
37.47976191
36.17722839
36.18689608
33.26535967
32.55197113
32.56812688
30.91333382
30.01773429
30.07079601
29.51486457
29.14215206
29.20348269
28.8642894
28.6573078
28.71918708
85.75844205
77.52504563
77.68859529
59.37115922
54.9665881
55.00632401
45.16984748
42.78180153
42.79174381
37.44647709
36.13938495
36.14921562
33.20860096
32.48860596
32.50485601
30.82908389
29.91483941
29.98388314
29.40339853
29.02412059
29.10410916
28.74107799
28.52529318
28.61406435
183.4374376
207.5863313
204.784311
639.719656
730.3759123
716.3409323
1112.152246
1094.734364
922.6146325
201.545108
199.2482847
177.2659063
409.1113319
364.1786668
568.5671862
581.4802172
660.6319275
989.8070172
1032.238483
1232.177835
1731.379772
1843.299196
1084.787596
919.0579281
969.7386266
617.1264991
544.6429844
556.4514158
1490.824419
1593.855551
62.95476848
62.97180595
72.38661234
50.43246996
55.87720536
55.904311
43.0525649
43.01693516
46.2471231
38.49856185
40.48076173
40.51706267
35.74103248
35.70812757
36.93798534
33.98017832
34.7410513
34.77272313
633.1474862
651.5853883
750.2377953
489.0955588
563.6955274
549.4130676
600.2005514
582.3053724
501.4521621
116.3234143
117.1876665
144.0141577
82.95939672
97.64477475
96.78797262
99.45543795
98.66641899
83.53657196
61.86926908
62.25766277
71.13093905
50.24989004
55.45584822
55.23728488
55.81255396
55.66754995
50.31353475
42.91835046
42.98197208
46.17105731
38.53809236
40.49146087
40.45950179
40.54987774
40.54145909
38.57401241
35.79503009
35.79738578
37.00571695
34.0838306
34.84432529
34.84221737
34.80805085
34.8314649
34.06864438
365.5651799
376.7637086
469.5155033
326.8156338
321.2366957
269.7880796
109.0441461
110.8826092
134.5671838
79.4582161
93.0599226
91.70196382
95.61512283
94.343335
80.41772429
59.88345416
60.45217325
68.63264357
49.26165776
54.15124856
53.7318116
54.88526621
54.64442539
49.67560984
42.31625852
42.53972996
45.48330541
38.36504799
40.20916825
40.03123082
40.37542153
40.26842065
38.39890075
35.69655911
35.72146113
36.89055629
34.08524609
34.81063211
34.79785146
34.84015563
34.82713823
34.09065269
520.8954897
542.4155601
234.6972874
243.4291161
336.631753
151.5398124
187.3939099
181.6168451
196.9555503
192.4726322
155.5623255
99.79412224
102.4201046
123.4042239
74.52483118
86.65330965
84.65008919
90.19213243
88.50200604
75.95813928
56.91679116
57.7537599
64.99981376
47.77175987
52.13884614
51.52143637
53.25351352
52.72042164
48.20347418
41.43571579
41.682769
44.35955671
37.90798487
39.57528857
39.39777489
39.89531832
39.74261319
38.02645728
35.47608445
35.53412063
36.58606762
34.00848457
34.69436727
34.6551738
34.76273696
34.73038789
34.03630435
382.0353871
420.634163
191.3735229
202.7059738
263.9202858
131.2646651
160.5892687
152.8910057
175.1451356
168.0781007
136.8475876
87.77247573
90.89455642
107.9540975
67.91696295
77.95257164
75.62589834
82.50951395
80.26341475
69.65122754
53.22775574
54.15584155
60.11353935
45.83945015
49.49691008
48.81829787
50.86843613
50.18515982
46.34104652
40.42138971
40.67079359
42.95546415
37.40297184
38.8529277
38.68301746
39.21484103
39.03119202
37.52680902
35.25022245
35.3055574
36.24393348
33.87193418
34.52769547
34.48098702
34.61479119
34.57247892
33.91047454
251.443638
278.1360588
150.779374
159.848
195.8637762
108.9160246
130.5384577
123.9427422
145.1831209
137.6818613
114.2216896
76.32775401
78.91186869
91.51438973
61.35211869
69.05820589
67.15508787
73.33518264
71.13023431
62.86781053
49.97879169
50.68806067
55.35184919
44.03664979
46.98288004
46.48183398
48.16380584
47.5479133
44.4358119
39.63641172
39.78907258
41.68094962
37.00570359
38.26182546
38.1540079
38.52302553
38.38271092
37.09357214
35.01273642
35.07436751
35.95537696
33.70571039
34.33276527
34.28025195
34.4333487
34.38390832
33.74987171
184.5409763
195.9986558
124.1285039
129.1986405
154.9641033
92.45374781
108.2840529
104.7066926
117.9611197
112.7575232
95.75220786
68.98482175
70.33628141
79.72963306
56.85895449
62.79831674
61.82900455
65.46474827
63.99367561
57.71330913
48.18174241
48.46512945
52.17519899
42.99063417
45.45916852
45.23607911
46.05302819
45.70942097
43.17818207
39.1271328
39.25148346
40.94849792
36.65272085
37.8365288
37.73261131
38.0474886
37.94157565
36.74077849
34.75970763
34.82336642
35.65932473
33.51874447
34.11739179
34.06218814
34.22665157
34.17229063
33.5667544
160.3914079
163.4414098
113.9226694
115.5286248
136.5469348
85.58279187
98.73593876
97.57495455
101.8510196
99.96399243
86.5158773
66.31399149
66.8494382
75.0172435
55.03331534
60.27681754
59.84376034
61.21201563
60.73116146
55.40419528
47.16771449
47.40908858
50.82470128
42.28804192
44.60399291
44.40499748
45.01957624
44.80889195
42.45725301
38.65198419
38.76708553
40.36702642
36.30874357
37.42991743
37.33259983
37.63007086
37.52912934
36.39307524
34.50825697
34.57028695
35.365784
33.32462617
33.89684871
33.84233049
34.00691584
33.95174297
33.3732277
150.1969369
152.5996926
108.1075487
109.4785907
128.2196056
82.23896631
94.3249743
93.31212372
96.45422898
95.37172495
83.02962006
64.39191024
64.84416023
72.53799895
53.7043897
58.65992339
58.29873323
59.43088196
59.03682275
54.01421768
46.28650653
46.49380694
49.72321857
41.6572321
43.84528621
43.67167487
44.21210521
44.02549498
41.80774028
38.21983654
38.32336456
39.83973112
35.98675934
37.05357338
36.96524648
37.23735528
37.14431518
36.06468411
34.26925647
34.32742896
35.08763132
33.13341747
33.68249609
33.63072309
33.78838375
33.73505785
33.18055373
141.4323365
143.505519
103.0835945
104.2761136
121.2175376
79.31990412
90.46017063
89.56601332
92.33155515
91.38150033
80.01642368
62.72715844
63.12389069
70.34044014
52.59504372
57.29656773
56.98578052
57.95196269
57.61830711
52.85465916
45.54409844
45.71696498
48.79937904
41.10725683
43.19191176
43.04569854
43.504871
43.34494944
41.23668018
37.83866724
37.92883086
39.3752429
35.69490388
36.71583909
36.6381154
36.87946636
36.79630688
35.76472528
34.04910643
34.10215564
34.83269981
32.95118728
33.48106946
33.4331904
33.57987937
33.52996187
32.99567453
133.8179331
135.6295319
98.66261949
99.72122928
115.1955691
76.72235242
87.03171366
86.22988622
88.69773617
87.85370855
77.34589548
61.24831517
61.60324192
68.36849382
51.65221985
56.11192206
55.83750103
56.68527007
56.39427749
51.87510891
44.92806886
45.07168694
48.02763909
40.64399818
42.64665009
42.52582245
42.90624786
42.77334397
40.75179239
37.51309706
37.58925603
38.97980339
35.43784682
36.42187968
36.35541858
36.56320827
36.4911349
35.49872234
33.85095509
33.89836555
34.6052643
32.78121349
33.29610467
33.2525986
33.3864071
33.34069794
32.82245439
127.0370289
128.6750658
94.66097515
95.63094367
109.8529988
74.36614699
83.92801634
83.19027005
85.4465371
84.67988954
74.93692839
59.90864271
60.23240258
66.5768724
50.82767136
55.05624395
54.80830425
55.5704817
55.3102613
51.02487252
44.40948884
44.53153725
47.36852891
40.26088453
42.19503064
42.0941737
42.41053871
42.30040669
40.34995307
37.24116877
37.30444304
38.65115624
35.21656767
36.17236049
36.11654351
36.29172768
36.23073729
35.2686278
33.67523316
33.7171207
34.40638833
32.62465868
33.12867778
33.08949687
33.21021252
33.16890514
32.66253863
120.7666097
122.2937813
90.97470267
91.86390524
104.946792
72.19738246
81.0654886
80.3911933
82.4667158
81.75807924
72.72112283
58.69366736
58.98371555
64.93334722
50.09429606
54.10370265
53.88382533
54.5666424
54.33160556
50.26884581
43.96901354
44.07164754
46.79426532
39.94471109
41.8178941
41.73472913
41.99771915
41.90561387
40.01784798
37.0176395
37.06913073
38.3808279
35.02890167
35.96398649
35.91797782
36.06323896
36.01239879
35.07281026
33.52050553
33.55733249
34.23455806
32.48111904
32.97805489
32.9428331
33.051358
33.01421451
32.51584234
115.036767
116.3992173
87.72570805
88.4827868
100.5172455
70.27483737
78.50994421
77.94132873
79.73834276
79.11017074
70.7244689
57.6620267
57.89732344
63.48869413
49.47263133
53.28464416
53.10904035
53.67322534
53.47310348
49.61472657
43.61814547
43.69611596
46.31605583
39.69357291
41.51520134
41.4526795
41.65640396
41.58315887
39.74989761
36.84065515
36.88063345
38.16627692
34.87226279
35.79408468
35.75728543
35.87435677
35.83307899
34.90867372
33.38446171
33.41688591
34.08736682
32.34927796
32.84250536
32.81070311
32.90853024
32.87509606
32.38123052
110.2759262
111.346116
85.18244082
85.73912938
96.88168711
68.7544377
76.46086035
76.04923446
77.4084519
76.91426629
69.08840672
56.90512603
57.065703
62.36393099
49.01292974
52.66850502
52.55102792
52.94748578
52.80057426
49.11078055
43.3747735
43.42568917
45.96788531
39.51143406
41.2977542
41.25624571
41.39569108
41.34412258
39.55075931
36.70603423
36.73625629
38.00718254
34.74272768
35.65891377
35.62964606
35.7225844
35.68984112
34.77290253
33.26386722
33.29277129
33.96122085
32.2273824
32.71967256
32.6906463
32.77966278
32.74932904
32.25702279
106.8941246
107.6082522
83.4691274
83.82760623
94.31805272
67.73052268
75.05517549
74.79389889
75.67926859
75.34895515
67.9428961
56.43188094
56.52817262
61.62177259
48.72499986
52.27753343
52.20814747
52.44751628
52.35680909
48.78323526
43.22378434
43.25493031
45.75052467
39.38751933
41.15639383
41.12968787
41.21918076
41.18606027
39.41422482
36.60258549
36.62622447
37.89274637
34.63377973
35.55025702
35.52614751
35.60187848
35.57545895
34.65946438
33.15516726
33.18139544
33.85118907
32.1136595
32.60700967
32.58017812
32.66221709
32.634345
32.14140879
104.6998286
105.1691906
82.35306022
82.59565687
92.65412881
67.08919618
74.16036154
73.98512823
74.56069705
74.35093597
67.22509269
56.14127389
56.20331383
61.16535169
48.55356743
52.04420417
51.99994914
52.1470922
52.09287419
48.58934555
43.12717485
43.1481117
45.61925792
39.30007108
41.06298702
41.04410167
41.10547374
41.08334911
39.3195958
36.51879141
36.53835778
37.80649645
34.53919946
35.45931732
35.43862253
35.50301019
35.48075758
34.56175127
33.05566508
33.07978337
33.75294821
32.00670009
32.50247337
32.47744309
32.55382348
32.52792643
32.0328632
103.1187243
103.4819253
81.51596772
81.71078762
91.45500174
66.63620628
73.52205762
73.38190446
73.82196493
73.66823288
66.73970034
55.931302
55.97966203
60.84698891
48.43699331
51.88518213
51.85109583
51.95914562
51.92105819
48.46321563
43.0564402
43.07258428
45.52899093
39.23247132
40.99412922
40.97924836
41.02644025
41.00982254
39.24806438
36.44768079
36.46449904
37.73674262
34.45507472
35.3804377
35.36222011
35.41860559
35.39922088
34.47526751
32.96368788
32.9860442
33.66378816
31.90555583
32.40473014
32.38124632
32.45281824
32.4285824
31.93033708
101.7832042
102.1032111
80.79387556
80.96750942
90.44565659
66.25851183
72.98739901
72.86270293
73.24656495
73.11519619
66.3486952
55.75433772
55.79658308
60.58356854
48.34387564
51.75663862
51.72726862
51.81843822
51.78698519
48.3657336
42.99910351
43.01249958
45.45738063
39.17670777
40.93857318
40.92618586
40.96506629
40.95151708
39.18977451
36.38575756
36.40050109
37.67774271
34.37919098
35.31059928
35.29433334
35.34452371
35.32732053
34.39747825
32.87811955
32.89896108
33.58207267
31.8095531
32.3128721
32.29074544
32.35811575
32.33532407
31.83310278
100.5662084
100.8616916
80.13415403
80.29448827
89.53016508
65.91782613
72.50393147
72.38891937
72.74069857
72.6211143
66.00034715
55.59540555
55.63381806
60.34720348
48.26355171
51.6438894
51.6175301
51.6987236
51.67093231
48.28270036
42.950568
42.96202459