/*--------------------------------*- C++ -*----------------------------------*\
| =========                 |                                                 |
| \\      /  F ield         | OpenFOAM: The Open Source CFD Toolbox           |
|  \\    /   O peration     | Version:  v2012                                 |
|   \\  /    A nd           | Website:  www.openfoam.com                      |
|    \\/     M anipulation  |                                                 |
\*---------------------------------------------------------------------------*/
FoamFile
{
    version     2.0;
    format      ascii;
    class       volScalarField;
    location    "2";
    object      k;
}
// * * * * * * * * * * * * * * * * * * * * * * * * * * * * * * * * * * * * * //

dimensions      [0 2 -2 0 0 0 0];


internalField   nonuniform List<scalar> 
3259
(
37.00815074
37.00613106
36.99661191
36.98287322
36.97134554
36.9631939
36.95876782
36.95619805
36.91002178
36.90912703
36.90869052
36.90842131
37.04425286
37.03799003
37.00692917
36.94500078
36.88615976
36.84511667
36.79908968
36.78428742
36.73227245
36.72940576
36.72802043
36.72728377
37.12608734
37.1142759
37.05725913
36.95548519
36.83318259
36.73857277
36.65560081
36.62179518
36.56022443
36.5533669
36.55017373
36.5488843
37.30823769
37.287039
37.19177793
37.03305382
36.8526282
36.68587861
36.54247821
36.47626701
36.39485935
36.38201612
36.37575483
36.37332171
37.70371283
37.66247795
37.4890063
37.2203673
36.94209521
36.70170369
36.47523385
36.35329599
36.23994679
36.21527058
36.20406739
36.19971843
38.61520581
38.49787624
38.06736311
37.58367197
37.13097504
36.77084276
36.45997544
36.25811538
36.09692865
36.05311679
36.03436291
36.02703193
40.61136029
40.47501119
39.12083891
38.17657699
37.43623955
36.9012462
36.47933395
36.19507594
35.96498776
35.89606704
35.86645429
35.85494528
43.53309285
40.80663338
39.01762796
37.85210828
37.08739435
36.52795166
36.15967044
35.84716798
35.74570045
35.70150802
35.68455105
48.69727875
42.85257541
40.01581054
38.34647997
37.31274199
36.59717034
36.14551725
35.74372427
35.60421149
35.54245265
35.51886156
52.16642537
44.70060775
40.99660967
38.84022777
37.54688392
36.67877573
36.14814562
35.65643906
35.47537616
35.39345291
35.36208505
53.83259451
46.05839764
41.7928861
39.26730129
37.76488945
36.76176169
36.15689999
35.58416955
35.36131774
35.25848952
35.21853933
54.53949598
46.91601573
42.35477792
39.59277559
37.94820525
36.8371363
36.16720302
35.52771845
35.26313915
35.13951243
35.0907085
49.33866924
43.95748534
53.15091454
49.8086979
54.84794982
53.45920791
55.51177903
54.95829846
55.55122122
40.58224424
43.44418352
40.34901708
54.13760749
45.96433959
48.13305222
43.34802784
41.4511188
57.05044484
60.11213986
51.85284143
45.64224659
43.96121054
54.94857831
54.56689094
53.69881615
47.29761776
46.1117834
56.73122293
55.64128116
40.63818776
57.9487076
57.60356084
60.09862724
54.50984027
47.04037721
53.27241736
58.65271218
54.69555518
56.77006029
51.6894612
58.11107022
56.59076178
58.82696193
58.26596479
51.43222717
55.43644351
55.04465778
54.39044701
57.0979157
57.37027795
56.51243024
57.05098147
54.20356827
57.53470382
56.85424258
43.79913883
45.88074911
57.99128169
40.13264389
69.08234008
50.14923018
58.75943456
54.49856183
48.34092065
47.59959237
69.29901251
47.26083229
45.48172695
45.48355348
52.15587759
46.35838255
44.98635535
41.55224935
55.3114711
57.72909602
57.90256739
57.4113116
57.69711734
55.24448161
42.4362745
45.32162132
42.40673587
42.46468414
75.27002594
50.682453
68.70557657
48.75730262
64.06760497
49.70314471
59.20658723
59.40320137
54.6529303
54.6320186
41.49895705
52.56780182
56.30058077
42.36170583
41.30745841
55.86506167
43.16433407
56.15222293
50.81822162
48.28304427
60.96970997
58.32039624
57.9149469
55.85355655
56.03088964
57.38918309
56.17593373
55.58951725
56.72240367
56.33161083
57.27183855
59.22570715
54.20288892
53.09118678
55.35957385
54.52452807
59.16998953
55.65880687
56.8952238
55.57425733
41.40250298
44.11697255
57.19317635
41.18662994
41.27655911
70.59895837
51.56215053
69.02424424
40.50080956
42.18715036
58.23785076
43.4297906
51.00549923
44.34529983
48.80783021
44.15991144
44.46650221
58.07493472
61.77701961
59.91677926
59.98912661
54.73088803
44.4879028
44.29229048
50.73583291
50.27084849
54.3571646
59.61374812
64.07636108
62.26362398
56.08222079
50.75499465
49.11403697
52.66914793
51.26789439
56.47662644
55.14007964
51.20033691
50.97927892
56.25287943
44.32607622
44.28926507
55.24820078
57.21887623
57.32515263
57.2760038
56.41323656
57.06191221
56.82078973
57.25089557
57.11767895
56.41981098
57.28172401
44.77279267
49.70180356
61.31659044
60.99841384
60.43092913
59.66299265
58.45025689
58.15787148
39.74909372
40.18639073
69.75997417
65.05709939
51.62138781
65.48446472
50.14103803
43.0681433
42.7659806
56.94954811
65.47031957
75.72300863
59.57527103
55.10671231
64.23117916
60.52089389
54.24371239
50.54924818
57.49769739
56.91866514
56.50807752
58.44981921
59.85397585
59.43491468
57.61101045
46.07369581
44.84361255
54.67457017
52.11471759
51.1905944
46.5241964
51.42654237
50.77152639
54.39913414
50.27735491
46.60119159
43.61312118
44.87524186
41.46639873
49.7084247
48.46856222
47.46278431
46.00100243
44.55796979
47.97739381
46.5893574
45.89391306
47.60647387
39.89831489
39.72109006
64.42956437
63.52058559
59.33131672
65.28915385
66.76404276
65.79387075
66.25463854
65.4220776
67.24013726
66.00829817
56.5085517
63.45344056
64.60074462
51.71822609
51.22958042
55.31141507
56.2511266
53.18599142
51.97195129
43.08956686
43.09982135
44.16907868
43.26775092
56.63090522
44.16723042
45.57181397
43.1242671
43.68971125
65.4453648
40.88209042
64.0028484
55.85477605
63.5036918
40.87277931
70.90803113
43.05772414
40.86419987
39.39895107
68.77978243
68.19724239
48.51052626
69.23498079
57.91496024
58.04468681
55.68355065
47.21588017
46.26259257
50.90156048
58.25759152
46.90928062
47.20078367
41.8221819
42.2112736
44.97008783
52.55725435
57.16505259
60.396463
41.29506092
40.15446278
44.55407259
50.53598012
52.58955357
57.7911715
61.36175174
63.24531396
56.06614549
56.98723525
49.48610823
72.02683348
63.72710771
41.75229625
69.84454608
58.056613
46.7728708
49.77912662
68.20288902
40.29465865
39.95835835
47.76541666
48.54230174
46.77082931
49.29354692
43.32544297
41.95906683
40.46432381
43.70018629
44.12029757
47.82760244
71.22884226
64.93895371
61.74494272
74.6743644
71.36260659
41.85818531
48.76735851
46.8332901
60.69145967
59.70652365
47.97089559
51.18781362
50.12344647
41.34527666
56.69473706
43.2194061
43.98483093
54.49507779
42.47615527
44.07031632
55.67008185
55.00333927
44.7920481
45.58434346
56.39693905
54.69326538
55.01208859
55.32980278
44.33819692
45.32828878
70.62519715
68.25344502
67.23146335
52.06919631
49.61771336
41.44694585
59.74094112
62.37909435
65.1693525
45.6139379
66.50794131
58.17036483
66.96601798
65.1367019
48.05190125
45.74455637
46.70301308
52.83709774
54.61013793
55.06045135
53.89543134
54.20320035
61.20056673
60.84904248
61.2555492
59.94027358
60.34513578
60.5589087
50.81708131
46.71802962
47.06332842
46.2032211
46.42931513
51.11208642
63.26105935
62.40908191
62.50770285
61.72030326
62.08322159
62.73440009
50.89000789
48.13498767
48.5332046
47.4056816
47.76956963
50.93432153
53.31364787
53.27991382
52.52797284
52.60347044
73.42113068
74.1723021
70.95338481
54.17940315
73.72286143
65.88022062
73.30882389
66.48759257
69.5230249
64.21482889
54.11172331
71.27010822
65.23230252
59.24141304
58.55476745
69.79981812
53.20624216
59.86877096
61.68224018
65.03214187
66.93280192
63.71184216
70.04542183
65.48473005
70.71885568
62.80482072
66.47137619
69.86153766
71.91842779
71.10881075
56.3506599
57.06878123
57.42358987
55.9149487
56.10015876
55.86595563
58.72495235
59.02088889
59.41240554
58.07849346
58.43721071
58.22133445
45.65251594
46.62887549
46.64086403
51.71593791
51.51657335
48.58866025
52.79855731
52.72498008
51.68099399
50.92955544
51.71360824
48.41776013
46.24472506
46.12540179
46.59868732
46.44558154
47.14607141
60.22426592
53.61895673
42.47360806
62.45115389
62.24547214
61.75384985
46.21338342
60.19292501
59.25746876
42.33696888
42.63556869
51.26041464
64.17525974
62.54115442
62.52679014
62.48329414
62.51516843
63.85374558
65.71551019
66.14803842
66.17527222
70.12080168
69.8499745
70.3081397
70.27386685
66.00490554
67.63246888
69.28491858
70.92132535
67.83573837
51.6526757
49.75348077
50.18744146
48.91648543
49.33609952
51.27379072
52.53028935
51.43275918
51.86105578
50.62463406
51.04630666
52.38402925
54.93314361
54.53734823
56.18197211
46.96318714
50.22753777
44.50730791
53.80699
54.45023468
53.06431801
53.48934876
45.08099408
43.19405145
49.5287392
46.62927413
53.40120772
53.74355617
43.45144228
62.50263733
45.81877916
47.47142449
42.58994036
44.15046637
63.67084014
62.09554064
61.08663485
49.57293926
54.88704775
64.36489088
69.28871227
37.09586397
37.04190396
37.09900857
37.09488552
37.04199796
37.08912997
37.05511184
37.01932926
37.03921581
36.97262035
36.96329963
36.94788973
36.8636596
36.8999067
36.83969888
36.776383
36.85413735
37.24319164
37.12238302
37.24966799
37.24362452
37.12109198
37.23277192
37.17236958
37.07561719
37.14562357
37.04380384
36.9834011
37.00515538
36.88308572
36.86370724
36.84272148
36.72577609
36.75724631
37.56531497
37.30107229
37.57867374
37.57434685
37.29963736
37.55275371
37.4365845
37.22361574
37.39168068
37.22327263
37.07625052
37.16034808
36.9713727
36.89777241
36.91118016
36.74527931
36.72598374
38.28551392
37.68426392
38.30765931
38.30055279
37.6828374
38.22184592
37.97774998
37.54814269
37.88642853
37.57814805
37.29187083
37.47216026
37.16719298
37.00921613
37.07349712
36.82350836
36.75863975
40.23321187
38.54951958
40.27977793
40.04117995
38.51787446
39.66231415
39.02842556
38.18664687
38.80685021
38.18984182
37.70591809
38.00199514
37.49604324
37.23669779
37.34859224
36.96942084
36.8527832
41.90929418
41.92174999
40.62428487
41.31926919
40.61100852
40.10488884
40.33495106
39.10823692
38.39335237
38.78013351
37.96578569
37.6016269
37.7407925
37.18483964
37.01734358
45.55092422
44.05652174
42.62376011
42.34772644
40.2603672
39.38797566
39.74536234
38.53722651
38.1008943
38.21797624
37.45342367
37.24878631
50.25726294
47.37399466
46.16414911
44.28992048
41.43253502
40.57372727
40.73602414
39.13276147
38.69245288
38.71827344
37.74076905
37.52571386
52.9590661
49.72701595
48.97893369
45.78315183
42.42712574
41.72297771
41.59390672
39.66159352
39.28190595
39.16723814
38.00808635
37.80942245
54.19072763
51.06099085
50.68930147
46.77046457
43.13668302
42.64607097
42.2203828
40.07678676
39.78757099
39.52182066
38.23279877
38.06798104
54.69893977
52.2288746
52.09057592
43.28376512
40.15879343
38.27977679
48.50604824
50.15071393
51.4394357
44.2982478
45.29132586
44.74466775
52.79970456
55.10314676
55.55440246
51.83594213
52.90067033
50.59145125
54.70654457
56.48385491
56.68285759
55.66940369
55.98874461
53.73893031
55.44425634
56.47027926
56.51132481
56.23324636
56.29098501
55.06773086
56.53858929
56.57728936
55.60592403
56.44424206
56.13574636
58.10853784
41.95824979
58.83550507
55.954465
42.76917759
42.96231644
43.70970216
40.51931522
41.84946522
41.53248789
53.49594313
54.41289791
55.11695677
46.87267656
47.88715189
47.11365225
45.80114007
44.40392528
46.17889884
42.70738615
43.79483316
44.56212838
42.25463369
43.01941148
42.07703375
57.3663304
55.05919821
54.54654387
60.93156163
60.75404049
60.10172755
48.69035064
47.71084645
50.69441104
45.11423488
46.63091926
47.21834385
45.29680248
45.99100142
44.56123068
54.86199893
52.43624765
52.66396785
51.04942974
50.87131861
54.46064156
50.5022499
49.95900984
53.16782819
46.93740769
48.63140356
48.99840754
47.74363319
48.21694175
46.55469177
56.59044867
54.08306218
54.48781838
49.30389197
50.45702496
55.81882785
39.53990628
39.67697446
41.46087444
57.82940274
53.17758156
54.60757024
56.66639817
56.83604742
57.67434433
60.00761516
61.23107321
61.14093983
55.78430789
56.47345308
55.0975623
48.21198664
49.67919869
47.91663255
53.8944997
52.14705383
51.3973538
55.88789144
55.37915606
57.88153786
54.83225626
51.45949663
51.24528766
54.12646735
53.64863411
56.52221024
54.29834774
54.93461792
52.12541032
57.73411804
58.07271591
58.03834953
58.27306956
58.28901958
56.84439902
59.16143767
56.73222715
56.32338044
57.99575561
57.87566137
58.73102719
50.76313119
53.21110939
54.06391765
55.22394072
47.48788207
48.89253033
52.82424832
52.94378828
55.1115583
56.32598816
56.4567017
54.56406778
57.13677416
58.06331812
58.08616131
57.34716789
57.33043793
57.25300623
56.37416109
58.22822238
58.25294005
58.11367235
58.13562985
56.47850137
53.98196868
56.0644944
56.27920584
57.45390308
56.28984887
56.48754824
54.74726699
55.05460551
56.98248861
55.02141535
39.46071153
51.72662908
56.93498978
53.39509067
51.93257717
51.2323607
54.26615729
48.11667734
49.83584722
50.04672727
49.31516471
49.59457471
47.88522529
46.27235533
39.96647868
40.33094163
42.275623
42.63966913
46.11374505
48.17163063
46.1676354
44.5492039
50.56234857
49.80241906
51.37419374
45.47639257
46.13174569
47.67858103
44.4061642
41.40318215
41.74812209
40.58367102
40.53852225
41.8342178
56.4068396
56.44553384
55.39494541
57.82479748
57.54763133
57.29541628
57.55430712
57.55049206
57.83899465
57.53825814
57.33142589
57.3447588
57.30669591
57.32697216
57.57975903
55.15125107
56.32990357
56.37502268
43.68157428
44.62592593
44.97527525
45.57320199
42.37063257
43.55016833
43.24821468
43.84801858
43.68342587
42.38422708
52.73265054
56.18654458
52.13679985
55.18374033
49.94167683
47.7613547
60.14397547
58.27779837
63.42216051
48.11185246
50.01422725
52.03456225
58.66115135
58.4277739
59.01683107
59.55498842
59.32287079
59.1154409
51.85831854
51.87303991
54.65496639
54.57750101
51.56293814
51.78412513
53.24573105
53.70877847
56.45094217
41.92608356
41.75749262
41.68073337
43.67454847
43.29859987
41.26263236
41.67253941
41.75697078
44.1191628
56.01258189
50.86995054
51.36454286
50.01973349
44.24686965
45.28261954
40.68567808
41.38684982
49.15926928
60.27935841
60.55601115
58.68159468
57.47389701
59.45137419
59.91547594
52.83786166
52.60715775
55.67047024
56.16829201
53.16487504
53.03701751
58.29285906
58.26685824
57.64984158
55.99616
57.29928807
57.42135482
56.96339654
57.15644321
55.80633816
56.60287133
57.69903268
57.76747242
57.52729832
57.6203276
56.47831819
56.95182698
58.29757051
58.30093912
57.37826461
57.06080705
59.22741427
53.85781639
55.31835225
55.65572314
54.51922106
54.93053878
53.48595289
55.10037642
56.52169887
56.76830436
55.98505325
56.25340928
54.82709297
58.8711078
57.85335153
57.60442515
45.76996924
46.96724338
56.12714119
55.49616833
53.55488474
53.69743998
42.2319294
50.89057761
51.45653496
52.22053162
51.63005588
42.6647277
57.08420019
55.34008461
55.60631473
41.02158824
40.86384192
40.69015503
45.35963952
43.88032429
41.08374282
46.32756369
40.9300218
47.71452791
45.50743356
44.43470232
45.80287735
46.01647799
45.38859883
44.13761482
49.34067491
45.94729081
47.25130637
47.85864421
49.90266774
44.432423
45.63306947
45.22763595
46.1056208
45.91828406
44.53551489
56.26053013
55.57584995
57.70007424
60.05404328
60.4581228
60.26210039
52.0018923
52.20473106
54.77064855
44.28954998
46.97387123
46.71699742
47.90057927
47.4013825
44.23432162
54.37856805
50.74038967
50.71377885
61.18717745
61.2566089
59.85644939
53.59347092
52.8564672
54.9871776
50.22479073
51.31926365
51.9297579
50.03639308
50.69647866
49.67848507
52.22610467
53.5830708
54.06658107
52.51187008
53.06401046
51.75671931
57.55422755
54.83579317
54.2340501
51.90404336
51.67907351
54.98498344
56.33094096
53.33098061
53.03085075
44.33094703
48.55319113
48.29099837
48.9610255
48.76513345
44.28845226
55.18757412
53.03354731
53.12903045
58.02405101
58.03987001
57.17336297
57.31329559
58.04124115
58.03582148
58.04207041
58.04309191
57.29940016
58.18141593
58.20594524
56.37453043
56.98919863
57.91510109
57.94941741
57.82527331
57.87427506
56.91500848
57.21224215
58.02094661
58.0333974
57.97888748
58.00232931
57.17313264
56.44951581
58.14291216
58.16603183
55.85060906
56.08336603
57.37613044
45.90973847
53.29776106
52.86107314
54.23745422
53.78263811
48.83025338
55.12011804
58.82929154
66.46744453
39.8675367
41.21003804
40.61717601
43.31659581
41.98646142
39.9933116
54.57377323
47.35363819
41.17026972
41.70535422
40.60455234
40.81131995
45.06846901
42.41857662
40.5657471
40.63815523
57.78022936
61.06041297
63.41118329
57.79165109
60.05980982
56.89466569
64.60750151
66.47205452
62.10938314
52.60829873
54.72900967
56.70267384
51.97172717
53.4596071
51.81730159
59.58106424
55.85669102
54.50188988
58.77014661
57.78757651
57.08172958
59.91468952
59.71613709
59.72762485
46.63319412
46.62246718
45.19644361
54.66714262
51.87506004
51.91572232
50.87432761
51.20567026
54.48867765
42.0745659
41.91294278
41.69875867
49.34608403
45.17065757
45.65820772
44.10184165
44.60595027
48.87070056
45.5055325
42.3682668
42.50239457
42.33876065
42.32000247
44.94482141
47.55941755
43.25072995
43.60879983
42.72395593
42.93598037
47.00276065
45.02433886
41.90697493
42.1013248
40.77851793
41.49187755
50.82463623
39.83103382
39.76929164
39.65097509
40.20515689
39.91182348
39.73256404
59.01697728
60.81021398
60.99607035
58.30926349
58.91079644
56.99268709
64.10875342
61.56672331
60.95605016
62.41461954
62.06895381
64.56577185
55.48568654
52.37412465
52.13624344
53.05747992
53.16223348
56.24725876
43.04370993
44.03204322
43.44865057
45.42208955
44.72946843
43.03998804
43.87779092
42.61168976
42.46547254
43.03824772
42.81301382
43.52972893
41.35279112
41.05040731
40.91493316
40.96155917
42.55394749
41.78335792
42.35118228
41.48127957
41.59073847
40.31637264
40.8052889
41.51412101
39.7041378
40.22678417
39.83444759
50.2215668
50.3798006
48.67670602
57.97816155
57.56758274
57.56129867
57.60036511
57.57999858
58.00167712
47.08469595
48.62243176
49.06540634
47.28565925
47.92761254
47.09012228
57.74042767
49.7925814
49.85513473
51.07612404
55.07539651
64.86184629
47.04684101
48.64075892
48.12112413
49.33032625
49.18437188
47.11439779
42.98222892
42.71788709
42.13093302
44.22048737
43.29511602
43.42879933
53.10165922
53.74914827
53.16339789
58.34749416
55.79808844
54.89723298
57.55645109
56.63304752
59.32284148
40.87175126
39.57470217
39.65725226
39.56607702
39.54739855
40.42924689
42.66530479
39.88445832
40.25111745
51.25352911
55.00465234
54.63503499
55.6425186
55.33240258
51.94586421
62.21639018
59.16933895
58.34633948
60.42979444
59.76662771
62.66597663
55.50620024
57.08996227
57.72007017
39.83878828
40.11360877
40.4590324
40.34316156
40.92079703
40.75629653
40.03021699
46.50106904
43.42746751
43.19053432
47.9522854
48.6949299
49.37077708
50.15380923
48.89051206
48.15769491
40.81082851
41.03768982
43.8535983
41.26412617
40.31836985
40.4498626
40.28206909
40.26987814
40.8016252
43.79819159
44.19103966
44.11294963
44.697545
44.56700181
43.93404968
46.47196953
45.24991649
45.96280062
50.8365031
47.37169021
47.73695134
46.24832565
46.72610211
50.4574879
41.24761782
42.72896326
42.43556929
53.24381942
53.3845319
55.4005347
44.50773131
49.57263314
49.22971414
50.42168201
50.02476758
44.88090927
45.97596958
47.00423641
46.58070283
47.62362866
47.38065767
46.38140335
51.30829594
48.57625368
49.65939388
37.0261375
37.02513849
37.00779041
37.02037823
37.01200353
37.00322738
36.99678275
36.97587778
36.98911489
36.95251731
36.93297946
36.97672235
36.91648102
36.9032087
36.96688275
36.89351119
36.88435775
36.96074013
36.87779669
36.87320906
36.95733113
37.05893266
37.05963242
37.04464049
37.05179935
37.04545655
37.03366041
37.01504313
37.00100202
36.99783168
36.94276733
36.92017733
36.92964005
36.86700476
36.85090279
36.87479927
36.76200072
36.74105577
36.80915208
36.72438037
36.71175617
36.79070418
36.70288293
36.69834092
36.77987237
37.15956509
37.16105462
37.12732014
37.14615176
37.13390808
37.10400928
37.08009452
37.05551073
37.03514159
36.96717111
36.93360177
36.92458212
36.83345281
36.79921433
36.80453368
36.6932988
36.63026987
36.68140574
36.59367861
36.56718703
36.63640239
36.54831348
36.53731197
36.61160329
37.38276766
37.38540959
37.31085945
37.36229744
37.33714458
37.27200874
37.24539884
37.2060939
37.15620683
37.06782545
37.01783766
36.98829342
36.86673108
36.81860277
36.80836802
36.69426832
36.57023519
36.59490877
36.50134751
36.44987936
36.50462876
36.41343301
36.39048151
36.45618761
37.86865887
37.87401962
37.71155377
37.82798785
37.76288211
37.6444813
37.5988306
37.52810987
37.42698428
37.29189937
37.2113753
37.14897809
36.97926594
36.90799781
36.87794007
36.75011304
36.5768793
36.57047281
36.45916023
36.36816742
36.40427889
36.30351012
36.25987662
36.31835282
39.00760708
39.01965392
38.62382425
38.79524435
38.65345687
38.4325227
38.28156689
38.13751229
37.94829905
37.70708848
37.57063646
37.46402986
37.19642262
37.08577986
37.03207577
36.8645255
36.61934277
36.5924442
36.46587602
36.32816583
36.34357039
36.22369277
36.14903526
36.19825724
40.98823837
40.99923265
40.68908707
39.48595659
39.17013138
38.86399214
38.36006961
38.12906818
37.97235364
37.5319822
37.36364634
37.28425721
37.03683396
36.700506
36.6554818
36.50083252
36.32777229
36.32496247
36.17487085
36.06107123
36.09942268
44.19777618
43.85551469
43.28253865
41.31263865
40.68052692
40.268575
39.24614073
38.87451541
38.68168692
37.9710499
37.72795366
37.62837821
37.25410852
36.81635639
36.75517977
36.56058228
36.34539578
36.33440043
36.15044457
35.994616
36.02389116
49.25539607
48.24039452
47.73993207
43.35863245
42.38171798
41.96099863
40.24958536
39.71959697
39.52141562
38.47162239
38.14458212
38.03949451
37.48949856
36.95200019
36.88321596
36.63733239
36.37558761
36.35877524
36.1459411
35.94736374
35.9688171
52.45807957
51.28280159
50.98437644
45.10097469
43.88092833
43.53766702
41.18522099
40.51630567
40.35290039
38.95460955
38.5492629
38.45152324
37.71404662
37.08948426
37.02191297
36.72085914
36.41428966
36.39356637
36.15292663
35.91674891
35.93207078
53.97075909
52.88058999
52.72660932
46.33464909
44.98331409
44.74407012
41.93015094
41.16041061
41.04253617
39.36192516
38.89645681
38.81341029
37.90671519
37.2162201
37.15525039
36.80109849
36.45562636
36.43410107
36.1639935
35.89811378
35.90892413
54.60779657
53.61187052
53.56226235
47.09516016
45.69891661
45.53339901
42.44696753
41.60700459
41.53182226
39.64402185
39.14045721
39.09581933
37.27236149
36.47378555
35.89384139
40.99483108
47.22589714
46.68065792
47.49214209
50.67521839
50.32961752
51.50476304
52.58520387
52.40435506
53.53489566
57.91067812
57.47573024
57.58335988
57.5512608
57.30434684
58.43951445
57.96928858
58.42629318
58.48066647
57.62550981
57.65361783
56.66393252
58.96162858
57.9361433
57.73424068
58.56019868
58.61940641
58.42036159
57.9819782
57.9876561
57.33449849
56.45431374
57.56300928
57.58156526
57.66649247
53.47999672
53.41733727
54.41922288
46.27286049
45.69677586
45.22047649
57.77574144
57.9774777
57.96318152
57.94593082
57.94508679
57.87853267
57.45277653
57.96678296
57.97132478
57.96027921
57.95765946
57.65768142
42.31403734
42.74698815
42.7505632
42.79520468
42.80527455
42.45042649
51.06295588
49.31500865
48.02998004
58.03752577
58.09840598
57.4855095
57.16570663
57.91344168
57.97207753
58.64551395
58.56302756
59.253017
59.08866471
58.75678108
58.706228
53.85803204
53.94431191
55.72887588
41.58312884
44.74993578
44.30801897
47.8910747
47.37678316
43.62873895
55.44391391
55.15057906
55.67333894
56.84819304
56.01429408
55.68220077
57.51158161
57.50905468
56.40132122
56.42742927
57.51422732
57.51103885
45.19585597
48.86009402
48.33471524
42.83512016
42.32833214
42.47450494
57.93810254
57.95141493
57.947426
55.63997463
56.60604594
56.63785552
41.9447566
42.55027498
42.40826722
44.59912098
44.19208576
44.29567881
57.73157207
56.98783401
57.13621065
47.33761244
47.99458009
47.36132445
47.43918781
46.51560078
46.71168141
37.07416032
37.05654996
37.1001543
37.07782344
37.07679594
37.07325309
37.07681501
37.09895997
37.0437473
37.05871365
37.05599031
37.07989421
37.06060121
37.06846667
37.03943479
37.05195085
37.06947785
37.02664247
37.03791343
37.02764155
37.01948981
37.00806795
37.02553284
36.96612932
36.98857252
36.99786501
36.97824038
36.98218679
36.9633699
36.91966579
36.91771462
36.9441511
36.87059567
36.8944816
36.89315012
36.91348323
36.90195955
36.88275531
36.81551913
36.83098212
36.85125646
36.79856169
36.81488063
36.79551491
36.86351078
36.83783505
36.82486046
37.19450374
37.15497699
37.25160149
37.20133445
37.19963147
37.1930318
37.19924168
37.24963899
37.12577871
37.15932284
37.15423424
37.21586873
37.17091419
37.18368717
37.1338666
37.15475316
37.19583282
37.09185739
37.11928943
37.10092676
37.11480446
37.08194205
37.10975422
37.01816436
37.05156412
37.08086882
37.01093776
37.02849288
36.99829127
36.96472322
36.94679822
36.98349929
36.87251128
36.91007252
36.92415292
36.89523572
36.90039657
36.86634665
36.80296782
36.79997252
36.83639376
36.73166301
36.76390126
36.76416748
36.78003253
36.76950809
36.74269372
37.45670113
37.37332678
37.58229599
37.4724782
37.46781394
37.45580991
37.46894961
37.58056819
37.30826438
37.38341405
37.37690625
37.51256881
37.42254951
37.43885855
37.35680791
37.3948307
37.47492763
37.25114515
37.3096042
37.2796643
37.34007441
37.2673984
37.31385879
37.16527865
37.21788968
37.28351589
37.11772264
37.16281417
37.11628148
37.09642998
37.05442372
37.11060421
36.94086749
36.99739438
37.03334251
36.94324547
36.96746278
36.91659709
36.8532889
36.83357533
36.88615346
36.7349018
36.78339012
36.79809879
36.76650282
36.77289332
36.72882965
38.02306397
37.85122656
38.31657773
38.07010446
38.05947885
38.01493317
38.0562509
38.31669693
37.70539813
37.87305477
37.86685959
38.12195272
37.96645172
37.99585072
37.81534572
37.89806256
38.05422378
37.60355761
37.71262054
37.66090313
37.78705081
37.6460576
37.73187669
37.46855654
37.55833839
37.68363264
37.36144304
37.45132156
37.37207308
37.36785933
37.28449476
37.37596543
37.10674558
37.19479982
37.26598592
37.07874791
37.13197702
37.05396502
36.984918
36.94348076
37.02286036
36.79760124
36.86858917
36.90159975
36.81698578
36.84044935
36.77650452
39.43589522
38.97139119
40.28286062
39.52877724
39.53517437
39.30475273
39.43697878
40.1612026
38.58828198
39.01655657
38.96352594
39.43743768
39.11267547
39.26176001
38.70225635
38.89221051
39.24821476
38.31140894
38.54356275
38.41929812
38.59325172
38.34944656
38.52322465
38.01174681
38.17884221
38.38677461
37.82798671
37.99206994
37.84780259
37.82343695
37.69283218
37.84872233
37.40095938
37.54325882
37.65434786
37.34855153
37.43923896
37.31418865
37.21196047
37.14498879
37.26789794
36.92565008
37.03120939
37.08563228
36.9396192
36.98255706
36.88714182
41.91825904
41.49096597
41.45223372
41.38998014
41.44881831
41.96687014
40.67533455
41.03321784
41.0251208
39.8771335
39.5064907
39.88507716
38.85578138
39.16639589
39.47149677
38.62279127
38.87900377
38.60945182
38.48310653
38.30550606
38.57004874
37.83690464
38.06104708
38.21264656
37.7804633
37.9145378
37.71560561
37.53677129
37.44651879
37.63233447
37.12586164
37.27816865
37.3517399
37.14493029
37.20965568
37.0695716
44.99296155
44.40238476
44.81379414
43.49760557
43.94416144
44.45239704
41.535757
41.1055521
41.8221888
39.97310121
40.49874664
40.85066338
39.8011449
40.1381404
39.66463526
39.29398071
39.09678823
39.51049085
38.39394972
38.72579448
38.89425133
38.37664382
38.54161324
38.24156479
37.93296582
37.83208599
38.0971587
37.38451111
37.59542034
37.67899255
37.42820358
37.5102413
37.31504067
49.15805437
48.70445671
49.76401396
46.97040836
47.77410449
48.19240171
46.89583867
47.3505244
46.61652679
43.17434908
42.78659129
43.82927843
41.16724261
41.91365596
42.23599702
41.21422078
41.56248209
40.85938202
40.13197653
39.94702279
40.51922005
38.9948014
39.4413961
39.60179522
39.08214706
39.25373412
38.83977619
38.35102993
38.25075166
38.59966406
37.67106416
37.94261495
38.02662439
37.76698264
37.85446332
37.59808685
51.79912953
51.54366318
52.71713164
49.50334627
50.46559465
50.72313022
49.9200421
50.21405473
49.24172869
44.48692928
44.19302142
45.44511951
42.21444116
43.13197091
43.3808828
42.55973072
42.8480264
41.95903893
40.86357212
40.71502508
41.41549121
39.54734215
40.09557189
40.22297327
39.78295781
39.93076228
39.41235626
38.72949347
38.64081401
39.064262
37.94388682
38.26911667
38.34473883
38.10954714
38.19228225
37.87932584
53.12320815
52.98883967
54.07243782
45.38770758
45.19249859
46.54613965
43.0097931
44.03006434
44.18591585
43.6226532
43.81942044
42.80946378
41.41834416
41.30611824
42.10637137
39.98518296
40.60334227
40.70622091
40.3774741
40.47960469
39.88470145
39.03372664
38.96332799
39.44124707
38.17906215
38.54446683
38.60609667
38.41557158
38.48750621
38.12978914
44.33920835
44.4765503
43.40082975
40.80207638
40.87002859
40.21790413
38.65984257
38.700564
38.32017819
50.59375931
49.73552176
49.26692393
50.48111089
50.06361647
51.02847061
55.27095283
54.13629348
53.95154084
54.46310669
54.30299352
55.40924838
52.21063556
51.17987387
50.80163985
51.81858125
51.48753449
52.56627277
56.51583107
55.75075224
55.71036269
55.79232724
54.74502446
54.6088673
54.98868205
54.87186249
55.88518316
41.39482045
40.99001
40.93970067
40.49743746
41.73073566
41.23064965
41.27036353
41.03195327
41.11170817
41.6217883
45.30269553
45.9499339
46.4349923
44.95542175
45.46060814
44.94093051
46.88684936
46.13251359
45.55386964
48.38153046
49.28815195
49.62517072
48.57316811
48.95075196
48.06663328
51.12819439
49.97156584
49.57264008
50.35216301
51.32978144
51.51931844
50.93310705
51.15548419
50.14535721
53.36743836
52.22946057
52.01341514
49.68190651
52.91233568
52.7430899
53.29254086
53.12846951
50.1184375
57.25265356
57.38254573
57.86648993
53.69908074
56.17439658
55.91071313
56.61618641
56.40224999
54.19151973
48.70403106
48.09795843
47.54849709
48.93254405
48.43026659
49.20793915
58.18070289
57.0872503
56.7993639
54.53065676
53.35931173
53.12488957
53.76391955
53.55029025
54.72939189
58.2989478
58.33956031
57.83451758
58.10744957
58.35929731
58.39265204
58.32508482
58.35143258
58.0665045
56.75915354
57.70544903
57.74383854
58.24456782
58.08344843
59.07308109
57.95766315
58.24132344
58.29304433
58.07323222
58.17464031
57.91284655
58.57830616