/*--------------------------------*- C++ -*----------------------------------*\
| =========                 |                                                 |
| \\      /  F ield         | OpenFOAM: The Open Source CFD Toolbox           |
|  \\    /   O peration     | Version:  v2012                                 |
|   \\  /    A nd           | Website:  www.openfoam.com                      |
|    \\/     M anipulation  |                                                 |
\*---------------------------------------------------------------------------*/
FoamFile
{
    version     2.0;
    format      ascii;
    class       surfaceScalarField;
    location    "2";
    object      meshPhi;
}
// * * * * * * * * * * * * * * * * * * * * * * * * * * * * * * * * * * * * * //

dimensions      [0 3 -1 0 0 0 0];
oriented        oriented;


internalField   nonuniform List<scalar> 
6464
(
0
0
0
0
0
0
0
0
0
0
0
0
0
0
0
0
0
0
0
0
0
0
0
0
0
0
0
0
0
0
0
0
-8.306666771e-07
0
1.904841576e-09
7.061878995e-07
0
0
0
0
0
0
0
0
0
0
0
0
0
0
0
0
0
0
0
0
0
0
0
0
0
0
0
0
0
0
0
0
0
0
0
0
0
8.996465707e-07
-0.0002266343923
-2.67724341e-06
0.0002243984456
-9.637539611e-07
-0.0001805049452
1.251547539e-06
0.0001556849586
-6.551282904e-07
-6.96510714e-05
1.980079989e-06
4.343824299e-05
0
-1.285121279e-06
3.265996905e-08
0
0
0
0
0
0
0
0
0
0
0
0
0
0
0
0
0
0
0
0
0
0
0
0
0
0
1.900810628e-05
-0.0008058233166
-2.895072789e-05
0.0008051201653
3.351548816e-06
-0.0007290349466
-7.966657806e-06
0.000680030177
-9.647534968e-06
-0.0004772835669
1.25554635e-05
0.0003979558057
-4.543802306e-06
-0.0001665747803
8.516959062e-06
0.0001034711748
0
-2.528801604e-06
5.685094819e-08
0
0
0
0
0
0
0
0
0
0
0
0
0
0
0
0
0
0
0
0
0
0
6.844829468e-05
-0.001409438299
-8.217056245e-05
0.001410603387
3.268240084e-05
-0.001336518397
-4.369358611e-05
0.00128369658
-1.714052593e-05
-0.001035357306
1.624391115e-05
0.0009255948284
-1.759507142e-05
-0.0005700796318
2.33258071e-05
0.0004500419255
-5.169748459e-06
-0.0001352037925
9.28215971e-06
6.702479953e-05
0
0
0
0
0
0
0
0
0
0
0
0
0
0
0
0
0
0
0
0
0
0.0001109262522
-0.001692410219
-0.0001136428392
0.00169268075
8.230508368e-05
-0.001675838211
-9.269892039e-05
0.001650153811
3.109598599e-05
-0.001503531095
-3.700238378e-05
0.001399714117
-5.621454149e-05
-0.0009807725363
6.15339526e-05
0.0008273980714
-2.749699455e-05
-0.0003768713704
3.436873246e-05
0.0002508785469
-1.697388814e-05
-2.989322411e-07
5.970910491e-07
2.575135886e-07
0
0
0
0
0
0
0
0
0
0
0
0
0
0
0
0
0
-0.0008441230048
5.729356843e-05
-5.75278288e-05
0.0008443572652
-0.0008683987015
0.0001427296863
0.00174200953
-0.0008813239126
-5.833617128e-05
-7.668043072e-05
-0.001654053194
2.988813411e-05
-3.97621642e-05
0.001591977254
-6.545605541e-05
-0.00125072774
6.239669139e-05
0.001097844921
-5.374168803e-05
-0.0005890856095
6.123302034e-05
0.000432607002
-8.615428591e-05
-4.182910329e-06
5.854257939e-06
2.727161472e-05
0
0
0
0
0
0
0
0
0
0
0
0
0
0
0
0
0
-0.0008560416548
5.387220043e-05
-5.254502218e-05
0.0008547144766
-0.001690258454
5.990102981e-05
-6.437783851e-05
0.00165738034
-6.756560953e-05
-0.001367869956
6.69021158e-05
0.001220885093
-7.549516015e-05
-0.0007114687554
7.69037761e-05
0.000543562083
-0.0001479923666
-1.025655687e-05
1.231628096e-05
6.474697637e-05
0
0
0
0
0
0
0
0
0
0
0
0
0
0
0
0
0
-0.0008444789308
4.982499777e-05
-4.93877974e-05
0.0008440417304
-0.001683929398
6.954308266e-05
-7.035723186e-05
0.001664160209
-6.197731141e-05
-0.001411688006
6.072117342e-05
0.001273675745
-8.47849609e-05
-0.0007756954218
8.599461265e-05
0.0006051590346
-0.0001799895447
-1.512610169e-05
1.605605025e-05
8.744756322e-05
0
0
0
0
0
0
0
0
0
0
0
0
0
0
0
0
0
-0.0008345549589
4.822443261e-05
-4.795112755e-05
0.0008342816538
-0.001663929988
6.84561699e-05
-6.709879094e-05
0.001641004923
-6.075431148e-05
-0.001382835241
6.076716951e-05
0.001245112277
-8.494562012e-05
-0.0007541449328
8.414872444e-05
0.0005877260182
-0.0001742249874
-1.545364542e-05
1.51561323e-05
8.430784718e-05
0
0
0
0
0
0
0
0
0
0
0
0
0
0
0
0
0
-0.0008267061174
4.729368114e-05
-4.705987322e-05
0.0008264723095
-0.00164277285
5.909953816e-05
-5.534628544e-05
0.001602753309
-6.398758814e-05
-0.001300258399
5.971206227e-05
0.001165319754
-7.74576814e-05
-0.0006778935073
7.494333209e-05
0.0005182345998
-0.0001359408291
-1.125775891e-05
1.035551151e-05
5.847741381e-05
0
0
0
0
0
0
0
0
0
0
0
0
0
0
0
0
0
-0.0008173322651
4.642690872e-05
-4.642180359e-05
0.00081732716
-0.001599444611
4.434819119e-05
-3.977928082e-05
0.001535992069
-6.174963834e-05
-0.001198290954
6.884479274e-05
0.001045146442
-6.470560799e-05
-0.0005615072924
6.027059016e-05
0.0004128760394
-8.691555497e-05
-6.196451086e-06
5.062478728e-06
2.841422194e-05
0
0
0
0
0
0
0
0
0
0
-5.180726847e-05
0.0008439916577
5.228800859e-05
-0.0004228596603
-0.0004216127376
5.99052596e-05
-0.0008597073983
-5.623951613e-05
-4.870920492e-05
0.0008363902761
4.910119343e-05
-0.0004182267959
-0.0004185554687
-5.03858886e-05
-0.0004229024092
-0.0004229979015
-4.813562913e-05
0.0008268133627
4.75617447e-05
-0.000412858807
-0.0004133806713
-4.843824966e-05
-0.0004167710745
-0.0004180548397
-4.656443599e-05
0.0008178043226
4.705756186e-05
-0.0008182974485
-0.0008270506487
-4.779109788e-05
-0.0008174304704
-4.64662307e-05
5.745596929e-05
-5.726505452e-05
0.0008610503134
5.860034849e-05
-0.0008597454023
6.655078839e-05
-0.0008619780537
-7.297143627e-05
-1.34201964e-05
0.0002143723408
1.352854552e-05
-0.0002144806899
0.0004347212206
3.316563654e-05
-0.0004359551497
-3.193170739e-05
0.0008436617783
5.015487719e-05
-8.734704248e-05
0.001684406982
8.945468547e-05
-0.001686958446
9.120612691e-05
-0.001699882148
-8.797797352e-05
-1.498231805e-05
0.0002100970998
1.483139047e-05
-0.0002099461722
1.302686572e-05
0.0002115215593
-0.0002113954663
-1.315295866e-05
0.000836195693
4.841901572e-05
-8.497467454e-05
0.001670851748
8.562245393e-05
-0.001671593627
-0.001684872628
-8.655434876e-05
-1.281654423e-05
0.000208132527
1.289129168e-05
-0.0002082072745
1.397040574e-05
0.0002088620212
-0.0002084446716
-1.438775531e-05
0.0008269167466
4.719029726e-05
-8.043496433e-05
0.001647788793
8.236326575e-05
-0.001652961005
-0.001664959567
-8.424540469e-05
-2.476305684e-05
0.0004109637221
2.490298066e-05
-0.0004111036459
2.545269915e-05
0.0004135295337
-2.457302776e-05
-0.0002073864187
-0.0002070227864
-0.0002052179086
-1.295041398e-05
0.0002045512676
1.361705501e-05
-2.419146032e-05
0.0004070498816
2.405705196e-05
-0.0004069154732
2.456811744e-05
0.0004087930973
-0.0004087788916
-2.458232313e-05
0.0002117213869
1.290647778e-05
-0.0002116009989
0.0002137005061
-0.0002138860891
-1.323461341e-05
5.381179584e-05
0.0008501912677
-5.287909512e-05
-0.0004262303678
-0.0004248936007
2.857850051e-05
-0.0002130532673
-2.780892651e-05
0.0004259841994
-1.313923904e-05
0.0002117843866
1.307623932e-05
0.0002085569793
1.351152006e-05
-0.0002080980936
0.0002106507844
-0.0002103606283
-1.527247416e-05
2.479828605e-05
0.0004206300739
-0.000420711646
-2.471671395e-05
1.462314634e-05
-1.470536204e-05
0.0002107330001
-1.356868259e-05
0.0002088237464
1.330191549e-05
-1.319269131e-05
0.0002115750116
0.0002102338779
1.448636825e-05
0.0004202620016
2.480025558e-05
-0.0004202639712
0.0004132087838
2.535610578e-05
-0.0002065296131
-0.0002065825774
0.0002080032794
-0.0002079479251
-1.287189854e-05
4.748512358e-05
0.0008296027994
-4.763330947e-05
-0.0004142961137
-0.0004151584997
2.552964785e-05
-0.0002073516115
-2.521216522e-05
0.0004150374082
-2.516519295e-05
0.0004131644723
2.52095045e-05
-1.383093878e-05
0.0002091242774
-0.0002078869369
0.0004156477253
1.285815668e-05
1.304322974e-05
0.0008308346953
4.819144818e-05
-0.0004155832097
-0.0004159578102
0.0004092782226
2.458547375e-05
-0.0004092955789
0.0004110309984
-0.0004110198714
-2.477418386e-05
1.165118274e-05
0.0002035857577
-0.0002028267352
1.291270337e-05
-0.0002064794293
-0.000406322814
0.0002035807684
-3.734426552e-05
0.0002124228294
1.451818546e-06
-0.0001765303825
0.000223622119
1.937108975e-05
-0.0002267389306
-1.625427808e-05
-6.773960089e-05
0.0002081501605
3.012375053e-05
-0.0001705343101
0.0008176051459
4.662608543e-05
-7.106264215e-05
0.001613692178
7.44027426e-05
-0.001637232485
-0.001649731954
-7.9363786e-05
-6.728169845e-05
0.0002048493944
2.927787495e-05
-0.0001668455709
-2.484249636e-05
0.0004079990045
2.509764521e-05
-0.0002040804698
-0.0002041736836
1.258047362e-05
0.0002044351525
-0.0002043954994
-1.262012675e-05
3.552879519e-05
-3.192659804e-05
0.0004311190234
-0.0002137084902
0.0004271582025
2.950112905e-05
0.0008506216673
5.226441713e-05
-0.0004246566277
-0.0004244176609
0.0002048524708
1.274279112e-05
-0.0002050147883
1.497873678e-05
0.0002054273235
-0.0002060573076
-1.434875271e-05
4.750661273e-05
0.0008207887277
-0.0008210181876
-4.727715282e-05
2.484993121e-05
-2.471587398e-05
0.0004108969412
-2.452533588e-05
0.0004091938906
2.460966787e-05
-2.489964863e-05
0.0004132639894
0.0004109795464
2.483410691e-05
0.000822836104
4.754579236e-05
-0.0008228752837
0.0004209037341
2.7255771e-05
-0.0004208944352
-2.726506983e-05
0.0004340463761
3.382227388e-05
-0.0004347030135
0.000883365266
8.447556821e-05
-0.0004427607503
-0.0004262290478
-4.156305609e-05
-5.728798003e-05
3.540564786e-05
-3.602437125e-05
0.0004215224574
0.0002699036567
-0.0003072479222
2.960547033e-05
0.0004307297539
-2.869363612e-05
-0.0002156148086
-0.0002160267795
1.844342391e-05
3.348067025e-05
0.0002179795625
1.683220055e-05
-1.526160374e-05
0.0002220515221
0.0002175822274
1.328402594e-05
0.0004295228096
2.833067274e-05
-0.0002143990365
-0.0002138489755
1.32030589e-05
0.0002107837853
-0.0002108124366
-1.31744076e-05
0.0002111221456
1.324663871e-05
-0.0002111657254
1.257656382e-05
0.0002089934254
-0.0002089216447
-1.264834456e-05
0.0002096602839
1.286586984e-05
-0.0002099495899
0.0002051282635
-1.500897502e-05
1.347899563e-05
-0.0002035982841
0.0002113453509
-0.0002692655968
-9.819355035e-06
2.510657298e-05
0.0004115123194
-0.0004114964767
-2.512241561e-05
1.683968861e-05
-1.3827105e-05
0.0002083327673
-1.481694997e-05
0.0002055500091
1.439520436e-05
1.508450595e-05
-2.953492446e-05
0.0002045705312
-0.0001901201127
0.0002069370844
1.805276465e-05
0.0004120577437
2.514187975e-05
-0.0002059520587
-0.0002061409917
-2.421011399e-05
0.0004067595186
2.43170419e-05
-0.0004068664465
0.0004076320993
-2.456893687e-05
-0.0002039896017
-0.0002039160571
-0.0002657076948
-1.003848853e-05
0.0002084644849
1.374811204e-05
0.0002128459875
-0.0002123509943
-1.424310529e-05
0.0002123954382
1.378705182e-05
-0.000212434378
1.194397293e-05
0.0002100049326
-0.0002099408223
-1.200808326e-05
0.0002101470424
1.201112404e-05
-0.0002102141935
-1.239927212e-05
0.0002100475886
1.249872593e-05
-2.542316283e-05
0.0004192732385
2.551151364e-05
-0.0004193615893
2.565643607e-05
0.0004209135674
-0.0004209566635
-2.561334e-05
-2.527096388e-05
0.0004183434346
2.530660711e-05
-0.0004183790778
0.0004193672103
-0.0004194099363
-2.538043688e-05
-1.238402543e-05
0.0002099896859
-1.320313027e-05
0.0002110505461
1.327472976e-05
-2.583428765e-05
0.0004218550194
2.587779278e-05
-0.0004218985245
2.605698313e-05
0.0004232409725
-0.0004232871007
-2.601085487e-05
0.0004203864043
2.569732051e-05
-0.0004204272887
0.0004214470228
-0.0004214813515
-2.579995893e-05
-1.321343107e-05
0.0002107940861
1.297512357e-05
0.0002073528379
-0.0002074160062
-1.291195529e-05
0.0002018786825
1.139111468e-05
-0.0001981852912
0.0002073630331
1.312435928e-05
-0.0002075122688
-0.0002052891046
-1.529737264e-05
0.0002057695272
-0.000206010651
-1.390330578e-05
0.0002055898672
1.432408962e-05
-2.461512723e-05
0.0004104083171
2.480736627e-05
-0.0004106005561
1.562681327e-05
-0.0002066587275
-0.0002039800305
-1.631804908e-05
1.789358693e-05
-0.0002836012817
0.0004060190843
-0.0004058400523
0.0002610106233
1.711137326e-05
-0.0002781219966
-1.683421326e-05
0.0002043403603
1.674025847e-05
-0.0002042464056
1.201228677e-05
0.0002042792182
-0.0002037295765
-1.256192842e-05
-0.0002438974297
-1.707857332e-05
-5.095223439e-05
0.0003119282374
0.0002058759299
1.403313479e-05
-0.000207896778
9.267156006e-06
0.0002061926538
-0.0002039636217
-1.149618811e-05
0.0004199138233
2.007668076e-05
-0.0004231468399
-1.297402749e-05
-3.869636655e-06
0.0002250601865
2.124711584e-05
-0.0002269362126
0.0004461208731
4.955428915e-05
-0.000436385119
-5.929004324e-05
4.051668339e-05
0.0004256944979
-2.436746219e-05
-2.19298958e-05
1.403013029e-05
0.0002100883976
-0.0002096720384
-1.444648949e-05
1.241090293e-05
-1.238915949e-05
0.0002110313472
-0.0002110530906
-1.224793939e-05
0.000211488451
1.24248416e-05
-0.0002116653533
-1.338377876e-05
0.0002115477553
1.333329957e-05
-0.0002114972761
1.350208837e-05
0.0002081895066
-0.0002080010966
-1.369049835e-05
1.619866462e-05
-0.0002071002247
-1.675977714e-05
0.0002076613372
-1.138053033e-05
-0.0002107830548
0.0002097011789
1.246240629e-05
1.221262877e-05
-1.20660431e-05
0.0002073434836
-0.0002074900692
-2.880636435e-05
0.0002086611022
1.531819544e-05
-0.0001951729332
-1.495603169e-05
0.0002085661334
1.509946105e-05
-0.0002087095628
1.373175801e-05
0.0002113199361
-0.0002119121787
-1.313951545e-05
1.512416964e-05
-0.0002626060721
3.40719134e-05
0.0002134099891
0.0002109547052
1.056108753e-05
-0.0002091048898
-1.341907961e-05
0.0002122619282
1.355258959e-05
-2.626069422e-05
0.000423437172
2.646318562e-05
-0.0004236396634
2.650906953e-05
0.0004261502689
-0.0004260701145
-2.658922388e-05
0.0004231007903
2.613982684e-05
-0.000423183634
0.0004246028795
-0.0004246448604
-2.621871337e-05
-1.357871787e-05
0.0002130056258
1.254215937e-05
0.0002088985353
-0.0002086254527
-1.281524193e-05
1.116308622e-05
-1.173400368e-05
0.0002078738522
-0.0002073029348
0.0002070591451
1.161938984e-05
-0.0002064659062
-1.426124267e-05
0.0002109810274
1.494752393e-05
-0.0002116673086
-0.0002064106345
-1.23841341e-05
0.0002074142383
-0.0002048062849
-1.658420375e-05
0.0002061330277
1.525746101e-05
-1.340459393e-05
0.0002072838369
1.326923763e-05
-0.0002071484806
-2.50394174e-05
-0.000207013823
0.0004140892875
2.532698607e-05
0.0004136953308
-2.452285248e-05
2.475416114e-05
-0.0004139266395
2.48703567e-05
0.0004150815748
-0.0004150804585
-2.487147304e-05
-1.219028429e-05
0.0002091561219
1.269444633e-05
-2.529649429e-05
0.0004171641457
2.52322535e-05
-0.0004170999049
0.0004182121185
-0.0004182840175
-2.519906483e-05
0.0004158160186
2.483750122e-05
-0.0004157831631
0.0004169900111
-0.0004174082289
-2.487827654e-05
-1.202605252e-05
0.0002088291937
0.0004097773811
-0.0004097959859
-2.459652246e-05
-1.353939971e-05
0.0002050634175
-2.453240284e-05
-0.0002050491041
0.0004094325083
2.500146945e-05
6.761134437e-05
0.0002092782364
-0.0002662264548
-1.066312592e-05
1.559222073e-05
0.0002231512639
-0.000220878558
-1.786492662e-05
3.317890273e-05
-1.578593445e-06
0.000229410314
0.0002221730599
1.373886742e-05
-0.0002203197066
5.838645003e-06
0.0002007581576
-1.118203718e-05
-0.0001954147654
0.000206272078
-1.763730959e-05
-0.0001827961234
-1.55075804e-05
0.000204444003
1.573638345e-05
-0.000204672806
0.0002050200356
-0.000205991627
-1.586262194e-05
1.769021782e-05
0.0002657826712
-0.000283472889
-2.176246194e-05
6.526149194e-05
0.0001761510572
-8.452457077e-06
-2.057939367e-06
0.0001805097368
-0.0002048032196
1.058400307e-05
-1.281753528e-05
0.0002070367518
-0.0002094000763
-1.318077235e-05
0.0002070830592
1.549778947e-05
-1.336864773e-05
0.0002051859078
1.379459026e-05
-0.0002056118504
6.657728391e-05
-0.0002667102043
-1.729049741e-05
-9.493808187e-06
-0.000178018914
0.0002711890519
3.599134079e-05
-0.0003071803927
-1.240865988e-05
0.0002156826533
1.277420558e-05
-0.000216048199
1.290366929e-05
0.0002159215634
-0.0002162862632
-1.253896951e-05
-1.192973337e-05
0.000214442351
1.408444354e-05
-0.0002165970612
0.0002144895761
-0.0002147718813
-1.212635469e-05
0.0002151836295
1.44995648e-05
-0.000216779525
1.441697969e-05
0.000215313893
-0.0002159334451
-1.379742753e-05
1.801066536e-05
-1.516497251e-05
0.0002203055711
1.220156473e-05
-1.172177743e-05
0.0002113653776
-0.0002118451648
0.0002561576204
2.896575142e-05
-0.0002851233718
0.0002104736992
1.357983872e-05
-0.0002100234076
0.000211083944
-0.0002110975996
-1.337012318e-05
-1.236780306e-05
0.0002111410046
-0.0002110211409
0.0002113441893
1.217404688e-05
-0.0002113166715
-0.0002061173074
1.078852947e-05
-1.218256639e-05
0.0002075113443
-0.000204860608
0.0002062887735
1.477049913e-05
0.0002077710852
1.340828723e-05
-0.0002076772841
-1.537991053e-05
1.246957306e-05
-0.0002019502705
9.811451877e-06
-1.073201835e-05
-0.0002051967409
-9.44637958e-06
9.083150099e-06
-0.0002104198253
-2.919356335e-05
-0.0001932865719
0.0002086417384
6.744375862e-06
-0.0002055746624
0.000208999511
-0.0002096281993
-1.432734342e-05
-6.715204704e-05
0.0002119649578
-0.0001736192751
0.0002096883865
9.741881398e-06
1.713231118e-05
0.0002068569498
-0.0002076079452
-1.638131569e-05
0.0002051129199
1.463542796e-05
-0.0002026160367
-1.590255817e-05
0.0002065506336
1.446484453e-05
-1.31640601e-05
0.0002068718121
1.330990321e-05
-0.0002070176552
1.416134863e-05
0.0002057681757
-0.0002062289407
-1.370058369e-05
-1.016693888e-05
0.000207442884
8.996132896e-06
-1.361257723e-05
0.0002065148631
1.373669035e-05
-0.0002066389762
1.380801624e-05
0.0002070290967
-0.0002068592035
-1.397790946e-05
0.0002060052927
1.43216793e-05
-0.0002061656234
0.0002059583281
-0.0002058007408
-1.377016453e-05
-1.316880168e-05
0.0002037600204
-0.0002046892628
-1.72325044e-05
0.0002048315964
1.70901708e-05
-1.400835021e-05
0.0002040509514
1.429886396e-05
-0.0002043414652
0.000204636603
-0.0002051654764
-1.497870699e-05
-0.0002101525928
1.266479425e-05
-1.369533725e-05
0.0002111831358
-0.0002120556164
0.0002123034793
1.48763067e-05
0.0002109555593
1.422397318e-05
-0.0002114477745
-3.377576368e-05
1.529611648e-05
-0.0001935759692
1.044689229e-05
-1.302941226e-05
-0.0002075700728
-0.0002963818358
-1.61878108e-05
0.0002108170367
1.442868267e-05
-0.0002090579086
0.0002137474944
-0.0002144007431
-1.127648473e-05
0.0002112582332
-1.416411997e-06
-0.000199394929
0.000213361836
-0.0002129301944
-1.66194524e-05
1.358440377e-05
0.0002137492911
-0.0002136007613
-1.373293361e-05
1.577631257e-05
-1.525813476e-05
0.0002128436582
0.0002116872633
1.223576424e-05
1.133178474e-05
-1.088113519e-05
0.0002099122933
-0.0002103629429
0.0002087331153
1.141351813e-05
-0.0002089835472
0.0002094277719
1.228266973e-05
-0.0002091682822
0.000210989151
-0.0002120296866
-1.322070714e-05
1.246902231e-05
0.0002698971714
-0.0002823661937
0.0002097852133
1.102733032e-05
-0.0002094807588
-1.506727018e-05
0.0002077980247
1.597380782e-05
-0.0002087045623
1.282466842e-05
0.000207063875
-0.0002058677017
-1.402084173e-05
0.0002062789982
1.34644377e-05
-0.0002059354196
0.0002080554936
-0.0002096477735
-1.347499034e-05
1.736972359e-05
0.0002706150378
-0.0002879847613
-1.707304482e-05
1.521096724e-05
-0.0002029442074
-0.0002043313585
-1.152565559e-05
0.0002091217444
1.364381798e-05
-0.000209940894
0.0002064300174
-0.0002055259707
-1.797709157e-05
0.0002675588711
-0.0002848493685
1.478862045e-05
0.0002050479743
-0.0002045348853
-1.530170947e-05
6.509354979e-06
-1.466859238e-05
0.0001991985457
-0.0001910393083
0.0002102634218
6.787945233e-05
0.0002041188461
-1.772006816e-05
-0.000179889423
0.0002056399233
1.513398986e-05
-0.0002059852928
2.940799498e-05
-0.0001664859134
0.0008618806522
5.304186163e-05
0.001699061689
9.209964317e-05
-0.001713265664
6.004188475e-05
-0.001690657408
-6.744083525e-05
5.70580045e-06
-1.43423496e-05
0.0001960757729
-0.0001874392238
-1.844941428e-05
0.0002015116803
-0.0001773564656
-0.001630121568
-6.722758868e-05
0.0002654980058
-0.0002839474201
-2.45003714e-05
0.0004087681328
0.0008136882003
4.899443334e-05
-0.0004070187682
0.0008137198784
4.660756254e-05
-0.0008135960296
0.0002089673136
1.243103258e-05
-0.0002136021209
-7.796225268e-06
-1.252278417e-05
-0.0002198098494
1.509228699e-05
0.0002172403466
-0.0002365640012
0.0002290587895
-9.573361635e-06
0.0002294504349
4.000223551e-05
-0.0002523412972
0.0002207605747
2.936608312e-05
-0.0002169359121
-3.319074567e-05
2.43397378e-05
-2.713075344e-05
0.0002117583292
6.920886875e-05
0.0008553597126
-0.0008626667371
-6.190184425e-05
8.625280427e-05
-7.875571257e-05
0.0008758681743
0.0004348132616
3.47619097e-05
0.0002129529499
1.406695744e-05
-0.0002126796255
-1.434028185e-05
1.213485469e-05
-1.181235402e-05
0.0002141670754
-1.304283756e-05
0.0002146306762
1.285451238e-05
-1.241758097e-05
0.0002034081225
1.261575208e-05
-0.0002036062936
0.0002040160088
-0.0002045560076
-1.346835136e-05
-1.463402377e-05
0.0002066797557
-0.0002043404711
-2.454663597e-05
0.0004087898567
-2.459176402e-05
0.0004078639061
2.472686243e-05
-2.432539046e-05
0.0004076071866
2.43733204e-05
-0.0004076551166
-1.313700742e-05
0.0002138416643
0.0002118312933
1.4762056e-05
0.0002133091322
1.343538911e-05
-0.0002131601175
7.681569916e-06
-0.0001996717195
-0.0002054413981
1.261038258e-05
0.0002057437189
-6.394036017e-05
2.252611256e-05
-0.0001640271504
-0.0002627382195
0.0002031065416
-0.0002031179954
-3.627946797e-05
0.000212941183
-0.0001752098965
1.550009768e-05
0.0002025303037
-0.0001879066508
1.693215878e-05
-1.689668023e-05
0.0002048139158
-0.0001994089703
1.328982804e-05
0.000203051301
9.35246198e-06
-0.0001794835573
1.324536534e-05
-1.345959067e-05
0.0002044934435
-1.549536429e-05
0.0002044584027
1.537732198e-05
-1.245283258e-05
0.0002043854131
1.236909367e-05
-0.0002043016742
0.0004261902328
2.671026672e-05
-0.00042639143
2.784477162e-05
0.0004274483431
-0.0004268871509
-2.840596389e-05
2.978444251e-05
-2.842450623e-05
0.0004293698176
0.0002047544704
-0.0002051786322
-1.294448587e-05
-1.306813897e-05
0.0002060800204
0.0002054589329
1.366236242e-05
4.329590324e-05
0.0004309836769
-0.0004384123879
-3.586719225e-05
5.171984123e-05
-4.801713942e-05
0.0004424181713
0.0002217993957
2.009299141e-05
0.0002145976059
-2.867790088e-06
-0.0001782491456
1.382897089e-05
-1.487023681e-05
0.0002156388719
1.430475816e-05
0.0002175037752
3.743863567e-05
0.0002685681199
-0.0003060067556
0.0002116076013
1.468766939e-05
-0.0001888566351
-0.0002066650582
1.367206536e-05
0.0002064719885
-1.120340257e-05
9.541929614e-06
-0.0002050035852
-0.0001998722815
-1.492940524e-05
1.720301611e-05
-0.0002864686129
0.0002069070014
-6.32936575e-06
-0.0001833746195
-1.114606233e-05
0.0002082337087
0.0002055476814
-1.287723343e-05
1.291930905e-05
-0.000205589757
0.0002063723451
-0.00020644537
-1.309103517e-05
-1.578539937e-05
0.0002067397909
0.0002094913201
-6.686513076e-05
-0.0001721611138
1.690972451e-05
-1.562775986e-05
0.0002082093554
1.535789936e-05
0.0002061223564
0.0002046723015
-0.0002016374899
-1.307330019e-05
1.454553025e-05
-1.524404185e-05
0.0002053708131
0.0002061133349
1.120868556e-05
-1.534389829e-05
0.0002020656372
-0.0001979304245
5.941072098e-06
0.0002032091472
-0.0001979415338
1.278836687e-05
0.0002044482149
-0.0002020664331
1.001789967e-05
0.0002048369003
5.853963814e-06
-0.0001965292823
-1.67654368e-05
0.0002090684017
-0.0001863618928
0.0002712854855
-0.0002880509223
0.000207410945
-0.0002074593452
-1.335619371e-05
-1.708428779e-05
0.0002069301014
-1.357538775e-05
0.0002082269098
1.44702224e-05
-9.250645899e-06
-0.000174493257
3.024546574e-05
-6.777359629e-05
0.0002046855384
-0.0001671574079
0.0001980311268
-0.0001821280107
-1.021807905e-05
8.000182824e-06
0.000200618372
-1.476067813e-05
-1.484745074e-05
0.0002029038943
7.689125232e-06
-0.0002281393934
0.0001694980338
1.745993179e-05
0.0002944683056
-0.0002899996251
0.0002976887503
-0.0002060936884
1.441273332e-05
0.0002057140899
-6.560141065e-05
2.80736499e-05
-0.0001685659276
-8.983396067e-06
-1.769106562e-05
-0.00017728916
0.0002015202843
-0.0001824300304
0.0002044368295
2.716733854e-05
0.0002201864729
-0.0002233312858
-2.402252568e-05
3.827020365e-05
-4.105048528e-05
0.0002235408563
0.0002275065032
3.512283447e-05
3.166953055e-07
-1.121702357e-05
0.0002092360008
-0.0001983356725
-3.415355118e-05
0.0002091295486
-0.0001746593021
1.291555121e-05
-1.24735637e-05
0.0002099706586
-0.0002104126461
0.000209283893
-0.0002075853654
0.0002111252458
-1.257917242e-05
-0.0002109352329
1.336784373e-05
-1.356620109e-05
0.0002113236032
1.319190028e-05
0.0002112072907
1.356360424e-05
-1.3566965e-05
0.0002114918118
-0.0002115656003
0.0002115630035
-0.0002117199312
0.0002068840683
-1.263931619e-05
-0.0002063107952
1.438123341e-05
-1.531335636e-05
0.0002078161913
1.391523235e-05
0.0002078094846
1.614051534e-05
-1.631996321e-05
0.00020884055
-0.0002069141241
0.0002077412831
-0.0002042352449
0.0002132162031
9.983178951e-07
-0.0001801426076
1.29308539e-05
-1.239861579e-05
0.0002126839649
1.38636502e-05
0.0002124771928
1.280071863e-05
0.0002113458869
-0.0002116225138
0.0002120246166
-0.0002000631083
0.0002081752062
-1.161889482e-05
-0.0002082903151
1.266044806e-05
-1.294260493e-05
0.0002084573631
1.229787123e-05
0.0002082364291
1.338827118e-05
0.0002075861063
-0.0002077144418
0.000208160108
-0.0002077139468
1.322417309e-05
-1.480609215e-05
0.000210686905
-0.000209104986
0.0002097901313
-0.0002090395219
2.771336961e-05
-6.730581441e-05
0.0002123889004
-0.0001727964556
0.0002113557166
-0.0001984484392
-1.852443946e-05
-0.0001726819969
1.526110645e-05
-0.0002814875613
0.0002052705422
-0.0001674833232
0.0002072177989
-0.000281262659
-2.522553166e-05
-2.968038268e-05
-0.0001659726437
0.0002746882845
-0.0002999138162
0.0002205438899
0.0002887379256
-0.000290316519
2.548484945e-05
3.124996776e-05
0.0002320031083
0.0002305639383
2.433122515e-05
2.587276632e-05
0.0002680610223
-0.0002939337887
0.0002160940424
-0.0001589713083
0.0001998506882
-0.0001955326277
0.0002692138188
-0.0002868511284
0.0002022246972
-0.0001751820174
1.052873518e-05
0.00020498579
0.0002085378101
1.227441002e-06
2.870698783e-05
0.0002067266965
-0.0001688564004
-0.0002844012699
0.0002020780855
-0.0001828649058
1.649437942e-05
3.624751522e-05
0.0002184471573
-0.0002138455364
0.000215469679
-0.0001807219857
-0.0002132576023
1.314201533e-05
0.0002142000305
-1.638766834e-05
1.473766741e-05
3.558339036e-05
-2.102601581e-06
0.0002100316219
-0.0001932413509
0.0002147661593
-0.0001806212457
0.0002104490425
-1.355612257e-05
-0.0002086146974
1.284695568e-05
-1.261108504e-05
0.0002102131719
1.324848992e-05
0.0002109638433
1.258521575e-05
0.0002094188535
-0.0002095459779
0.0002095201086
-0.0001941363491
0.0002112206614
-1.247908643e-05
-0.000211109378
1.353993289e-05
-1.35169121e-05
0.0002111976406
0.0002111139725
1.33047403e-05
0.0002112879389
-0.0002115814819
0.0002113693101
-0.0002118865215
0.0002057764307
-0.0002044579174
-1.350107965e-05
1.261035056e-05
0.0002068921464
-1.372606625e-05
1.164568279e-05
0.0002084760121
1.180351229e-05
0.0002043078659
-0.0002036418051
-0.0002033864235
-0.000272112166
6.731891479e-05
0.0002138764013
1.648725417e-05
-0.0002885994202
-5.51011846e-06
-0.0001884224527
0.0002112201368
-0.0001730947854
-1.547272136e-05
0.0002118070387
-0.0001895899414
0.0002715615175
-0.0002870342388
0.0002139659285
-9.556458035e-06
1.496405819e-05
-1.244245141e-05
0.0002114443217
0.0002106090528
1.133038587e-05
0.0002100036834
-0.000211992462
0.0002108803965
-6.731063946e-05
2.964143549e-05
-0.0001699387413
0.0002103316751
-0.000268100385
0.0002076224248
1.7645172e-05
-0.000285745557
6.379460758e-06
-1.446606194e-05
-0.0001917856803
-0.0001809789525
-0.0002016927538
0.0002051821195
-1.421982407e-05
-0.0001938022955
-0.0001871944253
1.288115923e-05
0.0002070173277
-1.245560296e-05
-0.0002113448209
0.0002085982203
0.0002118761235
-1.445411435e-05
-0.0002111173464
1.390666885e-05
-1.41460619e-05
0.0002121155166
0.0002118541618
1.323564284e-05
1.4212113e-05
0.0002119550165
-0.0002123024554
0.0002123685065
-0.0002118802631
1.326098698e-05
-0.0002098451336
-0.0002108857717
-0.0002086134846
1.26065235e-05
0.0002104356438
-1.312632999e-05
1.017288368e-05
-0.0002056600383
-1.723171855e-05
-0.00020495252
2.37352799e-06
-0.0001811908807
0.0002104389656
-0.000197892554
0.0002117690044
-3.484078548e-05
0.0002141665995
-0.000180742226
-3.623389894e-05
-0.000193928014
0.0002677548382
-0.0003039887371
0.0002162946003
0.000208834847
-1.142222728e-05
-0.0002082937549
1.159979629e-05
-1.191218629e-05
0.000209147237
1.163416826e-05
0.0002098779214
1.212513656e-05
0.00020890585
-0.0002089656456
0.0002091785959
-0.0002089743548
0.000212865986
-7.516922621e-06
-0.000192880041
1.110695228e-05
-1.080564018e-05
0.0002125646739
0.0002136983093
1.125665233e-05
0.0002101627292
-0.0002102623561
0.0002107133682
-0.0002067519484
2.97020324e-05
-6.708266544e-05
0.0002102083013
-0.0001728276682
0.0002048008692
-0.0001904427351
0.0002074431916
-0.0001842195042
8.951027088e-06
0.0002085100642
0.0002124833994
-0.0002024445045
1.345020777e-05
0.000204205264
-1.258194878e-05
1.177130682e-05
-0.0002016338626
-1.581258317e-05
-0.000199713573
-1.031728723e-05
-0.0001995241897
0.0002024526737
-0.0002009986541
0.0002043772258
-0.0002131898295
1.652069975e-05
0.0002103129477
-9.7612101e-06
6.785686611e-05
-1.063370238e-05
-2.987798947e-05
-0.0001914605644
0.0002103035234
-0.0001723246467
0.0002088471315
0.000200922102
-3.030637497e-05
-0.0001852843194
1.539712274e-05
-1.816038537e-05
0.0002036853646
1.161267356e-05
0.0002029829948
1.755331109e-05
0.000207622705
-1.491259419e-05
-0.0002069581174
0.0002063510431
-0.00016938504
2.984128618e-05
-6.741425191e-05
0.0002069685814
-0.0001693956156
0.0002014686472
-0.000186093423
9.738266255e-06
0.0002059932534
-0.0002674923338
0.0002098163482
-0.000285212402
0.0001987015087
-0.0001785441597
0.0001280541656
-1.356953855e-06
4.085623174e-07
-3.059625153e-09
0.0001261113047
1.713903088e-07
9.396263909e-05
4.69403293e-07
-3.370090877e-07
-0.0001085300475
0
-7.894671526e-08
4.016003681e-10
7.67084347e-05
-4.732505687e-07
2.33170569e-05
9.411665066e-07
-1.953925801e-07
-3.974431542e-05
0
0
0
1.069439631e-05
-6.932847579e-08
0
2.642408393e-09
0
-1.217188162e-07
0
0
0
0
0
0
0
0
0
0
0
0
0
0
0
0
0
0
0
0
0
0.0006437034937
-2.07661933e-05
1.275803786e-05
-3.402388067e-06
0.0006423181294
1.137089435e-05
0.0005714647908
-8.362251004e-06
3.885979609e-06