/*--------------------------------*- C++ -*----------------------------------*\
| =========                 |                                                 |
| \\      /  F ield         | OpenFOAM: The Open Source CFD Toolbox           |
|  \\    /   O peration     | Version:  v2012                                 |
|   \\  /    A nd           | Website:  www.openfoam.com                      |
|    \\/     M anipulation  |                                                 |
\*---------------------------------------------------------------------------*/
FoamFile
{
    version     2.0;
    format      ascii;
    class       volScalarField;
    location    "2";
    object      nut;
}
// * * * * * * * * * * * * * * * * * * * * * * * * * * * * * * * * * * * * * //

dimensions      [0 2 -1 0 0 0 0];


internalField   nonuniform List<scalar> 
3259
(
1.039808474
1.078906486
1.15658564
1.156403388
1.15624662
1.156146657
1.156075328
1.156048448
1.155827563
1.155841207
1.155865407
1.155891813
0.9563495764
0.9751209654
1.083599505
1.157308705
1.156479706
1.155893386
1.155447503
1.155254797
1.154966629
1.15500948
1.155081809
1.155160779
0.7490290208
0.7704870992
0.8613972066
1.029077095
1.157401881
1.156050156
1.155059904
1.154587529
1.154176634
1.154185229
1.154288349
1.154419746
0.5111525765
0.5317737212
0.6108437363
0.7527879664
0.9784944221
1.157007795
1.1551211
1.154153784
1.153431729
1.153399306
1.153508241
1.153679501
0.3051920076
0.3266389433
0.4034640126
0.5325175996
0.7287966839
1.027027272
1.155857676
1.154048238
1.152856162
1.152644408
1.152723322
1.152922003
0.15267958
0.1791646994
0.2560086192
0.3754890431
0.5529247482
0.8149684748
1.157392804
1.154350272
1.152445852
1.151945867
1.151947684
1.152149123
0.0560693338
0.08870244909
0.1655335521
0.2761950367
0.4369630409
0.6657283459
1.032033656
1.155136102
1.152178589
1.151299362
1.151164822
1.151348339
0.05100490877
0.1252033585
0.2239073934
0.3694747522
0.5794885007
0.9152198233
1.156336693
1.152122457
1.150745374
1.150407709
1.150543616
0.06264958904
0.1226995644
0.2084413633
0.339964705
0.5319432177
0.8433491683
1.157807032
1.152273192
1.150303355
1.149716371
1.14978656
0.08830180007
0.1398535315
0.2179363959
0.3409908636
0.5207788726
0.806765617
1.154934253
1.152667072
1.150055065
1.149171287
1.149151325
0.1203410872
0.1695412429
0.2458631069
0.3631722537
0.5318214766
0.8000739491
1.113045566
1.153273241
1.150012368
1.148827961
1.14871103
0.1574333683
0.2116769672
0.2912624258
0.4090323392
0.5688116687
0.8196805404
1.103301224
1.154118112
1.150222415
1.148734135
1.148515457
0.05593446257
0.04398548391
0.08111093481
0.05893462188
0.1138760345
0.08498583211
0.144376815
0.1187011116
0.148314666
0.056344922
0.04539561554
0.08429751294
0.02845715134
0.01899611106
0.06009878931
0.1038941398
0.1057475469
0.0283587614
0.04221183488
0.08489425537
0.1198465898
0.106381268
0.04985793886
0.03527446121
0.1162328135
0.1478825367
0.1258911315
0.09428130269
0.06868133166
0.01673764658
0.1355599297
0.1282116825
0.04335410915
0.02970910274
0.04770452101
0.03150860972
0.04839184585
0.03491684359
0.02820384113
0.07048127841
0.04187538254
0.04751896239
0.04965854869
0.04209449709
0.06895799121
0.06530284774
0.05111873949
0.1014708133
0.07063165166
0.09120977666
0.04800426714
0.06793042735
0.09715119127
0.1242724833
0.09828581399
0.01285929852
0.0120134942
0.1375201115
0.01881340343
0.01634065891
0.00828558933
0.009471729844
0.1504778949
0.1849418524
0.1562464812
0.0114349403
0.0545500705
0.04713398269
0.02177918153
0.02981960142
0.04611362082
0.04564710582
0.03276845371
0.1331158919
0.1209443971
0.1321772535
0.09452451653
0.117556066
0.1299691661
0.02230327424
0.0191679656
0.02939288831
0.02127127146
0.01506904703
0.02265062089
0.01931980811
0.009860251995
0.01619715365
0.02145522647
0.03623540256
0.03684790833
0.04256601333
0.04154140878
0.016828124
0.009980594711
0.08280783224
0.01413879648
0.02571430484
0.00941171932
0.01231395766
0.07904541392
0.06991042501
0.05848580756
0.01110945382
0.03968698947
0.03882899308
0.03342679097
0.03316438842
0.04512486678
0.06825361308
0.0636178097
0.07467364991
0.06992099436
0.04539510638
0.05038749527
0.05579063444
0.050624851
0.06196595574
0.05723309534
0.04944679556
0.06152689045
0.009264391479
0.06026629354
0.0273269105
0.04014701784
0.109804427
0.03058998189
0.01811219418
0.007539365307
0.07396460863
0.003601731034
0.01762430186
0.01356554123
0.005841012424
0.01231018153
0.01072058573
0.009280372193
0.008428384503
0.01237899615
0.00875666764
0.03066390635
0.01298540812
0.01218708827
0.03948554925
0.04630498425
0.01322321488
0.01823403025
0.008934286058
0.009032074947
0.03691455114
0.04595349408
0.01474289993
0.0130975239
0.03778883415
0.04236338491
0.03801085771
0.04897548638
0.04391711785
0.03945424512
0.03415405175
0.009117638877
0.008960775109
0.02945616292
0.01935043013
0.02114191514
0.05469531312
0.07885263147
0.101620454
0.09404442761
0.05408034249
0.08220590744
0.07657406483
0.09129003998
0.08441474043
0.05519838205
0.1137380803
0.04235003234
0.05819790902
0.01149818414
0.01202660723
0.00629923249
0.01161483605
0.009481636777
0.009300775939
0.02587933943
0.01977534527
0.007379277126
0.01099284811
0.007098430896
0.01156402108
0.01054579806
0.01263559374
0.03832842448
0.01044849705
0.01043381334
0.01475204035
0.02170488499
0.01805054945
0.02693638799
0.02284553722
0.01760083285
0.01573159047
0.01235725696
0.01119757242
0.008743053921
0.03246957382
0.03883733085
0.01196159252
0.01130990205
0.01241989161
0.01288701429
0.04511871685
0.00886731952
0.008861815766
0.010770436
0.009001801569
0.008851135372
0.03800264998
0.008826882763
0.01222001921
0.01207479232
0.01106579728
0.01864989806
0.04838037805
0.04355751272
0.0103466682
0.03521914745
0.03003001668
0.04181325197
0.03717233539
0.01063669389
0.0114950856
0.03371859781
0.02820654519
0.0207810342
0.01968049277
0.04468111631
0.01415387327
0.01423556186
0.01111780061
0.02079148188
0.0246841924
0.01477698418
0.02097921083
0.03441898973
0.0286872992
0.02181448473
0.009451712284
0.009213967258
0.03394070366
0.03071649294
0.009247432884
0.009544806164
0.02203956013
0.01872328259
0.02852992311
0.02383219204
0.006517825075
0.01200250858
0.01123001417
0.01747931586
0.01228164157
0.006885634133
0.02540194958
0.01021343989
0.01029413587
0.01010733359
0.02363794151
0.01151344307
0.05232157576
0.1108985349
0.1434813644
0.0110251139
0.0106896582
0.1962188055
0.007275850929
0.1364344383
0.1422587635
0.1596758398
0.004738956604
0.007255727801
0.005352087558
0.0048592543
0.005687003216
0.004451209249
0.05577111104
0.03481952323
0.02205288147
0.02525296707
0.02310019023
0.02702433848
0.04091888022
0.03560490254
0.01216020862
0.06201686176
0.07352517187
0.133896406
0.0279709962
0.02973434596
0.03285757155
0.01149092221
0.01148204558
0.01179137897
0.01150773388
0.04243766441
0.01499195731
0.009657865912
0.0113231248
0.01098259978
0.01136850111
0.02165775539
0.0269024582
0.05436056079
0.03664224864
0.03345033668
0.02467914788
0.04021543809
0.01421566046
0.01958055635
0.02266889808
0.0143890521
0.009945643191
0.01756472942
0.01930346265
0.01780257902
0.01385592809
0.01725818294
0.01540792138
0.01031890413
0.01080989909
0.006541350294
0.009637714245
0.01029205115
0.05499150356
0.04992893862
0.02029534878
0.009310094944
0.01248399081
0.01149108743
0.01122452896
0.01348107124
0.01222889587
0.009132046888
0.009116973129
0.01116524836
0.01076351582
0.009246157689
0.00898689364
0.006631689512
0.05592770162
0.02199888931
0.02704329959
0.01120190369
0.0111542926
0.01113265634
0.01075869143
0.01094670588
0.01476020483
0.006417654086
0.004108643147
0.007558000671
0.01135832559
0.01074722308
0.0108197572
0.01060951853
0.01082644905
0.01075631576
0.01003122441
0.006609023964
0.005234721629
0.01117585225
0.0114941346
0.01082392194
0.01091483373
0.01263229116
0.01938610518
0.01964561239
0.01899836325
0.01921084153
0.01251251211
0.008891842231
0.01460937602
0.01459934075
0.01508378549
0.01471539526
0.008800551237
0.01397946387
0.02184121133
0.02429442045
0.01992900486
0.02057045733
0.01353888271
0.009093703042
0.01463698432
0.01464937557
0.01457209441
0.01462065908
0.0090234328
0.01048012445
0.01065736208
0.01012166135
0.01061378477
0.0115099662
0.007986437397
0.01151773047
0.01129559437
0.007881744677
0.01084901081
0.01138911656
0.01481700122
0.004526410815
0.009112066408
0.00699136221
0.006708234738
0.007409121356
0.009519205804
0.00647763983
0.01101431105
0.01093590556
0.01091761772
0.008294010548
0.01065865832
0.007029925754
0.0105929762
0.01825403835
0.01981498956
0.01846956744
0.02625149624
0.02251727398
0.01747375853
0.01640882399
0.01769955534
0.01073079927
0.01711611314
0.0181143176
0.0123341439
0.01706557103
0.01152256769
0.01174064599
0.01861904079
0.0188081554
0.01819281295
0.01845983403
0.01157577773
0.01259219781
0.02187605024
0.02148613997
0.008896272085
0.008874565932
0.009669945611
0.007080840795
0.00885442058
0.008844004625
0.008754258666
0.008240819844
0.01011165119
0.01808687736
0.01615399758
0.02089751386
0.01981925128
0.0114791597
0.009682407671
0.01014889994
0.01359091142
0.006616089076
0.00994770554
0.009900089502
0.01086348042
0.009681787722
0.009852890007
0.01617472221
0.01437045626
0.009696676293
0.02071249416
0.02980620151
0.03026068587
0.02707489216
0.02800634875
0.01951195454
0.01339116097
0.01439661073
0.02221043949
0.01570233942
0.01490308842
0.0168163503
0.01592359939
0.02253508095
0.01521354494
0.01588523651
0.01247844054
0.016283023
0.009346138807
0.01473605322
0.01477203688
0.0146942107
0.0147313076
0.009301274722
0.009591991586
0.0137487096
0.01198142729
0.01470971431
0.01447063088
0.009584004446
0.009123835545
0.009261670614
0.009079678806
0.010387823
0.009623647913
0.01164924512
0.009036375021
0.009038313575
0.008932638793
0.008985712621
0.01158572477
0.01564153997
0.009588312945
0.01050704194
0.009141282955
0.008980541962
0.01354167101
0.01036278224
0.01102046221
0.01080858526
0.0132181498
0.01179305627
0.01038225219
0.009951523282
0.0101066775
0.01042274248
0.0103133995
0.006740323655
0.01159324145
0.8108295241
0.9592306509
0.8077800523
0.8187160679
0.9680361843
0.8281018905
0.8963622054
1.06450114
0.9228052376
1.05261891
1.15755235
1.098169302
1.157416462
1.156657509
1.157069922
1.156169612
1.156015186
0.5727391069
0.7531434888
0.5693244181
0.5795987298
0.759958043
0.5901487382
0.6452147042
0.8333941291
0.6711310859
0.7743607902
0.9810968665
0.8182158793
0.9865256254
1.157870641
1.05601402
1.157140806
1.156323954
0.3560730294
0.5147772572
0.3520268849
0.3623755285
0.5213005856
0.3729948341
0.4252097867
0.5856099827
0.4491963729
0.5427568126
0.7105497688
0.5807590811
0.7273177102
0.9140569293
0.7850685325
0.9908104342
1.157606155
0.1896402306
0.3093075475
0.1857159814
0.1986520382
0.3157185636
0.2103790136
0.2641084844
0.37961879
0.2870217557
0.374624478
0.4939467763
0.4087741308
0.5384209681
0.6733081695
0.5904260838
0.7796441955
0.929699938
0.06730892546
0.1568307522
0.06723260774
0.09405806602
0.1666426998
0.1061227596
0.161037679
0.233011674
0.1833071661
0.2642386943
0.3411489095
0.296245
0.4140715417
0.5018135763
0.4611271465
0.631101158
0.7380117894
0.02748210074
0.03585860136
0.06035938882
0.06861281871
0.09086803391
0.1062590322
0.1310022472
0.2038221108
0.2446681264
0.2330833085
0.3396573831
0.390976724
0.3823998403
0.5363628457
0.6017380716
0.05198783179
0.0739953502
0.07645750847
0.1209595072
0.1834704947
0.1954627984
0.2094425819
0.3053351951
0.32774079
0.3441765735
0.4853921332
0.5199408483
0.07210156308
0.08789391145
0.08143123271
0.134183419
0.1894090235
0.1831254523
0.2122444921
0.3021321111
0.3019064833
0.3387207804
0.4732234431
0.4781542544
0.09983298422
0.1143407214
0.1038784104
0.1610845403
0.2145277253
0.1946077092
0.2369795446
0.3211726214
0.3045658865
0.3552160199
0.4782040401
0.4731092238
0.132819848
0.1491063402
0.1355909531
0.199799115
0.2553855412
0.2233346537
0.2784291867
0.3619379187
0.3294402428
0.3952554044
0.5115533917
0.4854363192
0.1657387249
0.1826867841
0.1710806379
0.268092671
0.3755947379
0.5251591136
0.05281105981
0.04672370087
0.05134549838
0.03698438231
0.03709971099
0.04385565707
0.07768629566
0.07289134531
0.07763543747
0.05294798021
0.05857421354
0.06136194322
0.1098740151
0.1073356194
0.1116920772
0.0798833174
0.08472773808
0.08886506615
0.1413061582
0.1377396911
0.1400300771
0.1156969076
0.1197888338
0.1228455233
0.142521688
0.145309035
0.1513239083
0.003002014123
0.003737380626
0.00373544503
0.02933859121
0.003077441123
0.002756811308
0.04756172724
0.0402970141
0.0376435069
0.0650497692
0.04061637317
0.06120112755
0.02762431517
0.02693632449
0.02798145053
0.016388343
0.01668747671
0.01933296646
0.07864601316
0.07531851961
0.05335683892
0.1027376149
0.08728708614
0.08933115721
0.08884031285
0.08702412826
0.1032469305
0.02870677712
0.01780824442
0.0176144968
0.02955989881
0.02893143899
0.04112847211
0.09981147534
0.09130499545
0.07429819383
0.114477653
0.1023434502
0.1082780251
0.09274742348
0.09715406036
0.1099787406
0.04861238552
0.03770186175
0.03910045712
0.02447773985
0.02463913917
0.03564929081
0.131016866
0.1187411885
0.1038873651
0.1399803428
0.1294436734
0.1375333021
0.1146684629
0.1217688832
0.1326721751
0.09048650175
0.06595638771
0.06970600293
0.04123069966
0.04574640912
0.0719593582
0.0254426607
0.0233773141
0.01495524054
0.1344406397
0.07769146789
0.09010403517
0.1061953048
0.1101890832
0.1303757517
0.04501071726
0.03140534682
0.03022947874
0.02918977196
0.03024194452
0.03049151734
0.04096231101
0.04511827158
0.05020326351
0.03338485061
0.03474015394
0.03295571193
0.04643529621
0.04452398786
0.04511089481
0.03464732075
0.02424625539
0.0243138881
0.01755812578
0.01751905889
0.02824362616
0.06595981785
0.06997833198
0.07810042331
0.04256213672
0.06807064739
0.06271594363
0.07651787971
0.07485176023
0.04639587911
0.05337299845
0.05060423883
0.04846539441
0.06163052615
0.05825629257
0.04438292124
0.06186147334
0.059400424
0.06407565385
0.06221020539
0.03483215237
0.03968291398
0.04035497564
0.04142668892
0.05229988068
0.09715758448
0.1031715141
0.1058310958
0.07316536143
0.09752613613
0.09496645623
0.109566332
0.1043191586
0.08203453904
0.04992567671
0.08001556231
0.07824770777
0.09231759461
0.08904820232
0.0596055022
0.09291160592
0.08762094956
0.09344689932
0.1211342689
0.09778271851
0.1018893896
0.07327970072
0.07711331081
0.1021157615
0.09456173463
0.02773329642
0.007221911887
0.009078161795
0.008844119082
0.1601687984
0.156716445
0.1367825754
0.174552098
0.163968802
0.1737820247
0.1459574505
0.1544728133
0.1652607201
0.05099497379
0.02884643784
0.03439280453
0.03898817587
0.04022494655
0.04925923835
0.02356529409
0.03215471641
0.03190829892
0.03126557506
0.02979764515
0.02805985486
0.0445895855
0.0373974176
0.03931299929
0.0437317169
0.03515374338
0.03681769407
0.02363258017
0.0255217435
0.03442489337
0.1315604802
0.1351692414
0.1368877954
0.128938512
0.129701883
0.1307962972
0.1370483598
0.1336369592
0.1330167865
0.1043797985
0.1180879652
0.1133910731
0.1267145066
0.1204267229
0.107823144
0.1264804516
0.1237777184
0.1274252584
0.01202206884
0.01988504263
0.01696419161
0.01634582548
0.02661500852
0.01657839912
0.02531634278
0.01163921268
0.01461855076
0.02368857354
0.01951004894
0.02214102666
0.02418194513
0.01106700068
0.01511502473
0.01355936159
0.01630785687
0.01483974779
0.01524780894
0.0200283766
0.01786322601
0.01887234483
0.0261825089
0.02517786844
0.0353152168
0.03754318585
0.02694976427
0.02638799478
0.03208772889
0.0327398424
0.04333949283
0.04050471774
0.03006742932
0.0312466447
0.05907418773
0.06251851541
0.08653471518
0.0159841069
0.02471200911
0.02284385788
0.03530075357
0.0337710274
0.02410161983
0.02092396312
0.01943057231
0.01130190132
0.07567240071
0.04756651757
0.0502536628
0.06601132275
0.04844663597
0.05205843064
0.03654335772
0.04046442412
0.06207725714
0.03912276453
0.04082734895
0.0414374331
0.03785910077
0.03679730781
0.03762624527
0.02395064916
0.02398554357
0.03359117385
0.03272273071
0.02338511488
0.02379142168
0.06960690576
0.06788894376
0.04336120856
0.06684837954
0.06667255944
0.0684871419
0.06261033988
0.06344408117
0.06520900959
0.07309945331
0.07333241107
0.07500059234
0.07005653193
0.07168409923
0.07149813679
0.04609339962
0.07319447619
0.07150132665
0.05507020942
0.05279633178
0.05345109393
0.05408308796
0.05274824028
0.05457404275
0.04909203801
0.05091318672
0.05236563991
0.06049456653
0.06059980338
0.0614283083
0.05622457597
0.0586505111
0.05883956291
0.04574670405
0.05875889914
0.05733991591
0.02869218628
0.03300734168
0.06885230321
0.05867065717
0.04745433518
0.04867239847
0.0328712479
0.05592617764
0.05618512698
0.06303396542
0.05953551625
0.03475171661
0.1060961825
0.08112344796
0.08516703138
0.02879902003
0.01953336193
0.02154097698
0.01097474363
0.01189742628
0.01975025337
0.05593353954
0.01589502704
0.011084846
0.01151195126
0.01074674241
0.00825318742
0.005635793094
0.009192719946
0.01273148886
0.007068517535
0.008434316411
0.008660056685
0.007409272124
0.00713671905
0.01065323664
0.00762083011
0.01049824909
0.005508241924
0.006595159129
0.009427287462
0.01944729268
0.01828998568
0.02940492022
0.04034497214
0.02851657029
0.02800429522
0.03503864477
0.03628922679
0.04736628232
0.01443465101
0.02470493791
0.02343790685
0.02818247057
0.02644336607
0.01647693961
0.03620068382
0.02499567427
0.02560009142
0.03565908032
0.03310181576
0.04677146758
0.03932316734
0.03673810751
0.03526614564
0.04085937686
0.0383363495
0.04002839943
0.03501482305
0.03662094654
0.03947495507
0.04730461698
0.04552398435
0.0473153772
0.04170147215
0.04362633949
0.04565363735
0.04371208424
0.04265477851
0.04094175188
0.02409909876
0.02415223002
0.03437402315
0.02857381038
0.01782832056
0.01874481804
0.02002961944
0.03063458165
0.02959673535
0.03252634375
0.03161395251
0.02057571401
0.05347298207
0.04249376084
0.04350885372
0.1024034036
0.100018466
0.07605258882
0.09928516276
0.09851490183
0.1010853226
0.09331186523
0.09590835183
0.09646839165
0.08334999927
0.08172059147
0.05093890601
0.08035825003
0.08029765723
0.08210798308
0.07674470506
0.0785194666
0.07835235836
0.08899111598
0.0883607367
0.09078807503
0.08403941004
0.08619045649
0.08650042888
0.05788868395
0.08702375333
0.0851142315
0.08933978023
0.09348886466
0.1172099488
0.0461643551
0.07053657116
0.0668924918
0.07853069299
0.07444953848
0.05463118289
0.01016204497
0.01005489451
0.01273436881
0.0240562203
0.01544692792
0.01715959757
0.01257292898
0.01393303451
0.02191084747
0.007233384914
0.0107628883
0.01673157558
0.01506367987
0.02061917571
0.01854024613
0.01142447338
0.03676669192
0.02745186107
0.02942938081
0.02027550709
0.02023759841
0.02221728105
0.01720249234
0.01880124848
0.01917162232
0.02303219438
0.02255533698
0.02441947154
0.01669794023
0.01515558786
0.0162956384
0.01431096513
0.01456815277
0.01601170931
0.01372885497
0.01347000719
0.01283076851
0.03406382142
0.02423814125
0.02179230467
0.02767489675
0.0272046862
0.03809034129
0.02271241266
0.02224319887
0.01263085169
0.04431229919
0.03338488045
0.03411182203
0.02684507744
0.02847256376
0.03919797489
0.02794729661
0.02645032093
0.01744976401
0.04681118304
0.03673398138
0.03840213352
0.03290693669
0.03480264932
0.04513476745
0.0335346258
0.02312718317
0.02486318607
0.01988838815
0.02129434876
0.03156140902
0.04042808158
0.0293062297
0.03096609913
0.02646717037
0.02779601052
0.03851741848
0.0110441265
0.01838052286
0.01741189412
0.01646677935
0.01482121174
0.01110145722
0.03219700739
0.02346000011
0.0255295047
0.01935005285
0.02140207024
0.02988891754
0.04316431299
0.04002473305
0.03793213178
0.03445327282
0.03602402732
0.03552562822
0.02596290172
0.03526039046
0.03460834503
0.03230053993
0.03371046586
0.02293092354
0.03377308203
0.02403038312
0.02404960722
0.02065232142
0.02242032613
0.0319027356
0.02064111154
0.01172536708
0.01279939083
0.01094587447
0.01136770968
0.01964332329
0.02720831629
0.01791285404
0.01884863905
0.01483194252
0.01666042191
0.02560984675
0.01650698969
0.01780574638
0.02696042064
0.02172853688
0.01330416847
0.01506407088
0.07829770055
0.08228498182
0.06429447207
0.1186097873
0.1002335065
0.09188045159
0.1237323777
0.1102726277
0.1295683418
0.1835380826
0.1941596558
0.2088291109
0.1326749192
0.1430941611
0.1398439393
0.1479218705
0.1454425498
0.1391985936
0.005412568163
0.003896324773
0.003626318504
0.006446108105
0.005512508663
0.006115569167
0.004404388397
0.00426357489
0.006185434659
0.004104869145
0.0037683542
0.003177396409
0.004887822476
0.003777864474
0.00490187993
0.003549525624
0.003608427905
0.00442981176
0.0298884173
0.03665305491
0.04103168212
0.03223584178
0.03249616427
0.02749669644
0.0252471368
0.02593452179
0.02608980349
0.02422892774
0.02555436299
0.02481429213
0.0275183533
0.02621668648
0.02577309193
0.03904591237
0.03165720905
0.03344656954
0.02762434954
0.02969396866
0.03726096111
0.0133711638
0.0210135907
0.01870795481
0.06563655813
0.08683051794
0.08266051561
0.09536787397
0.09116215443
0.06957786217
0.02923083958
0.03004736647
0.02875727577
0.03297441911
0.03133355482
0.0308594479
0.0319140568
0.03147740184
0.03291309803
0.03543830965
0.02333675784
0.03185256384
0.03039163893
0.03542085044
0.03401906662
0.02504878935
0.05047324859
0.04299915512
0.04267941915
0.03532782952
0.0321544412
0.03350710797
0.02591754678
0.02834151226
0.02725723288
0.03138234331
0.03319260317
0.04202298247
0.01573905164
0.02456020785
0.02274538759
0.02830568207
0.02656005303
0.0176203201
0.01970999898
0.01795241937
0.02121868402
0.01283735393
0.01533982616
0.01690568971
0.01359841208
0.01434126411
0.01147931761
0.05306332344
0.04404991379
0.04523603291
0.04034887688
0.04191996142
0.0516179296
0.0221287853
0.03154698824
0.02984087833
0.04472788242
0.04592543116
0.05734045401
0.02331662598
0.0351403155
0.0337510215
0.038456159
0.03695195913
0.02521396215
0.00924551549
0.00814287221
0.009632360401
0.005898459155
0.006854574508
0.00765136789
0.006143905155
0.006325771543
0.005160324361
1.005176671
1.011604754
1.046458805
1.040945746
1.095676237
1.138276648
1.157426586
1.157148065
1.156477876
1.156789781
1.15651402
1.156320625
1.156283552
1.156096226
1.156186924
1.155942784
1.15583643
1.156100938
1.155742362
1.155679706
1.156057894
0.9144979933
0.9099452719
0.9550068777
0.9293945555
0.9615992796
1.004658581
1.03194304
1.100772031
1.152336548
1.15770231
1.157364062
1.157076291
1.156620465
1.156387084
1.15630492
1.155948903
1.155446705
1.155580947
1.155202231
1.155026684
1.155332938
1.154903414
1.154840887
1.155213644
0.6892902665
0.6885057701
0.7482883648
0.7106026865
0.7265868483
0.7877369793
0.7977142586
0.8311831392
0.8976248013
0.9578135987
1.014248863
1.090114294
1.15785604
1.157354135
1.156999793
1.156651245
1.155546156
1.155450273
1.154997401
1.154615465
1.154784005
1.154344406
1.154189701
1.154464907
0.4552817052
0.455073598
0.5110550907
0.4758707159
0.4899199191
0.5460949309
0.5534726398
0.5818755765
0.6399889647
0.6913762274
0.7378657864
0.8006217081
0.9087385815
0.9802077624
1.050790391
1.07096979
1.156359322
1.155907078
1.155348075
1.154595275
1.154556267
1.154063735
1.153730836
1.153886427
0.2618869346
0.2616970421
0.3049620951
0.2844717374
0.2988964157
0.3411702807
0.3606672357
0.3875540935
0.4307211487
0.4890224086
0.5291322919
0.5756541879
0.6779154166
0.7372097431
0.789675595
0.8480383421
1.096893369
1.157307586
1.15644407
1.15510878
1.154793225
1.154153983
1.153485287
1.153570093
0.1235858041
0.1239721245
0.1529339342
0.1514923434
0.1669819887
0.194852522
0.2287489966
0.2533987125
0.2820657752
0.3459081762
0.382448598
0.4137014792
0.5191903857
0.5728427004
0.6089069914
0.6879297972
0.917400275
0.9986101409
1.111957894
1.156244668
1.155628493
1.154694161
1.153552578
1.153449373
0.04534777779
0.04580485417
0.05625576147
0.1508332926
0.174237598
0.1895816388
0.2592397022
0.2931134126
0.3112450754
0.4158771202
0.4647962431
0.4870870617
0.5935840197
0.7932506115
0.8508908662
0.966462433
1.157944277
1.15708226
1.155697962
1.153974933
1.153670479
0.05095896978
0.05853531629
0.05885098947
0.1219297453
0.1420682069
0.1462879187
0.2170365076
0.2475464649
0.2552785312
0.3588959123
0.4036634867
0.4152984749
0.5396280936
0.7116543689
0.7462815676
0.8749413964
1.065645901
1.111928974
1.15703277
1.154718665
1.154266941
0.06600304269
0.07095897049
0.06824015946
0.1254331919
0.1427097975
0.1405153103
0.2089379373
0.2364028546
0.2365242007
0.3375241962
0.3787538044
0.3818342444
0.5245873436
0.6731786519
0.687678622
0.8209728012
0.9959765714
1.026593911
1.158603059
1.155739337
1.155167462
0.09196795539
0.09566988013
0.09217955283
0.1462183647
0.162195995
0.1560017367
0.2235977893
0.2493217939
0.2437785235
0.3447480208
0.383427042
0.3815399687
0.5243000462
0.6650137727
0.666339222
0.7998823143
0.9567639554
0.973134445
1.125730021
1.15698209
1.156332682
0.1245447881
0.1288558037
0.1246199204
0.1787990482
0.1948473686
0.185601661
0.2550717613
0.2804798816
0.2708343123
0.37302543
0.4100713323
0.4006235721
0.5525570954
0.6831958368
0.6710767372
0.8069284057
0.9460397
0.948664089
1.093429802
1.158351847
1.157666723
0.1573565615
0.1652759236
0.1597470662
0.2249063748
0.2423808633
0.2286693742
0.3061575972
0.3318067545
0.3171100094
0.4233383298
0.4592226096
0.4451322065
0.7004640048
0.9514506497
1.159072192
0.04655191344
0.06596813109
0.06378756826
0.05754590565
0.08892313196
0.08589972548
0.0812703813
0.1201101484
0.1159952215
0.1122180012
0.1351344506
0.1294175805
0.1308604676
0.04672682362
0.04587207017
0.04728128982
0.04180912116
0.05706613649
0.0571729325
0.0606542855
0.06017712192
0.04711002196
0.05097662412
0.04929290889
0.0483368483
0.05750144147
0.05795599335
0.04255651227
0.1102265664
0.1083652601
0.08801565836
0.04851948485
0.06171924657
0.06112816064
0.1350333004
0.1559847518
0.1519059067
0.1499265483
0.02205555154
0.02521308074
0.02523858582
0.1240906412
0.12653721
0.1250605796
0.1363358515
0.1349473501
0.1347337719
0.0977745908
0.1141199849
0.1125273984
0.1233692428
0.1225732913
0.1144424864
0.02382355641
0.02038347136
0.01834219386
0.0181713295
0.0181831174
0.02125201893
0.009786461954
0.01125485494
0.01134336521
0.05832600116
0.05818816162
0.04475372295
0.04560061702
0.05866382675
0.05853725289
0.05688977851
0.05608098056
0.05135481877
0.04838508783
0.05943851212
0.05868194088
0.05034098273
0.05128146133
0.06328372723
0.02907826635
0.03899134878
0.03751160513
0.04954550517
0.04768862917
0.03846032104
0.03708180033
0.03582411054
0.03590021255
0.04085088716
0.0402962454
0.03940498166
0.0667012619
0.06571955429
0.05313188488
0.05598237203
0.06861532017
0.06757558232
0.04364947652
0.05310308708
0.05102426401
0.06035381093
0.06175111902
0.05447873122
0.1342017192
0.139756161
0.1378347392
0.1556964003
0.1490833833
0.1533969486
0.04765771707
0.04349117165
0.05134257587
0.0254351903
0.02588291321
0.02289546258
0.1318270166
0.1143433467
0.1182037406
0.03018039775
0.03105672521
0.0345864527
0.01153814755
0.01179903504
0.01074960699
0.86581727
0.9143361732
0.8068029323
0.860830697
0.8646444317
0.8749837061
0.8620969403
0.8096460823
0.9572161325
0.9108337973
0.9260124185
0.8480183503
0.9072751345
0.8813038004
0.9599453856
0.920132328
0.8658205382
1.017007086
0.9695180428
1.019165855
0.9644971709
1.03374394
0.9797100956
1.127787095
1.058923634
0.9988082008
1.157769717
1.116786154
1.158002311
1.158221491
1.157776666
1.158140898
1.157093103
1.157423764
1.157848068
1.156865995
1.157115673
1.156837985
1.156732375
1.156528411
1.156813701
1.156067947
1.156295441
1.15643898
1.156157453
1.156204717
1.156015489
0.632563103
0.6933880145
0.569327049
0.6287999859
0.6290283725
0.639354368
0.6322249287
0.5726278446
0.7521089601
0.6923422257
0.6998294333
0.6047370949
0.6652252211
0.65003906
0.7070777369
0.683825589
0.6228961692
0.8068912096
0.7456052109
0.7701724336
0.7013106443
0.7653469085
0.7337774187
0.8413693685
0.8002126042
0.735161371
0.93406137
0.8670837534
0.9107310896
0.8682333092
0.9396725324
0.8868892578
1.06279782
0.9972297899
0.9234226635
1.14667968
1.073447506
1.139267297
1.127006221
1.157811371
1.128579322
1.156809212
1.157266039
1.157713375
1.156642387
1.156917711
1.15653351
0.406009003
0.4590731767
0.3517549971
0.4018421581
0.4020793461
0.4121770541
0.4052347688
0.3552324986
0.5143931985
0.4584508199
0.4654067363
0.3869715566
0.4368287279
0.4226895916
0.4752048549
0.4543205059
0.4043923909
0.5639556511
0.5075015439
0.5287326144
0.4765636501
0.5272802178
0.4994876071
0.5948196164
0.5587801984
0.5078527446
0.6729171397
0.6139851177
0.6503906137
0.6242388332
0.6801531228
0.6360122332
0.7829503113
0.728117318
0.6721108829
0.8541200015
0.7895207722
0.8449685464
0.8474748666
0.9112979038
0.8455670687
1.062995901
0.9829457688
0.9166676386
1.124253938
1.053872928
1.129382723
0.2261184302
0.2660670555
0.1858212896
0.2219139161
0.2219831516
0.2338642181
0.2259470662
0.1901228766
0.3085158985
0.2654740404
0.2731837351
0.2251223132
0.2603301907
0.245513915
0.2986128638
0.2779418176
0.2433093204
0.3588894371
0.3163358962
0.3368816324
0.3131025637
0.348084872
0.3220532298
0.4108008298
0.377497708
0.3425116
0.4610783424
0.4168959432
0.4500803195
0.4476999764
0.4862544401
0.4478529585
0.5789360552
0.5294012503
0.490665993
0.6206316209
0.5733664661
0.6241968788
0.647598491
0.6903954758
0.6322858964
0.824195635
0.7541920634
0.7108944448
0.8567822667
0.8030153617
0.8738924784
0.10090836
0.1257751308
0.07220259017
0.09825623142
0.0959348017
0.1135715163
0.1049325317
0.08296766483
0.1578395914
0.1289190505
0.1388656395
0.121722033
0.1432816466
0.1266763486
0.181588348
0.1612567903
0.1406632606
0.2128581769
0.1850545549
0.2055835866
0.2076467382
0.2287007757
0.204323113
0.2863023793
0.256334666
0.2344452585
0.3098670537
0.2812291439
0.3120959916
0.3318231472
0.3559496068
0.3197471345
0.4398819503
0.3962247561
0.3710327849
0.4554849943
0.4246428921
0.4698739203
0.5125290666
0.5412540399
0.4882201064
0.6637310718
0.5990510574
0.569032694
0.6704857839
0.6326590463
0.6991457356
0.02908012373
0.03685785576
0.03628504499
0.04262557648
0.03868846676
0.03182547336
0.05754193338
0.04744801215
0.05138935705
0.1529182391
0.1622501296
0.139406191
0.2147712037
0.1874006216
0.1772165159
0.2156866328
0.200094951