/*--------------------------------*- C++ -*----------------------------------*\
| =========                 |                                                 |
| \\      /  F ield         | OpenFOAM: The Open Source CFD Toolbox           |
|  \\    /   O peration     | Version:  v2012                                 |
|   \\  /    A nd           | Website:  www.openfoam.com                      |
|    \\/     M anipulation  |                                                 |
\*---------------------------------------------------------------------------*/
FoamFile
{
    version     2.0;
    format      ascii;
    class       volScalarField;
    location    "2";
    object      omega;
}
// * * * * * * * * * * * * * * * * * * * * * * * * * * * * * * * * * * * * * //

dimensions      [0 0 -1 0 0 0 0];


internalField   nonuniform List<scalar> 
3259
(
31.99540023
31.99371917
31.98778425
31.98094506
31.97531125
31.9710252
31.96916923
31.9676897
31.93384805
31.932697
31.93165079
31.9306884
31.99051421
31.98291684
31.95562116
31.92320304
31.89520712
31.8758781
31.84834412
31.84084369
31.80375218
31.8000903
31.79689969
31.79408826
32.03444691
32.0152902
31.95750309
31.88572446
31.82402172
31.77939347
31.734805
31.71850921
31.67645519
31.67027786
31.66468221
31.65996113
32.24170336
32.19610703
32.06633575
31.92044472
31.79430305
31.70754664
31.63519236
31.60433862
31.55354446
31.54329634
31.53488942
31.52809917
32.96337691
32.85119357
32.47856211
32.1229419
31.84113463
31.67429095
31.55685566
31.50067285
31.43492484
31.41929143
31.40742162
31.39823712
35.82711297
35.19796274
33.71303828
32.69516056
32.03576672
31.69589881
31.50181625
31.40997691
31.32201706
31.29757902
31.28124949
31.26941747
49.2655209
45.84687593
37.13497963
33.96146679
32.45965429
31.79887359
31.47245918
31.33403576
31.21476836
31.17874311
31.15666288
31.14170061
79.41943661
44.99908729
36.24566305
33.16413387
31.99280991
31.4754351
31.27088387
31.11402591
31.06308421
31.03378719
31.01538313
154.6889283
56.37887924
39.35649417
34.10306904
32.25959698
31.49985413
31.21894777
31.02018211
30.95201915
30.91410504
30.89170007
193.484645
66.17437755
42.43389713
35.06415223
32.54893965
31.54275966
31.17653126
30.93385761
30.84667615
30.79911004
30.77234848
192.5433498
71.60186655
44.58050482
35.83726247
32.81535201
31.58987254
31.14160021
30.85493384
30.74864124
30.69083512
30.65918095
177.1827196
73.11318992
45.60447484
36.32130577
33.0189848
31.62926358
31.1104502
30.78343376
30.65766993
30.58976952
30.55310079
183.5638116
90.16718797
234.2782384
190.6684862
229.2987946
236.0201434
205.4311454
226.3040954
202.1443343
48.78622212
82.22255645
45.43374144
583.7222542
195.0534341
146.1063054
62.1454822
49.70560525
2011.739654
1424.058917
191.2502902
76.74063068
66.29256522
1102.102886
1546.923442
193.9872195
84.61909475
79.39941959
601.722943
810.1369006
2427.951119
385.695631
449.2848056
1386.226783
616.8398828
143.4060481
492.3750061
963.5146959
1566.451877
2012.848534
215.3162103
1387.714373
1190.909038
996.177146
1384.170588
212.5031175
848.9131091
1076.799982
235.0035144
808.3899266
628.9926371
1177.237642
839.8442892
236.3202263
462.9721907
578.4582766
3406.028623
3819.101118
379.1178204
2133.194243
3573.796525
631.6297694
6203.66454
179.5799678
86.75566176
85.64281202
6060.286342
866.3752742
964.945552
162.2896629
434.863674
132.1970627
985.5248112
1268.056458
214.1932144
477.3193087
405.6886978
607.3695344
490.8051052
217.5545685
81.99223877
169.7504161
77.75012926
83.62126172
4995.009027
407.2188867
3518.921882
463.8484222
2573.521827
366.2481619
1633.943134
1612.118681
1283.956989
1315.121952
2466.047733
5267.00095
679.8943922
2996.132372
1606.399966
5935.691426
3505.317725
710.3792635
726.904773
825.5514675
5488.092483
971.0339987
918.9768957
1670.921884
1689.48961
1271.786205
423.0361089
412.5863193
424.6385023
424.7197279
1261.630231
1175.404866
375.8426865
343.956302
407.1323533
385.2646193
1196.639516
904.6257086
6141.280183
922.1449349
1515.081735
1098.88542
520.8640297
1346.409098
2278.937532
6221.081712
697.1192234
4350.932859
2298.009299
3109.875944
1288.779923
3527.956958
4757.715717
163.5815156
495.2798825
150.105878
177.5372064
1893.918343
4757.418408
4916.414645
1519.267878
1181.965374
3364.378723
2429.100416
5678.778649
5565.813922
1472.513221
1202.633653
4346.252188
4753.846944
663.6928446
275.4274177
230.4081326
330.9758667
290.7820642
695.2730113
1614.452073
5615.525862
5689.159509
1909.715111
2290.702373
2094.855872
1010.108502
725.6432051
376.4344877
392.2096572
1043.137561
415.0675585
423.1392742
397.7414265
410.9484011
1022.127984
503.6283702
1057.207993
854.0135616
5332.71947
2180.058825
2643.122737
1975.477052
6164.574563
6253.012852
1535.93927
2032.146099
6264.417009
1592.67039
640.8155656
1573.670879
4754.598725
3408.478001
1115.77716
5450.501429
6274.821816
5133.053246
1452.702568
883.5906034
2384.550564
1602.052616
793.7013419
494.6993302
1457.380411
5083.125432
6463.196731
1800.14125
1541.145453
4968.812856
5093.855825
3709.669717
3479.751907
1211.793552
5877.166992
5776.535617
4319.620526
5712.916684
5736.159742
1431.456337
5695.935503
3813.512139
3611.914807
4055.310317
2223.411548
1027.450109
1112.748621
4587.252959
1306.136172
1483.781054
1147.420771
1253.334151
4314.678369
4141.463188
1183.273252
1408.222446
3100.402211
3227.591215
1139.814398
4612.811816
4689.94785
5917.885475
3186.624163
2650.363298
4550.32884
3146.367073
769.1295221
2211.900121
2961.369265
5471.836694
5559.991585
1629.648449
1831.300426
5751.433083
5445.05047
1955.101037
2301.937234
1548.166762
1815.517047
6385.985659
3679.833274
4058.037086
2467.159896
3557.318539
6342.757559
1609.407589
6266.532049
5425.882925
6245.097923
1729.117541
6158.716438
73.23147581
46.08774374
38.4441969
6238.464566
6212.772128
86.69275886
6474.88662
395.391134
328.7966177
194.0968339
407.1166721
271.8746092
649.5997348
2369.557628
392.4266523
439.8546672
59.47995772
71.14804289
146.7817978
508.5189182
1028.515419
1526.480716
1009.193328
1127.779039
3663.923374
814.8748371
715.2591721
419.9632799
1661.532413
2127.012111
722.6564055
4959.326522
4309.868644
6108.431732
5537.763417
983.8500029
3839.83478
6011.329369
4130.738785
4532.544901
5999.285954
1860.518689
1485.3051
878.6777761
214.6208978
168.786149
309.814783
1077.333607
2951.608683
2066.556388
109.3751126
142.3424644
384.7623792
4055.220013
2646.931443
2037.618644
5389.344108
4135.001166
2716.666595
4726.021087
4332.444709
6523.441882
6195.091713
4660.965523
930.8313158
1003.895694
2037.179903
6089.598162
3461.986377
3827.734424
4854.999081
3150.799704
3603.785393
6096.123085
6033.070241
4011.73773
4235.079339
6099.500024
6085.892142
6294.802758
989.3094331
2015.474341
1676.137508
6178.995566
6119.029457
6039.121418
4839.733218
4532.661597
2808.019693
1491.907218
2162.353682
1765.323561
4015.903359
6188.383808
5376.309632
6268.830272
6016.44192
4467.319696
247.4176112
357.9614211
1250.616351
4886.440578
4790.30856
4979.28862
4966.012466
4844.7717
3138.796675
3118.026965
3155.023029
3141.202101
4839.868138
5715.022826
3197.811431
3223.661206
3063.105157
3155.152432
5807.827833
4525.285085
2857.400213
2572.924223
3097.008792
3018.076876
4633.646767
5596.180968
3288.586406
3312.98794
3253.182435
3267.265133
5644.672339
5087.119733
4999.352883
5189.659192
4956.146329
6200.303456
6427.921185
6058.863952
4796.507504
6238.46223
3178.169345
4662.400274
3252.312595
4236.511789
3214.864812
1328.162463
4342.688921
3255.937749
6223.356681
6451.317179
6218.508132
4865.279959
5483.684489
1468.634335
6101.344086
6345.916683
6014.536515
3837.256201
2737.010946
3828.939466
2018.509859
2952.017027
3998.083042
4382.91177
4017.547865
5251.301274
3334.213835
3170.066416
4533.346551
3287.329715
4848.394656
5001.850189
3169.921026
3158.86403
3192.386665
3165.641176
5029.582961
3625.460515
2131.503401
2170.741887
5813.214503
5804.968236
5024.708742
6154.709737
5954.650517
5843.61906
5817.689125
6054.341693
4788.31392
2556.810894
2855.355249
2229.867516
2343.457928
4107.101274
6219.968005
5283.228434
3125.147884
6533.0893
6257.269265
6237.706219
4254.012675
6217.129185
6014.222093
2617.47734
2966.890398
5286.390211
3098.383962
2098.2598
2066.271413
2307.794756
2232.17846
3272.544811
4907.379601
4594.695214
2979.467032
4465.627687
4686.946259
4180.939291
4413.189828
2928.984621
4445.543045
4361.591881
5683.508699
4166.040813
5526.632631
3376.309791
3397.462508
3328.963116
3349.064512
5512.555241
5476.473669
3740.915378
4328.453907
3441.578333
3527.579903
5465.776811
6020.83886
5888.500089
6187.660744
4520.984537
5219.178654
3820.61734
5954.488373
6024.379906
5940.497455
5952.710822
3891.081047
2761.496089
5165.532194
4437.906919
5841.76291
5984.444635
3208.720861
6031.453318
4157.609569
4392.010919
3222.080323
3743.767973
6132.661679
6239.802579
6044.185624
4756.227967
5321.916188
6547.967929
5976.647044
32.0088354
31.98720258
32.01176235
32.00763764
31.98808896
32.00059179
31.96461605
31.96449624
31.95163175
31.90410218
31.932292
31.89115392
31.84995272
31.9021892
31.83878362
31.80881303
31.88032285
32.14856907
32.0302592
32.1514829
32.14986859
32.02309975
32.13055413
32.05190717
31.97366033
32.02517077
31.92821731
31.90381529
31.89972373
31.81982152
31.83750061
31.79566288
31.73838128
31.7880177
32.65405674
32.22697366
32.6536853
32.66620847
32.20944358
32.598622
32.41298671
32.10696222
32.34391385
32.10603649
31.95675533
32.03594843
31.86321476
31.82232253
31.8171945
31.70793616
31.72580207
34.51801745
32.89704766
34.53408383
34.51255518
32.87034426
34.18296548
33.5455722
32.57994568
33.30310549
32.6456206
32.20992767
32.46923309
32.0672255
31.90029204
31.96696184
31.74059285
31.70947404
45.96868562
35.55158719
46.13469492
43.18790757
35.32479227
40.62867553
36.94069005
34.03245076
35.98331588
33.96177538
32.91784231
33.49767792
32.54240954
32.1658829
32.32445865
31.86582265
31.76154687
69.42890579
66.74981539
49.34613794
52.83097951
45.92726219
42.68982384
42.56266068
36.61169238
34.5408626
35.48023487
33.39171993
32.73220416
32.95878164
32.10937115
31.91619652
108.3806271
74.91697556
61.73294897
53.5096627
40.6165479
37.5997535
38.40997344
34.58720156
33.68083843
33.84663856
32.46094718
32.19048981
175.144326
105.643057
94.64512378
64.13725948
44.85182016
41.82649455
41.55777438
35.89368797
34.94615677
34.82538264
32.86114988
32.56047089
196.2605934
122.0263193
117.7771781
70.71125238
48.05803966
45.91940355
44.04527371
36.98867718
36.23508229
35.66129598
33.22572008
32.95350956
187.7191415
124.5042714
124.7405579
73.09810082
49.68678448
48.69644731
45.40459798
37.70360393
37.24896128
36.21836337
33.50332009
33.30190375
171.2881087
127.4920539
128.7338079
49.92488118
37.82845449
33.55640242
168.829985
234.8105813
265.9341407
103.9447176
124.1962594
103.7245597
231.4181937
342.2320192
344.3045764
275.6752139
300.8627011
203.7694949
231.1530256
314.4409673
310.6780231
344.0404608
340.751193
236.9744334
208.0709687
245.467081
240.4175184
281.5681829
275.1917415
223.6397099
235.064025
230.554318
199.5989898
1983.13221
1649.422387
1780.645492
69.61674894
2649.009203
2056.06511
71.79881353
78.34886711
92.38002358
47.78432412
64.24574318
56.04047372
555.4994634
646.3273896
694.653346
255.7264904
307.2169185
246.5196539
91.42185809
77.91390226
117.8559749
57.90377495
68.91673865
75.07949742
56.80840501
62.7258777
53.68260038
1998.354958
3091.781363
3096.684765
2061.291279
2099.931515
1461.316807
115.9413521
108.3436644
180.3595036
73.67588301
90.89816215
94.83618538
80.91893519
86.23098366
70.14095049
1128.560106
1390.813218
1346.888802
2085.545073
2064.654867
1527.67812
124.5122983
122.937567
196.1380256
83.32209614
102.3788188
103.6195169
98.04555005
100.5326865
81.54420631
625.402105
819.982174
781.6804305
1195.805368
1102.972363
775.6993565
1554.079062
1697.242646
2772.330832
410.5250096
684.4713198
606.0502189
533.6054948
515.8047038
440.238935
1333.185046
1949.702181
2022.560176
766.3486478
818.3052656
647.1563722
188.8889036
223.1450694
159.3919622
522.9893125
391.831306
358.4630065
567.5645396
540.0302883
843.4723763
1582.582869
2122.368828
2107.654993
3082.701879
3062.301145
2001.237728
330.4951378
340.2336246
217.0465882
1356.466627
678.1192182
695.4243101
718.292135
726.2961726
1225.20362
1083.50105
615.6569809
590.9632471
694.8268796
693.4355261
1323.279891
205.2984226
308.0521081
325.9760554
887.6990579
1363.334702
1232.080143
1308.989721
1278.011583
1053.760689
327.9701275
318.7099223
233.7032955
780.9265621
587.8002831
602.2260507
353.8904492
370.0882928
697.9134264
1129.161682
698.4469894
709.7920453
616.9542984
631.8293354
947.5383864
236.837641
338.4736765
331.3077348
474.2993343
575.6625477
554.4006933
747.1000352
713.9442585
558.0185447
581.8570859
1422.864089
876.9111299
1699.404537
1018.040023
130.6117774
124.1827059
185.5421976
86.67603743
104.664856
104.4304805
104.3702087
104.7072523
86.23471261
907.390511
1385.490954
1172.656379
1084.31908
1060.030473
936.1440939
262.7616287
153.966929
116.3168785
328.1948918
298.1847336
402.459297
115.9737932
142.4960175
176.1361426
1015.422383
1177.774489
1133.914634
1717.27635
1588.391571
1215.231587
257.1956349
251.4425193
211.457775
443.3582056
317.0931145
309.4954255
296.6245766
305.9184215
432.5262296
551.239406
333.0075641
348.57418
312.8944009
328.353875
534.0204052
220.3254346
269.1676032
262.8166463
125.7372807
141.5801927
164.2018802
193.0643989
78.60518175
114.7182453
96.47015025
133.1650531
125.4035933
81.02969564
605.0632287
939.7110314
496.1644506
1180.450174
453.3571569
330.8771066
1752.598969
1495.833336
2482.706906
285.3539776
420.3894634
553.6282246
2240.470979
2320.600492
1671.144521
1586.306198
2201.23895
2240.23998
1616.141757
1584.401027
1261.089201
1347.435658
1714.910097
1657.269945
901.3366598
859.0859542
652.3502394
2622.985683
1689.765184
1824.592571
1237.212922
1282.122672
1712.027351
1991.617896
2149.034528
3903.69386
740.1982937
1069.448704
1022.105455
757.7447536
913.3114976
869.8421944
1113.353579
1022.795968
791.9046612
1378.800139
1440.616697
1024.846094
865.2899708
1220.217857
1293.880832
2206.113968
2193.286035
1657.294577
1716.491588
2273.449385
2229.24961
737.2500349
739.0892035
1329.52571
420.4988415
542.8624015
545.0866253
534.2510977
539.6686179
417.018128
425.2926759
543.5325502
540.838751
545.4011559
544.8758873
425.4929967
1235.574452
731.7045613
735.3450269
657.9509381
635.9522424
1108.067392
366.3061257
469.3242391
480.6483806
437.9962411
452.3015659
355.0042532
400.7170885
517.5330338
526.9862272
495.9584034
504.2512667
393.3221527
1286.892882
695.8122593
674.9748244
1595.20675
1422.933232
815.1817525
945.8930751
1128.556212
1103.242118
1284.76806
909.9598749
915.8390792
828.4506818
867.2143812
1227.701301
538.0419806
682.1712587
652.908923
1424.409171
2092.002497
1888.96516
4133.093314
3688.219895
2080.162824
828.260898
2575.020583
4304.482708
3953.059956
155.9612073
240.8702103
302.4567374
199.3135998
136.9714176
458.8971678
233.4711481
360.3271175
434.4816916
643.6736877
166.9693008
259.2168331
212.0607601
306.9320861
295.5442452
174.91171
2892.974928
3038.594504
1962.259167
1488.513688
2120.104984
2151.88777
1484.12967
1438.573805
1156.321456
3068.279929
1901.396045
1993.223956
1699.658628
1792.562353
2684.62
1502.142013
2029.96683
1980.999912
1715.893312
1850.551321
1273.748471
454.7269941
418.0210219
586.4255969
261.1592338
320.7515321
341.2498914
278.0462915
300.0451324
245.3347211
318.5840327
402.1875583
419.2089807
362.6653353
381.7652719
304.2023897
803.5792274
513.5579174
483.9490331
2153.775287
2139.722645
1599.608611
1971.41859
2991.36312
2829.09392
2213.269561
1584.91445
1631.632604
1505.272953
1542.519349
2152.462473
1032.064642
1248.031388
1221.108485
559.4436312
573.4298717
751.7609046
381.3935331
464.8592227
456.4580382
481.8776763
473.618164
387.3563539
672.3875096
686.5986785
1106.7087
418.1274254
526.6494457
520.3045961
537.0779483
532.3484061
421.2143418
402.1883297
498.2500932
490.3516482
513.3048185
506.140421
407.1262785
975.1390419
645.0574446
659.5875102
625.14827
599.8935406
489.5158734
994.4845621
755.6046485
790.2392589
690.6529429
722.4039155
893.8165128
1258.064056
1992.534325
3371.288901
1657.265198
2667.846853
2367.023809
3445.227113
3013.447028
1825.27452
833.5454839
4399.714732
2460.633162
2768.603329
1969.261667
2201.228596
3944.905601
1153.72296
1477.704808
1380.870209
1197.656736
1808.459467
2256.711172
1301.580281
1641.22137
1082.001875
2511.284653
2947.065458
1891.907826
648.8968996
918.7904881
1152.129351
640.9884729
784.6552437
582.9998399
1811.460886
1150.371127
980.7968601
1725.295171
2384.158749
2619.352586
2164.947174
2195.068035
1568.051711
2053.203014
2096.032475
3578.257804
1233.678767
1553.848908
1521.927568
1895.108246
1798.42148
1390.0891
1505.49681
1584.591086
2389.645994
1054.151611
1229.669529
1188.949767
1340.198939
1281.682606
1082.772845
1356.971531
1831.968316
1709.45085
2128.818098
1987.381862
1424.043565
1176.395606
1475.820343
1408.275535
1614.22454
1544.681398
1220.298828
4076.767761
2279.966422
2417.96352
2476.411268
2799.492934
4578.195025
1237.103602
1695.195714
1553.14314
2077.780211
1864.858074
1329.341017
1076.88303
1519.315916
1608.0317
1047.039648
1116.165266
810.1481649
2469.244544
1651.854085
1548.099946
1932.308861
1841.236904
2815.663824
1642.896745
2179.496032
2167.862575
2569.080679
2371.162363
1763.085758
2085.33876
3755.280573
3394.587379
4149.699476
3934.782793
2191.074667
1612.661014
2378.833081
2252.972877
2901.726977
2569.743675
1699.726256
2505.168531
2305.458386
1517.592537
1885.150362
3198.54244
2773.709593
59.33161225
52.66214482
55.57328268
43.00376582
46.40975073
51.45735718
40.0672277
43.0972655
40.51691927
103.9148282
103.295472
86.48166533
380.3658752
278.581788
286.5965395
262.7807428
270.1908571
340.6970572
369.0505435
583.3425698
672.4266651
344.8038045
437.6328899
367.740868
1556.260459
613.144255
551.5917114
1058.217618
1858.680796
3711.877272
428.1913576
683.7342507
565.7595128
766.4891972
755.0556603
442.949479
87.7242019
77.24283568
67.59607221
108.4863287
89.94080259
98.05702922
549.4737768
592.7753457
529.5390149
1210.652019
830.9476472
727.144388
1015.589833
898.1340273
1310.421877
1046.761332
1250.100794
1185.689678
1432.289907
1331.832703
1085.029631
3190.844523
1898.03156
2151.550924
780.8686282
633.4714297
660.9568618
583.4513897
606.9668156
746.5860921
1878.25717
1223.476482
1112.023984
1416.010468
1325.905314
1946.565866
686.644533
899.8375973
953.6130539
1124.172927
1718.902387
1270.197043
1327.442776
1155.274267
1198.042762
1598.089889
921.3012901
1009.960949
1011.975682
199.2047719
235.8479391
257.7257381
343.0599902
265.3806314
240.9233718
1300.439171
1236.350449
1043.562254
2621.766998
1641.613544
1778.376493
1423.108936
1516.182143
2315.600679
117.5883695
132.8734836
124.4991844
172.380614
156.8061565
125.8968322
258.3045877
189.1686834
248.5355524
958.0346613
1075.409374
1055.28598
1146.210979
1114.650408
977.5186315
1863.980208
1354.454598
1422.061671
1190.39437
1162.417653
966.1684
1908.840985
1410.705409
1458.61405
1311.147117
1353.778494
1780.002246
266.9808136
346.5002971
302.8977288
472.5155685
408.8519248
307.2411003
881.2149332
551.5331781
728.5552082
31.98954414
31.9877619
31.9953863
31.98262812
31.97465828
31.99088359
31.96469064
31.95431848
31.98428233
31.94402121
31.93474425
31.97791473
31.92684093
31.92053384
31.97310225
31.91638176
31.91139921
31.97016707
31.90831963
31.90607991
31.96840861
31.99345058
31.99388055
31.99069397
31.9849067
31.97808679
31.97744222
31.95035834
31.94022831
31.94834751
31.91042034
31.90022788
31.91633977
31.87476435
31.86727291
31.89020355
31.80244441
31.79813974
31.853374
31.79043407
31.78433596
31.84424419
31.78004541
31.77783305
31.83815613
32.05826161
32.06008613
32.03453918
32.04282002
32.02415701
32.00417043
31.97044894
31.9483463
31.93917669
31.88637859
31.86460812
31.86813066
31.81177241
31.79598466
31.81032003
31.72373606
31.69952986
31.74641662
31.68290993
31.67044625
31.72576189
31.66153297
31.65624502
31.71304997
32.32729212
32.33541013
32.23945148
32.29620545
32.25085564
32.17884998
32.13760097
32.08837289
32.02838844
31.9443435
31.90280835
31.88469974
31.79641819
31.76661751
31.76764124
31.67949604
31.62532137
31.65904031
31.59337718
31.56939937
31.61788628
31.55235876
31.54156964
31.59425985
33.2735546
33.33122832
32.94374611
33.15052748
33.03045509
32.79422109
32.70028861
32.56406005
32.38663637
32.19961167
32.10178115
32.04197628
31.87142755
31.81156458
31.79019696
31.68628193
31.58113414
31.59961385
31.52695508
31.48462556
31.52449988
31.45465048
31.43505776
31.48343827
37.39342077
37.69029676
35.66970358
36.23960581
35.70409601
34.8775929
34.31947049
33.88888556
33.42339519
32.88654893
32.64373952
32.49596921
32.11485175
31.98718318
31.92765563
31.76759487
31.57816016
31.57443826
31.48481848
31.41909913
31.44918164
31.37081141
31.33713707
31.38261469
53.73816745
53.86135318
50.2641325
38.62313073
37.16116916
36.09039657
34.35101358
33.76705659
33.47531317
32.60670772
32.35090126
32.23932587
31.93751843
31.61332069
31.58953102
31.47204399
31.37264289
31.3935869
31.30131924
31.24944071
31.29093041
88.91961905
79.68865698
72.93258862
47.71138211
43.60325104
41.74735473
36.8511234
35.62304854
35.18090888
33.37617079
32.91973779
32.75916167
32.188042
31.6981488
31.65127472
31.48428686
31.34275185
31.3555166
31.24409742
31.17176252
31.20932419
161.5599881
134.2798831
128.4971844
59.1808177
51.77547862
49.79798548
40.02208075
37.96934495
37.47936419
34.34341331
33.63686195
33.45423881
32.47969736
31.81449955
31.75484024
31.52028157
31.32745473
31.33310265
31.19786436
31.10334881
31.13731842
194.8863124
162.5315974
160.9102753
67.99653819
58.45314993
57.09553888
42.90850284
40.14868585
39.78737348
35.27767126
34.33659171
34.17022317
32.75743518
31.93707294
31.87727529
31.5669157
31.32250281
31.323615
31.16061642
31.04347874
31.07416346
191.1974548
163.5892489
164.2225079
72.34069149
62.10120874
61.53541962
44.82950788
41.65826446
41.47135832
35.98896694
34.8886487
34.76418421
32.97770762
32.04603874
31.99527566
31.61165334
31.32137898
31.3217859
31.12950328
30.99068205
31.01836083
175.3767104
153.5787304
155.1607275
73.09294363
63.14140836
63.09192307
45.71080745
42.36518961
42.3234742
36.35162648
35.18487513
35.15688044
32.09108173
31.31992058
30.96773577
54.23596172
122.0331518
115.4242612
137.3847998
158.5927681
155.9808094
188.539965
164.9065905
165.2361651
194.9770466
394.04191
444.1106843
434.4055747
753.2792195
729.6456259
925.7356397
1386.522533
1023.834743
1022.873306
950.064935
958.0653908
1202.79996
1027.844259
793.3299511
770.6513388
1018.412707
1011.446841
1372.771369
507.1808388
519.246227
651.4124822
1163.539018
932.6589755
941.9809896
422.5267073
156.3846312
157.8119226
181.4409586
193.779903
160.143522
146.4116866
465.5930607
403.0376804
410.3650737
356.6711053
364.0561911
413.2851565
587.6043669
483.316853
494.494209
421.3236115
429.3121993
503.8136029
76.98063288
87.59518918
90.72209004
92.68420218
92.58881142
83.59015428
673.8620743
474.6370019
379.6011426
995.0540859
998.4574931
1284.485529
1253.616955
987.2087262
990.345031
900.6796615
882.6261157
1153.796633
1221.21644
932.9215578
915.4298409
1069.864534
1051.926184
880.619368
1430.041542
1147.688838
1181.181632
966.6078595
993.460789
1134.383119
607.2424903
593.1064857
631.8762972
729.8111685
637.6353198
617.5556416
862.2262904
875.067631
1061.534356
1007.949953
838.2126205
851.0624234
1035.427216
920.0989378
947.2888277
67.59080436
61.94889282
65.37008778
389.6926682
342.5293146
350.478531
196.4785083
225.8458144
221.886723
62.56331344
71.53632425
66.79691245
127.3502318
116.0480015
123.1341602
427.7434394
498.3922164
483.3705799
195.8752789
215.7970391
183.8181014
336.0912628
279.8798749
301.5285556
31.99793428
31.99044667
32.01271446
32.0014309
32.00065768
31.99561245
31.99917594
32.01175953
31.98895552
31.99214075
31.99017627
31.98865823
31.9812371
31.98988
31.96093111
31.97225533
31.97807728
31.96966494
31.96996068
31.96018738
31.9355965
31.93498944
31.9496379
31.91085917
31.92376802
31.92101509
31.93920157
31.93053668
31.91994485
31.87617057
31.8867323
31.89953066
31.86484786
31.87638162
31.86355029
31.90817554
31.89133153
31.88238612
31.82717102
31.84615419
31.85582643
31.83079488
31.8386455
31.81794763
31.88450733
31.86099701
31.8549888
32.09835827
32.05516937
32.15496841
32.10492762
32.10573258
32.08599848
32.09666444
32.15785641
32.03028823
32.05981933
32.05440567
32.10159876
32.06209286
32.07548976
32.01629415
32.04221617
32.07698552
31.99095201
32.00773757
31.98892276
31.99316605
31.96361186
31.98996637
31.91417629
31.9396249
31.9607316
31.92256469
31.92791536
31.90648688
31.87152269
31.86609058
31.89031503
31.82074199
31.84335652
31.84544609
31.85334103
31.84556982
31.82792163
31.77502729
31.78408282
31.80238534
31.75256786
31.7678909
31.75584585
31.79896651
31.78230201
31.76967497
32.46215292
32.32500303
32.67434356
32.48688248
32.49270207
32.44049776
32.46102045
32.68908834
32.22402855
32.34365452
32.33073322
32.52714907
32.39627702
32.42461461
32.27717279
32.34689866
32.46442925
32.14808694
32.21322762
32.17852559
32.26384863
32.15648733
32.21369677
32.04768925
32.10277796
32.18256501
31.99318246
32.0376739
31.98876403
31.97192558
31.93955338
31.99262907
31.84404489
31.88985169
31.91495144
31.85192919
31.86442754
31.82877302
31.77595347
31.76907982
31.80353388
31.70957831
31.73824326
31.74043481
31.74611504
31.73919797
31.71675057
33.74433881
33.28163647
34.67140447
33.82525971
33.88743062
33.68738724
33.76467758
34.63732617
32.90468098
33.33857348
33.29446009
33.95721431
33.51906204
33.65237037
33.10811241
33.31491627
33.75718148
32.6983299
32.92476502
32.82668856
33.06644181
32.77348009
32.93394303
32.48337376
32.62570696
32.8441856
32.29896216
32.42992216
32.30853737
32.31622436
32.21892513
32.34447692
32.00282104
32.10567147
32.18360213
31.9683514
32.01584463
31.93879937
31.87953052
31.84110191
31.91516797
31.72456045
31.77842663
31.80425695
31.74661686
31.75928729
31.71437393
39.94788506
37.22589142
45.8471805
40.06731757
40.3836555
38.90189278
39.6612544
44.31805107
35.55047871
37.49330753
37.05195905
39.12303467
37.46122827
38.32972516
35.65846212
36.41411506
38.0689509
34.41646311
35.2723489
34.78961674
35.18868504
34.47121132
35.02075366
33.57879142
33.99507688
34.51710284
33.16144954
33.50547966
33.17254508
33.11672037
32.90528326
33.21711757
32.40357129
32.6339196
32.80296429
32.32060519
32.43870373
32.26384772
32.14231741
32.05754221
32.21309334
31.82386071
31.92977196
31.99068762
31.83759042
31.87901382
31.78933335
69.202923
61.23880287
60.87192184
58.86120286
60.17378663
69.05229611
49.98243964
53.8406128
53.43982128
39.99364824
38.48639987
40.40732158
35.87815213
37.02341947
38.0718043
35.24438865
36.00568689
35.0872633
34.60951278
34.23698543
34.9726692
33.15984001
33.63876051
33.93119187
33.06756391
33.30015589
32.91933252
32.61130387
32.47421088
32.77789364
32.03907248
32.23236348
32.33233337
32.06108942
32.14210598
31.97291347
93.8087031
86.57593157
97.57958538
69.45946169
76.38376497
81.84690989
47.69331625
45.65825091
50.55866831
39.64725508
42.18551861
43.59338905
39.37530058
40.65506847
38.48496337
36.77332901
36.29726586
37.75472519
34.29635163
35.16751796
35.53905898
34.33966511
34.68553441
33.95338049
33.26741263
33.09754771
33.62143574
32.36805845
32.68843803
32.81458962
32.44142167
32.55996646
32.27529133
144.5522815
139.6974984
168.9463551
101.9906122
117.6909026
121.7590985
108.644973
113.3716989
98.96347585
55.4528411
53.73506072
61.75460691
43.97875562
48.07955168
49.30779624
45.17563475
46.57349106
42.80336177
39.11936026
38.67268214
40.95698964
35.61400796
36.93664759
37.28876787
36.04327008
36.43020102
35.25213545
33.99728796
33.82373948
34.59953684
32.76294346
33.22532617
33.3567229
32.95114416
33.08771174
32.66156385
164.715636
163.9441573
195.923453
120.8497795
139.205144
140.3539865
136.0476986
137.8423942
119.4680446
60.67724031
59.70764216
69.45034597
47.48669691
52.68081453
53.40935751
50.63118603
51.62420388
46.62854546
41.01317174
40.70770295
43.61737906
36.78465163
38.48727102
38.72272417
37.76807317
38.0738293
36.49049219
34.63147838
34.4878383
35.48065079
33.13752345
33.7245081
33.83713379
33.48276456
33.61083298
33.05200908
161.5536451
162.3757623
189.2954895
62.90453742
62.65173339
72.76822948
49.53521127
55.18118053
55.35456409
54.18747127
54.59683145
49.01660068
42.13981207
41.97334343
45.24015838
37.57664617
39.48337699
39.63096874
39.08633982
39.23459114
37.39686031
35.07126287
34.98306116
36.11162698
33.44009772
34.11149398
34.18553352
33.93772034
34.03830235
33.38309057
55.62152221
55.70360882
50.05021581
39.78335932
39.82049966
37.86160882
34.25392491
34.28284354
33.5936007
245.2955646
209.5953741
200.2210961
224.3879844
216.170078
256.089654
343.4217833
285.9128734
284.0799814
288.169081
287.2014272
344.3174199
284.5785099
238.1360123
230.8291003
250.3384683
244.2718925
293.1243673
311.9662363
272.9778956
275.51162
343.419624
288.9375141
288.77441
288.5082468
288.7792204
341.9948121
59.33109828
52.50119665
51.42723313
47.33125044
61.01967787
54.93202529
56.24909995
51.03432028
52.41972923
58.23556302
86.50465389
98.41773247
103.6605406
87.4443785
92.97358446
83.28006866
128.065921
108.2851248
101.1265105
113.6198646
131.4263327
133.9901463
125.3173789
128.6362714
111.3250229
184.8938023
152.6882073
148.9666473
124.1948925
141.9658313
141.9696784
141.1016042
141.6543546
123.6644597
195.7691146
165.3748131
165.3210056
1164.436833
1007.030178
1032.132329
958.9131476
984.5135403
1129.022673
468.9227138
456.5306519
401.961066
657.1840935
540.5944011
560.3404582
504.6630565
520.5579594
629.6592594
199.9141162
177.2883541
166.330313
193.6458337
183.6288147
212.2117083
886.1820089
711.8739938
688.2026277
334.4036656
277.0188821
273.6261823
282.0884831
279.5662072
337.6004076
1016.621825
1022.122963
1375.877486
696.041455
777.2129918
802.325427
764.7614422
773.4036601
696.2513176
1214.660204
964.9799434
971.5213561
831.6207919
809.9682606
1055.709643
693.990852
745.7539097
757.0213326
719.7853682
734.235996
693.4659129
1353.673784