/*--------------------------------*- C++ -*----------------------------------*\
| =========                 |                                                 |
| \\      /  F ield         | OpenFOAM: The Open Source CFD Toolbox           |
|  \\    /   O peration     | Version:  v2012                                 |
|   \\  /    A nd           | Website:  www.openfoam.com                      |
|    \\/     M anipulation  |                                                 |
\*---------------------------------------------------------------------------*/
FoamFile
{
    version     2.0;
    format      ascii;
    class       volScalarField;
    location    "2";
    object      p;
}
// * * * * * * * * * * * * * * * * * * * * * * * * * * * * * * * * * * * * * //

dimensions      [0 2 -2 0 0 0 0];


internalField   nonuniform List<scalar> 
3259
(
118.7625276
-82.13063234
-266.7953384
-422.5996902
-545.8365893
-638.2668891
-704.6480574
-750.0813123
-787.2571668
-803.6934118
-813.0457092
-817.3004002
147.4203226
-63.50805865
-258.8618559
-422.3974352
-549.1577997
-642.7679082
-715.8664039
-757.9690395
-794.1309763
-808.2648048
-816.3677603
-820.0401985
150.0476416
-88.6200842
-300.2451366
-468.7654833
-592.5927018
-678.1187772
-746.4473164
-780.1470805
-809.8567529
-819.1277754
-824.4345929
-826.7380921
158.5411313
-143.2607396
-390.0318742
-560.1699699
-671.1709002
-741.4337347
-793.2259952
-813.3398266
-831.9916746
-834.9101882
-836.0357184
-836.3348242
185.3099772
-250.4320919
-555.9640819
-718.2729162
-792.9390834
-828.5740989
-853.2377111
-854.7670698
-857.4956812
-852.5447263
-848.6261341
-846.5640117
243.8342826
-505.0982595
-868.6417246
-961.0113591
-956.8988287
-935.8997562
-921.4425774
-899.3502474
-882.7078359
-869.0196615
-859.616827
-855.0766922
442.6098587
-1271.297449
-1420.643022
-1291.524293
-1151.775677
-1051.204737
-988.4930817
-940.6700127
-903.8586065
-881.0020665
-866.4519595
-859.6125909
-3191.401356
-2181.069957
-1650.219029
-1337.207009
-1153.991255
-1041.412927
-971.1786183
-915.0572088
-885.1044299
-866.6689934
-857.9094478
-4570.015244
-2683.790411
-1884.942228
-1455.742141
-1216.751099
-1067.998656
-982.9115039
-912.7786363
-878.7459575
-858.0892377
-848.2169161
-4103.334953
-2619.46978
-1883.467158
-1458.871943
-1219.375216
-1060.056114
-971.7223026
-894.9486075
-860.4310651
-839.5004701
-829.4661037
-3022.996976
-2173.983773
-1679.911382
-1360.894056
-1162.867043
-1017.215635
-937.0971872
-861.5331687
-830.0777709
-810.8053419
-801.5073494
-1940.983379
-1601.69467
-1373.19597
-1192.533789
-1060.880464
-945.8652709
-882.4667891
-814.3886314
-789.073928
-772.9422673
-765.0996747
-4923.150526
-3408.003351
-4479.780519
-4956.485639
-3292.021011
-4350.802179
-2115.847092
-3137.902937
-1977.96992
703.488251
-3024.521733
-1070.53871
-6766.577231
-4577.017218
-4527.290344
-2898.542006
-2368.162212
-6411.269452
-6912.185423
-4213.027515
-2957.516017
-2982.697572
-4598.726136
-5515.382025
-3163.506563
-2487.462616
-2874.615469
-2976.286376
-3658.207899
-1597.679135
-1576.07924
-2167.306702
-6937.117977
-6812.022278
-4573.674844
-6498.09685
-6759.227026
-5571.99247
-6369.008776
-4736.105337
-6233.482555
-5479.398464
-6738.139906
-6274.430439
-4780.987989
-3760.069709
-4535.128697
-3756.205898
-4426.610522
-3687.678635
-5423.978162
-4542.976768
-3910.185816
-2254.452356
-2882.986055
-1548.958526
-1591.244707
-1495.630631
-1545.620884
-8918.375003
-5977.282076
-3563.893643
-2070.838756
-1831.276025
-2330.405066
-2019.699298
-1976.212435
-2287.358206
-4323.614184
-6374.224184
-4356.312982
-2338.681409
-2675.439562
-2542.841393
-2839.279195
-2229.40973
-3589.653373
-2929.795307
-2688.898028
1050.032851
-4056.192946
-1378.418327
684.6517689
-8995.93692
-6231.306587
-8593.770566
-5658.228958
-8449.494276
-5896.215561
-6642.713046
-6678.525137
-5029.561812
-5091.828685
-3137.074313
-3482.252448
-3261.495983
-3465.052202
-3108.96943
-3916.246781
-3519.067597
-3359.132534
-1599.016855
-1881.867671
-1933.809798
-6993.881965
-6993.278329
-5941.984053
-5992.383536
-5890.016997
-5276.043036
-5474.795545
-4960.430775
-5201.883991
-5840.748668
-6541.155253
-5712.014232
-5773.499321
-5532.107219
-5675.938708
-6507.189357
-4079.708877
-3961.175556
-4135.615297
-3054.273865
-2704.073397
-2608.834126
-2722.808372
-3075.247778
-1939.886568
-1506.070469
-7720.976886
-2181.917028
-2345.942796
4836.549608
-2378.750259
-2560.723677
1568.247574
-5287.596908
-1823.292847
570.12417
-6520.927635
-7469.583374
-7315.50375
-6820.424421
-4780.616122
-4976.509637
-4765.415815
-5789.826155
-5602.922181
-5339.349832
-6972.778877
-7530.455016
-7529.491345
-6793.18052
-5662.969507
-5410.078966
-5775.448131
-5711.427433
-6789.03296
-5736.445665
-6027.003424
-5854.496154
-6220.198949
-4699.534646
-4499.510704
-4359.658138
-4096.493839
-3845.045095
-4126.210351
-5018.317676
-4601.352339
-4873.776985
-4221.356016
-4507.363705
-4958.708583
-2519.438665
-2656.370997
-2334.251694
-1730.084002
-8211.857409
-7441.636712
-7835.045468
-3715.212944
-3784.307627
-1987.524827
-2132.499024
-2137.151646
4557.717132
4602.825776
4404.964597
-2749.662317
-2565.248246
-2527.408891
-2564.732071
-2766.923315
-8845.740645
-7662.953246
-7231.248801
-7925.471837
-7758.169511
-7048.133415
-6317.334369
-7629.391265
-7040.907827
-6917.275109
-6549.802879
-6786.619102
-7257.982235
-7093.667796
-5250.346054
-5046.812398
-4843.212934
-5106.187886
-5317.466935
-4829.855329
-5042.423328
-5388.161519
-5278.28782
-5543.789363
-5323.154762
-3281.703704
-3349.141807
-3318.57216
-3237.165267
-3385.692036
-3758.34086
-3646.855472
-3806.46951
-3435.291341
-3594.325903
-3700.090233
-1803.45717
-1786.594552
-1934.867632
-7659.071054
-7547.174462
-6980.704206
-7740.668928
-7907.795816
-7688.851266
-7942.418064
-7985.309447
-7975.359748
-7921.095577
-6953.959435
-7671.670888
-7702.460699
-6239.06547
-6082.598499
-5789.382283
-6161.381408
-6472.849949
-6284.151008
-4073.267097
-4252.845116
-3862.428603
-4021.976721
-4112.625999
-4550.390911
-4756.428212
-4308.406166
-4489.090892
-2768.048818
-2877.077328
-2941.526507
-2756.526789
-2995.870055
-2923.793855
-1819.542205
-2875.918212
-2127.127107
-1431.318867
-2327.719001
-2384.035257
-1664.835699
-2388.046762
-2144.698169
-1608.027003
-1577.614919
1661.630296
3334.80391
4494.12212
-6380.936642
-2400.057603
493.1771661
-1980.612151
-1669.789158
-3888.874639
-6532.110246
-7396.760813
-7598.516442
-1588.670106
-1736.292006
-1739.370962
-2240.190395
-1959.877703
-1909.121349
-7644.869784
-7677.121788
-6943.270638
-1560.415778
-1665.088201
-1674.455626
-1571.64566
-1539.134455
-8826.111154
-3601.842084
-2002.164977
-2075.194043
-2079.418607
-2328.704018
-2174.399613
-2144.278718
-5282.61578
-4764.358231
-5764.473391
-2480.350995
-2532.408823
-2373.687493
-2628.531961
-2170.757775
-5089.798001
-8761.823865
-8273.92361
-8119.513991
-8536.870699
-8566.350357
-3186.139092
-3220.142235
-3168.105549
-3497.794852
-3498.447789
-3471.78016
-3037.04114
-3184.39933
-3258.41678
-3878.317369
-3821.692272
-3877.662964
-1929.966857
-1908.568169
-1941.232809
-4254.695573
-4327.91866
-3934.996116
-4002.687982
-4026.186967
-4396.70731
-4409.95823
-4300.155555
-4438.934437
-4264.031653
-1941.307344
-2215.951658
-2262.554049
-2370.44377
-2321.211572
-2300.749637
4979.268119
5070.681246
4909.874854
-2439.024002
-2464.292151
-2377.047546
-2577.671067
-2520.266872
-2510.419742
-3503.679135
-2794.257618
-6031.854894
-6783.721774
-6797.273983
-6694.698972
-6743.062348
-7415.345592
-7231.508567
-7277.10776
-7143.771051
-7188.233211
-7366.071583
-5731.688557
-5645.285359
-5705.370232
-5516.06527
-5583.64996
-5670.875223
-7578.274959
-7363.399355
-7358.709833
-7322.498934
-7354.984143
-7573.710801
-5966.246378
-5878.08757
-5934.778747
-5765.376008
-5822.134633
-5912.620962
-6609.420039
-6651.877624
-6491.158274
-6551.993442
-1567.115957
-1735.189303
-1730.021259
-1721.796777
-1571.558658
-8735.08513
-9028.727898
-8545.947376
-8288.919355
-7825.651801
-6934.998451
-8651.281274
-8318.837948
-3651.155232
-3802.503918
-2137.256818
-2127.759595
-2133.153204
4641.057743
-2651.477173
-2576.495805
-2707.758478
-8475.696029
-8388.111185
-8817.870255
-7875.480474
-8229.689379
-8250.295683
-8606.315851
-8589.481406
-6986.194727
-6867.766227
-6908.898847
-6814.488782
-6829.898516
-6936.669942
-7198.523736
-7046.78048
-7096.296393
-6953.526117
-6999.004556
-7145.248217
-5183.713527
-5108.137585
-5174.227832
-5172.616986
-5246.973221
-4876.945173
-4907.153901
-4879.041155
-4979.310698
-5465.273738
-5502.536935
-5456.57411
-5372.330678
-5444.736167
-5243.105765
-5310.397442
-5397.898694
-3321.342518
-3228.785955
-3223.353683
-3243.261776
-3180.016468
-3239.79445
-3420.237998
-3444.157228
-3375.895966
-3716.500834
-3760.553405
-3784.191286
-7612.744071
-7402.95045
-7427.552991
-7365.932642
-7381.070183
-7575.636093
-7794.388819
-7845.400565
-7980.427885
-8298.450541
-8225.283105
-8357.946196
-8366.515975
-8005.890109
-7992.038989
-8179.385232
-8158.114485
-7919.952547
-6191.664198
-6095.584008
-6143.474673
-5988.765516
-6042.732993
-6135.09262
-6415.336834
-6321.4682
-6407.720085
-6191.24252
-6248.929159
-6344.50784
-4163.722754
-4200.033763
-4095.702814
-4062.866836
-4088.064674
-4608.944206
-4640.396061
-4589.842394
-4794.975165
-4707.123597
-4676.38241
-4355.414816
-4388.061984
-4360.384077
-4535.304938
-4481.310087
-4421.91192
-2880.758648
-2864.973711
-2931.673948
-2752.65148
-2804.827961
-2839.820495
-3067.126012
-3113.896956
-2979.307387
-2982.835354
-2994.081177
-1882.02473
207.18845
198.4426229
148.9983624
-23.48033483
-13.0370317
-80.02922792
-237.403944
-213.1433447
-286.0706789
-415.3251456
-384.8633555
-453.6714203
-550.7263993
-520.2345391
-578.4560548
-647.195984
-621.4166503
226.5387548
210.4741902
155.2832556
-58.19968106
-30.17047307
-126.0981123
-309.0497454
-250.9254202
-361.9351606
-495.2785313
-430.6378267
-532.0173255
-622.8996203
-565.5258432
-647.7041967
-707.5812903
-659.6170305
275.5825241
234.9924525
176.0697917
-123.8741634
-70.82345067
-215.8566786
-445.1705544
-335.5890716
-504.6578064
-638.0577783
-524.1733661
-670.6635575
-741.8734518
-647.4447247
-758.64529
-795.5685671
-727.2715161
392.371178
296.1933236
226.048844
-275.7514307
-149.3341516
-415.9445176
-709.5194196
-495.0737766
-770.8938462
-876.6550445
-687.474523
-892.2795002
-911.2181624
-779.5726332
-912.3590745
-909.2614957
-821.7065698
635.6021755
440.8795145
422.5956813
-784.0036783
-348.5475196
-987.827757
-1241.612458
-810.2196235
-1256.521529
-1225.185144
-952.5888154
-1201.690437
-1125.784281
-961.8632344
-1101.727425
-1039.889233
-940.8651637
494.6225816
-983.9304465
-362.641583
-1753.168192
-1683.658226
-1372.729836
-1990.336881
-1655.330148
-1328.96477
-1565.593608
-1350.772637
-1183.580243
-1294.857208
-1164.456431
-1072.708081
-3990.832476
-3222.385562
-2699.636535
-2610.794106
-1994.337983
-1757.591095
-1846.806505
-1517.213707
-1400.698007
-1435.957335
-1252.157447
-1191.120352
-4539.046848
-3717.754586
-3670.949961
-2682.153974
-2059.978324
-2039.420412
-1904.652383
-1554.139192
-1540.479159
-1468.174825
-1272.766623
-1264.430384
-3720.399752
-3219.414353
-3465.946083
-2305.597081
-1861.870023
-2031.493137
-1744.42235
-1466.540801
-1543.97751
-1394.648976
-1225.825511
-1267.416695
-2605.885749
-2372.944741
-2696.984708
-1746.348265
-1519.860314
-1784.810475
-1453.942808
-1285.255443
-1427.178333
-1238.339748
-1121.498884
-1203.89493
-1563.87076
-1581.358093
-1790.207369
-1426.155894
-1232.914715
-1089.724222
-4851.362435
-5432.50859
-5516.703121
-3661.593524
-4111.11169
-3766.857746
-4598.438101
-5028.854551
-4807.523503
-5519.227905
-5481.943339
-4957.444194
-3446.358744
-3676.069031
-3415.423699
-4727.002257
-4474.602705
-4209.846116
-2255.79307
-2311.039723
-2162.860698
-3259.880845
-3094.020324
-2986.091309
-2016.487432
-1871.574446
-1841.750741
1888.363543
3382.118022
4196.409536
1036.750758
-2764.240291
-411.9174281
-2647.369807
-2724.047964
-3186.05882
-583.557154
-1274.827524
-1699.711597
-6674.40401
-6935.192582
-7011.413835
-4880.178528
-5482.666293
-5069.122888
-3635.812278
-3344.047569
-4184.621713
-2764.628139
-3095.002121
-3256.746822
-2592.312724
-2869.817415
-2584.750406
-6451.481897
-6601.994272
-6556.426341
-7092.924192
-7057.050591
-6883.167506
-3547.40142
-3682.757165
-4481.075128
-3007.295205
-3356.548055
-3283.805485
-3351.200856
-3381.996069
-3017.65112
-4655.993349
-4715.632008
-4652.015126
-5607.131069
-5547.791829
-5457.58448
-2810.019352
-3114.299218
-3583.565246
-2633.728682
-2868.189133
-2689.990765
-3173.074231
-3031.629361
-2764.553535
-3070.561111
-3119.852832
-3022.411088
-3771.309879
-3613.414745
-3557.284888
-1595.743387
-1648.940368
-1656.73943
-1826.709353
-1867.551063
-1592.604002
-2191.620247
-2102.224867
-2080.779014
-6954.484752
-7146.209765
-7124.796591
-7069.414888
-7116.94673
-6874.894338
-5121.779398
-5381.969616
-4736.313519
-6587.108943
-6187.084795
-6088.628631
-6354.577526
-6363.400386
-6789.979624
-5627.710082
-5721.626125
-5665.176929
-6512.336804
-6466.839922
-6324.435642
-5277.430314
-5096.44573
-4631.451622
-6095.128369
-5770.041323
-5864.363221
-5284.45507
-5382.882699
-5639.88349
-6664.635277
-6303.258407
-6334.44051
-5908.260311
-5978.724462
-6380.369939
-4818.742447
-5450.310126
-5327.420782
-3863.618553
-3984.174883
-3824.987181
-4589.824129
-4527.140764
-4477.36687
-4029.697102
-3763.271279
-3601.216493
-4313.864609
-4217.109252
-4322.859969
-3481.568606
-3753.293136
-3991.574592
-5253.877969
-5079.764369
-5183.24572
-4430.651082
-4540.008301
-4719.549139
-4061.869102
-4386.764826
-4119.184228
-2342.181171
-2372.140559
-2281.581871
-2926.204497
-2831.317411
-2790.673663
-1502.20449
-1543.031478
-6392.722611
-7292.804831
-6674.666759
-2010.255662
-2260.928907
-2469.46274
-1999.163306
-2113.372801
-1918.393559
-2502.123028
-2308.812995
-2166.457217
-2071.420174
-2124.124514
-1977.094727
-2299.147812
-2250.78063
-2242.128307
-5466.972159
-4557.105408
-3767.083091
-5961.890525
-5802.440946
-6210.226564
-4081.231984
-4532.590924
-4999.045223
-2384.864165
-2398.82483
-2348.148023
-2695.803836
-2648.308053
-2627.524796
-2616.304397
-2462.10761
-2398.660602
-2573.827769
-2527.834355
-2717.423187
-2206.75291
-2364.952207
-2487.012555
-3301.148002
-3137.102153
-3394.435363
-2802.739304
-3050.120999
-3206.983241
-2836.710436
-2932.310906
-2773.088263
1380.474141
-3545.311293
-3617.686186
-4237.06603
-728.2612633
-1637.956491
-2230.871492
652.4395882
-1277.692285
-480.881352
-6868.471518
-7302.646831
-6495.926209
-7197.611698
-6034.79743
-5242.04413
-7937.318767
-7711.67202
-8270.416209
-5514.171346
-6014.252456
-6703.63707
-6778.280726
-6742.084992
-6608.675459
-6714.828918
-6858.715254
-6817.888553
-5102.386898
-5037.911937
-4967.359792
-5153.963059
-5232.480607
-5167.842894
-3318.025587
-3218.460642
-3165.564291
-3429.467201
-3396.096316
-3442.661945
-3082.607129
-3132.7179
-3158.556188
-3491.497234
-3544.277678
-3574.427562
-3457.647643
-3562.152213
-3407.046258
-1692.653334
-1701.935661
-1605.396022
-1926.728519
-1780.814224
-1786.845408
-7208.860834
-7196.827931
-6994.034924
-6994.396068
-7211.767517
-7214.314434
-6040.787499
-5990.960526
-5892.295378
-6045.792231
-6146.047584
-6090.989871
-5656.88712
-5742.905286
-6043.437362
-5346.362762
-5537.728488
-5460.852245
-5685.007294
-5614.257585
-5412.626973
-5044.612025
-5209.938657
-5118.88641
-5381.337985
-5297.556908
-5125.108904
-5692.085237
-5478.140649
-5569.621117
-6216.258593
-6263.182533
-6634.650255
-5740.833682
-5994.257019
-5956.974708
-6044.26708
-6023.753108
-5761.723765
-5584.619387
-5805.552634
-5750.430839
-5912.640451
-5861.617128
-5632.963167
-6413.076602
-6106.239227
-6163.326374
-4208.106595
-4037.166609
-3926.454839
-4188.338593
-4232.964624
-4176.825358
-2901.656122
-2872.144722
-2985.905154
-2681.065639
-2775.845264
-2853.922444
-2698.956738
-2737.980629
-2645.80343
-2771.991334
-2787.67079
-2739.96297
-3097.747204
-3034.381792
-3017.119719
-1509.875355
-2240.483093
-2254.294636
-2190.980748
2252.854583
3017.205907
1530.711427
3198.388306
2642.820771
4388.596755
3481.443792
-4602.732367
-4720.180781
-5522.848482
-1291.454697
-2156.151063
-2587.231239
670.1637316
-1754.824756
-495.037173
-6670.615778
-6643.002666
-6488.23796
-6852.466995
-7020.549668
-6982.632684
-4845.011371
-4780.384532
-4717.465662
-4901.892752
-4840.15345
-4907.636677
-4708.667339
-4773.162571
-4825.285629
-5399.120005
-5487.4987
-5424.919024
-7164.38428
-7155.773254
-6964.749918
-6310.031338
-6259.638237
-6649.555205
-5597.869545
-5912.723128
-5972.93557
-5728.754207
-5832.05249
-5514.650817
-5766.255779
-6052.853482
-6054.102407
-6015.204076
-6040.547979
-5745.678293
-6797.098116
-6362.711543
-6348.856053
-5831.951333
-5777.377103
-5682.570276
-6275.203009
-6412.383053
-6347.727367
-4628.261857
-4578.883182
-4644.644342
-4453.627237
-4514.773022
-4561.258937
-4415.631405
-4465.913759
-4405.748016
-4010.67155
-4113.006275
-4203.890347
-3937.883642
-4024.942477
-3927.366624
-4224.052621
-4123.865943
-4031.535051
-4867.317412
-4974.392678
-5195.483168
-4694.095669
-4831.407576
-4731.865183
-5025.132582
-4929.161502
-4784.816359
-4316.940917
-4426.987078
-4325.256897
-4630.883229
-4529.005779
-4412.261646
-4779.42956
-4649.557218
-4758.854464
-2554.080431
-2462.839298
-2430.525875
-2511.295877
-2493.170384
-2586.821171
-2308.455752
-2400.632196
-2429.527078
-7319.329885
-7903.446033
-8352.948423
-2041.206567
-2056.491556
-1995.224431
-2136.936717
-2104.372839
-2088.709605
4687.78534
-2696.781022
-2670.210537
-2718.332385
-2557.467131
-2610.491808
-2624.756602
-2577.616838
-2595.731968
-2544.184718
-7542.812054
-7948.517212
-8067.151864
-7642.84939
-7807.920761
-7398.504136
-8164.315911
-8214.84163
-7826.891459
-6840.181471
-7230.051662
-7455.104492
-6670.990485
-6972.108694
-6611.199618
-7999.071186
-7427.903156
-7096.609623
-6577.08181
-6709.702319
-6690.883255
-6942.579701
-6900.66504
-6751.195033
-4975.11616
-5042.167198
-5115.74757
-4905.463765
-4973.987165
-4909.646582
-5360.6851
-5296.317866
-5216.177622
-3291.319795
-3346.569245
-3380.730476
-3286.267238
-3315.097401
-3262.522697
-3414.824417
-3364.917612
-3338.021197
-3699.788587
-3733.044624
-3681.481644
-3839.695883
-3785.682311
-3752.679973
-3487.674485
-3517.576884
-3465.294617
-3628.739593
-3572.834106
-3541.019074
-3633.027865
-3602.633753
-3663.796383
-1798.807077
-1861.335487
-1877.965217
-1837.648026
-1848.411775
-1793.957132
-1940.876902
-1895.799151
-1886.017133
-6988.403665
-7183.334708
-7172.608191
-7187.122686
-7204.127179
-6990.072499
-7686.598651
-7441.240208
-7428.320017
-7445.9996
-7449.725465
-7713.296829
-5841.578614
-5939.102981
-5885.856987
-6275.974522
-6208.565677
-6102.531121
-4127.969497
-4166.473972
-4110.622011
-4300.086011
-4228.677478
-4188.851807
-3918.974236
-3959.611449
-3898.013851
-4055.36815
-4013.217364
-3971.755657
-2902.765196
-2843.685227
-2824.562439
-2968.070382
-2981.494337
-2948.411995
-2521.421353
-2046.673583
-1998.866413
-1881.752633
-1969.479012
-2280.650345
-1419.700499
-1675.504353
-1645.55529
-1728.444244
-1544.428545
-1502.302204
-1894.945225
-1897.667866
-2051.415863
-1599.239463
-1747.107192
-1765.187111
2502.620074
2916.967622
1852.794707
3704.971465
3439.440719
3029.188703
4505.481995
3949.940648
4115.148809
-4611.829634
-4624.022456
-6206.510602
-1711.072222
-2693.691478
-3312.182185
210.6139439
-1442.231906
-702.6218719
-2201.135671
-2273.803281
-1835.504853
-3495.608509
-2786.199959
-2677.473576
-6816.777663
-6877.179653
-6609.409051
-7477.16134
-7159.880788
-7083.671974
-7292.983596
-7229.271065
-7542.947037
-1638.066715
-1642.101127
-1591.100237
-1739.864275
-1689.732991
-1687.052411
-1704.142258
-1695.951717
-1742.033712
-2146.068715
-2125.023749
-2216.69542
-1942.389612
-2033.56325
-2052.660905
-7674.204614
-7385.00367
-7345.67902
-7419.524983
-7408.073328
-7682.668864
-6897.609183
-7146.127354
-7171.693027
-1540.707584
-2282.125814
-2265.322957
-2313.208896
-2163.173878
-2214.764987
-2228.499962
-2190.774412
-2201.653757
-2152.250999
-5130.306395
-5445.662075
-5600.679291
-6011.177003
-5608.117294
-5377.184774
-2495.894473
-2448.427671
-2436.000185
-2486.746983
-2466.588593
-2512.585193
-2362.008753
-2414.222271
-2427.308672
-2551.08128
-3053.485559
-3068.478249
-2856.626174
-2986.571324
-2402.521132
-4429.660604
-3662.064068
-3705.416274
-3084.203663
-3107.925672
-3058.000371
-3209.876318
-3157.922199
-3135.916544
-3206.233928
-3183.107908
-3235.682295
-4347.527962
-4289.535368
-4245.917575
-4378.291816
-4335.440082
-4394.350793
-4219.959572
-4277.12906
-4319.644535
-3305.118368
-3990.466322
-4000.308973
-3609.321275
-3861.911327
-3092.92863
-5780.879694
-4756.06434
-4593.370027
119.1342037
16.53763336
17.38050826
-84.03686838
-180.5118101
-177.5290943
-270.7666432
-353.1934642
-348.6642447
-427.324006
-492.9721927
-488.2946534
-550.2865261
-599.7433946
-595.6282357
-642.0655898
-678.1111925
-674.5083203
-707.7436095
-732.1492945
-729.5570441
147.9514097
92.72571476
92.42656527
-67.28228127
-119.9190646
-115.6715936
-265.1751867
-310.4376255
-303.4078126
-429.9003431
-465.2260481
-457.049877
-556.1600535
-582.294703
-574.7948555
-666.4146019
-702.5631612
-687.5490092
-728.9953218
-750.2679756
-739.0671513
-767.4967032
-780.837046
-773.4833443
151.3905707
87.78258139
89.71667211
-99.05887315
-157.6810586
-144.853353
-317.4145751
-364.3186692
-346.4124977
-486.5434257
-521.2575474
-503.7337807
-608.7637059
-632.5434183
-617.0079071
-723.3005518
-748.0596934
-722.7861058
-767.9511147
-783.4013435
-765.1922423
-795.4178211
-803.9657001
-791.9543246
162.9357424
79.10974648
81.28061788
-163.437805
-236.6572054
-211.8995231
-422.6958541
-472.9386066
-439.43602
-592.2739366
-623.1802944
-592.3865802
-697.6205498
-717.0908785
-692.2924012
-804.3955022
-812.658607
-778.1768281
-821.8568365
-828.6700549
-804.6665864
-833.3736044
-836.3612527
-819.7536076
196.6320358
67.89255803
71.69992683
-293.0519715
-393.0378976
-342.2971517
-616.345719
-667.4919543
-607.4712482
-771.4149902
-792.1451977
-743.3587551
-830.0290332
-837.8398476
-804.0765241
-907.8771005
-890.6105855
-850.1379366
-886.8027242
-882.2632218
-854.7923615
-877.1782514
-872.7035469
-854.1411787
263.2777026
9.385962311
37.1988464
-621.5403851
-756.2388444
-632.3102888
-982.3144425
-1013.182346
-910.113944
-1037.942558
-1031.747719
-964.8113312
-1003.53928
-993.049893
-951.5555932
-1022.887996
-976.0750097
-933.0481417
-955.8386574
-937.2607084
-910.1060571
-920.9736179
-907.4928206
-890.3700985
468.9434446
123.6009638
164.5723238
-1600.307959
-1547.962442
-1396.753377
-1383.695925
-1332.571865
-1253.998229
-1201.259505
-1165.382153
-1122.679088
-1131.465296
-1056.558501
-1018.315568
-1017.569549
-984.888019
-962.5789961
-958.1209617
-936.3483529
-921.508807
-3488.871265
-3256.907208
-3006.047889
-2354.242778
-2159.698745
-2020.090728
-1727.003474
-1619.828384
-1555.931415
-1375.402631
-1314.224959
-1281.761716
-1206.713498
-1111.536246
-1088.131084
-1058.627126
-1015.249248
-1002.80739
-979.9167618
-952.026561
-944.3943979
-4582.181175
-4256.105016
-4234.256086
-2718.431841
-2465.619454
-2432.867916
-1907.983388
-1772.716823
-1752.549434
-1468.701778
-1393.669643
-1382.546058
-1224.374527
-1127.9738
-1125.269257
-1068.558778
-1020.030535
-1021.165039
-980.5570701
-949.3516476
-951.2318956
-3982.446458
-3771.950768
-3876.685677
-2532.689888
-2327.293721
-2396.308176
-1848.967703
-1727.56014
-1754.663724
-1446.189866
-1375.016749
-1385.520736
-1182.376583
-1099.505065
-1119.139127
-1042.742101
-996.0350413
-1011.60521
-957.3160808
-926.5710123
-938.6982969
-2882.909577
-2781.461038
-2910.606666
-2034.782488
-1913.165421
-2031.065491
-1608.699259
-1525.790824
-1585.672863
-1323.650922
-1269.952325
-1302.12787
-1089.46111
-1031.239365
-1069.690782
-984.4757721
-945.251369
-973.6813049
-911.9712079
-885.1813837
-906.508652
-1812.303117
-1792.285153
-1907.492712
-1459.866501
-1417.329837
-1540.837554
-1292.002994
-1252.512769
-1323.311708
-1145.029316
-1113.38716
-1155.361528
-985.9026582
-911.7625064
-857.7644752
789.6435676
-4186.64377
-4109.829399
-4450.825603
-3972.245315
-4056.810142
-4312.626327
-3039.412906
-3167.733881
-3304.184839
-1659.728805
-1665.443673
-1579.363816
-6595.962351
-6596.545051
-6772.563521
-6190.193792
-6061.904637
-6102.729054
-5392.713712
-5440.094797
-5533.555032
-6716.592652
-6562.209247
-6569.841038
-6141.037515
-6176.800443
-6312.263087
-3617.917509
-3714.050258
-3787.137719
-5368.081431
-5284.805002
-5333.940173
-1496.677025
-2036.803781
-2150.832388
-2201.977686
-4739.546973
-4472.346601
-4115.018897
-2749.794998
-2709.859437
-2797.35895
-2213.546221
-2290.731103
-2314.696004
-3492.487862
-3429.106131
-3522.771325
-2885.163373
-2973.783306
-3021.332806
1372.858378
1506.681831
1118.1579
680.1859981
188.3022759
235.1639668
-6212.097468
-5866.212712
-5396.579188
-5792.101273
-5833.22322
-5939.868843
-5792.666959
-5697.586568
-5738.590085
-6408.670151
-6428.696361
-6572.517011
-6475.778964
-6347.695002
-6369.206056
-4122.345663
-4067.762251
-4028.347518
-3000.121098
-2978.51542
-3030.784523
-2689.722301
-2735.632933
-2753.408436
-6595.546318
-6561.979092
-6797.186183
-6798.204713
-6624.417219
-6602.02283
-4948.347874
-5001.168166
-5077.544541
-4898.901784
-4833.157592
-4886.844257
-2608.519786
-2594.501474
-2639.441613
-2742.595119
-2472.842794
-2559.472969
-2060.549313
-2047.769167
-2125.688441
-1708.229687
-1729.157516
-1589.325053
-1930.154612
-2301.8989
-2295.680178
-3742.241342
-3362.111408
-3458.144949
-1994.828263
-2013.4023
-1925.230472
-5046.522511
-5260.513393
-4957.587416
-4916.121793
-4480.727073
-4513.081
204.3885163
201.031914
91.54815776
93.08200787
148.2551048
-18.17906213
36.45998735
33.21492808
41.4232539
39.51125234
-15.18678589
-134.1214796
-125.5299524
-73.13622233
-226.5198293
-177.5648382
-187.2737572
-164.2829814
-169.5792053
-218.9904453
-331.4515569
-319.2637956
-274.575326
-402.5178712
-362.7072156
-375.1036132
-345.3333714
-352.4315473
-392.8118582
-488.4793428
-475.3292658
-440.7525641
-538.0250815
-508.3283703
-521.2232666
-490.2397256
-497.6370914
-528.2228417
-603.2971207
-591.4728127
-566.2627775
-636.4322265
-615.3104094
-626.5277187
-599.7082795
-606.0598559
-628.0851166
219.8828495
214.6405268
83.46497183
85.66415757
153.0089699
-47.36046687
18.50700582
11.89883176
29.15831199
24.25201458
-38.07936971
-190.8318165
-172.895118
-111.4738105
-286.3789495
-231.4044636
-252.0039094
-199.3237657
-213.9546673
-267.1314841
-410.4688917
-385.5560535
-337.8673435
-470.2401225
-429.7105873
-454.8951057
-390.1107103
-408.2078917
-448.7893588
-565.2854734
-541.6361633
-507.5431949
-601.3444149
-572.9392454
-595.5149321
-536.1828996
-553.2981069
-582.3268565
-669.879272
-650.0995542
-627.0756568
-689.6336654
-670.9110465
-689.8101183
-639.4721634
-654.1899207
-673.6367868
258.971624
245.6409149
74.52715828
76.90231546
168.6925305
-103.0030396
-14.3672554
-26.35290509
4.357111555
-4.294409329
-85.58048754
-300.6080971
-265.8761088
-187.3136077
-402.7789745
-337.8661854
-377.2000874
-276.1883903
-304.5452007
-366.5790498
-556.0862002
-511.5767644
-460.6166235
-594.9913982
-556.170543
-600.2267917
-484.0796243
-517.6706811
-557.2634544
-698.3316866
-658.1422676
-628.7710618
-706.9721147
-684.0782233
-721.7448581
-621.3359212
-650.7010609
-675.4423004
-772.7604827
-743.8599232
-726.9034603
-771.1294309
-758.4739098
-784.9804184
-710.8992045
-733.8656336
-748.4218548
353.2439855
321.7032608
52.92590409
62.18487981
210.1837676
-221.8153902
-83.92516136
-117.3473086
-41.02314712
-59.57474037
-181.0885011
-534.5179738
-455.9412791
-346.8130826
-625.3841768
-548.6328019
-631.6357355
-423.9781884
-480.2519614
-554.4591956
-818.1628315
-737.5373139
-687.5573532
-807.2509686
-777.0289384
-852.8930591
-650.8283428
-709.5548963
-743.8882707
-902.3860943
-844.9120412
-829.2916083
-864.1561322
-856.0700468
-908.2014111
-763.228696
-807.8411493
-820.2450116
-912.1151851
-873.9028015
-869.8953288
-878.6655499
-876.6738193
-910.9150034
-813.5619141
-844.1855407
-849.4853842
580.6094905
502.5829971
-259.3628575
-38.36246758
282.0555682
-586.5587837
-338.8692431
-499.8439859
-165.0457674
-234.8910404
-447.9072499
-1118.636343
-915.9009268
-777.0177507
-1075.62164
-1012.680307
-1199.507467
-732.540306
-857.5613597
-931.5700305
-1257.552318
-1128.075712
-1111.388297
-1128.030407
-1133.053077
-1244.516053
-936.8078775
-1029.507883
-1035.880451
-1176.597929
-1102.103483
-1116.806548
-1068.846897
-1085.801923
-1151.071075
-965.0798421
-1023.517964
-1013.899133
-1079.28988
-1035.863876
-1052.081343
-1006.660882
-1020.658368
-1058.632586
-946.1281433
-982.9588612
-973.5328579
-85.54136088
50.85627971
489.4308048
-708.5876462
-363.1442852
-592.6418208
-112.9663687
-215.1546335
-511.7611459
-1866.853951
-1706.931068
-1792.955543
-1547.483212
-1624.72612
-1755.496363
-1364.650313
-1492.805042
-1437.496057
-1485.399029
-1410.301228
-1475.886343
-1297.242749
-1350.825931
-1414.059556
-1217.808787
-1284.906474
-1241.083544
-1245.62775
-1206.647843
-1249.305223
-1135.520144
-1168.850661
-1202.357931
-1096.340835
-1133.292077
-1104.818386
-3688.954825
-3485.722205
-3757.00575
-3054.977663
-3255.616437
-3435.998084
-2370.185789
-2278.127148
-2499.85674
-1930.628727
-2090.487069
-2166.98112
-1880.079103
-1993.506082
-1850.554631
-1720.213776
-1675.557584
-1793.582374
-1485.453847
-1573.646478
-1611.249555
-1473.219191
-1526.743203
-1445.802122
-1365.676305
-1342.799304
-1409.038144
-1235.583653
-1285.371766
-1304.831008
-1233.401786
-1261.309277
-1215.131838
-4230.318785
-4253.901212
-4568.377251
-3711.182986
-3969.334342
-3957.519919
-3937.35921
-3966.65766
-3714.363695
-2443.934815
-2466.486287
-2716.308254
-2071.348577
-2254.059029
-2238.32517
-2220.238917
-2249.728169
-2065.615275
-1769.475607
-1778.785349
-1914.097369
-1560.846489
-1661.967942
-1653.271022
-1638.686302
-1656.185157
-1555.531007
-1393.63409
-1398.098903
-1473.574355
-1275.889918
-1332.782752
-1328.977406
-1319.245383
-1328.724112
-1272.483535
-3541.613379
-3659.674588
-3853.857904
-3303.081161
-3476.83696
-3373.089789
-3665.106782