/*--------------------------------*- C++ -*----------------------------------*\
| =========                 |                                                 |
| \\      /  F ield         | OpenFOAM: The Open Source CFD Toolbox           |
|  \\    /   O peration     | Version:  v2012                                 |
|   \\  /    A nd           | Website:  www.openfoam.com                      |
|    \\/     M anipulation  |                                                 |
\*---------------------------------------------------------------------------*/
FoamFile
{
    version     2.0;
    format      ascii;
    class       surfaceScalarField;
    location    "2";
    object      phi;
}
// * * * * * * * * * * * * * * * * * * * * * * * * * * * * * * * * * * * * * //

dimensions      [0 3 -1 0 0 0 0];
oriented        oriented;


internalField   nonuniform List<scalar> 
6464
(
0.4583218315
0.002322456734
-0.002280488197
0.4584216595
0.002193828742
-0.002070522766
0.4584838282
0.001916694545
-0.001754729491
0.4585035172
0.001586212297
-0.001409114128
0.4584940383
0.001250075835
-0.001097453752
0.4584874723
0.0009249814815
-0.0008538685153
0.4584535522
0.0007503163468
-0.0006140170453
0.4584614885
0.0005025284951
-0.001775488436
0.9186257336
0.0002480137551
-0.0004482589215
-0.00111144271
0.9186859543
-1.819548917e-05
0.9157567528
0.9137818045
-0.004527104626
-0.2291318664
0.2290457955
0.004613298173
-0.004611063198
-0.2293123817
0.2293678456
0.004555599271
-0.004153694429
-0.2294231911
0.2295751459
0.004001739591
-0.003464363136
-0.2294656905
0.2296648741
0.003265179504
-0.002709183622
-0.229447938
0.2296438505
0.002513271061
-0.002030285973
-0.2293962941
0.2295610338
0.001865546268
-0.4588669304
-0.002765869078
0.4602834208
0.001349378737
-6.175011111e-05
0.4609076473
-0.001604093918
-0.4592418033
-0.001895767335
0.9180527221
0.000650830035
0.0018179488
-0.001168781172
0.9179589681
0.0002671209665
0.9143208506
0.9140489255
-0.2287281983
-0.004325517186
0.2286038407
0.004453888309
-0.2284967074
-0.004775201158
0.2284404981
0.004855942664
-0.2292194067
-0.005232289266
0.2290398704
0.005436713406
-0.2305279619
-0.006300880928
0.2307894447
0.006040650619
-0.2304643865
-0.004923914901
0.2308274054
0.004560895996
-0.00328880922
-0.2302950696
0.2309708914
0.002612987373
-0.4628861518
0.000494382399
0.4616824344
0.0007093349753
-0.4599729877
-0.0008882444977
0.4599227772
0.0009384549503
-0.0002572174982
0.9196434395
-0.0007988895085
-0.0005346103684
0.001344942932
0.9163568077
0.0006195600331
0.9150462335
0.9146684855
-0.2280782
-0.01578183843
0.2278315068
0.01603917739
-0.2292131752
-0.01561126069
0.2297922186
0.01508583716
-0.2302443473
-0.0127144858
0.2312594564
0.0117757965
-0.2311378115
-0.009039831365
0.2319807039
0.008256069464
-0.2344867354
-0.00196434323
0.2383894794
-0.001935928816
-0.003314637467
-0.2318396488
0.2318518782
0.003302408072
-0.4616250752
-0.004878705582
0.4627691953
0.003734585496
-0.4605990972
-0.002589661872
0.461523775
0.00166498405
0.002407882472
0.919404065
-0.001163801596
-0.001004706353
0.001712420409
0.9170522697
0.0007818104446
0.9159768435
0.915450296
-0.2267308464
-0.03209638518
0.2261952078
0.03264458096
-0.2323405456
-0.03189369553
0.2335798176
0.03071825654
-0.2360790279
-0.02463437885
0.238369086
0.02245497987
-0.2440305911
-0.008565516785
0.2422394002
0.01047101457
-0.2348773473
-0.009025242831
0.2363232821
0.007643374652
-0.004815540231
-0.233202306
0.2337242192
0.004293627024
-0.4643425007
-0.005524976706
0.4658260106
0.004041466845
-0.4623756041
-0.003008608465
0.463240895
0.002143317647
0.003024737616
0.9209907245
-0.002648221511
-0.0019631756
0.001604684723
0.9184723226
0.0007142140931
0.9168673141
0.91616451
-0.2237816709
-0.04503178262
0.2227406778
0.0460752218
-0.2393327902
-0.04252966931
0.2402775743
0.04162096341
-0.2520928396
-0.02965516143
0.2509249438
0.0309327807
-0.2466154528
-0.02528129906
0.2497741965
0.0222706104
-0.2426585955
-0.01382852899
0.2453223406
0.011283905
-0.004735019978
-0.2362155936
0.23727247
0.003694561858
-0.4670787716
-0.005469866342
0.4683103842
0.004238253688
-0.4636990635
-0.003346167156
0.4640953859
0.002949844753
0.002260217135
0.9228910539
-0.00196490596
-0.002195640651
0.001165588691
0.9195669511
0.0004443452866
0.9175885575
0.9166088553
-0.0328771351
-0.1087153978
0.1081509453
0.03344158759
-0.02655539088
-0.2514821353
0.05013215317
-0.02693759554
0.1270264728
0.1278164957
-0.04096846603
-0.2570447034
0.2606235506
0.03746156878
-0.2601117217
-0.02617950909
0.2628735396
0.02357363343
-0.2534271371
-0.01614225227
0.2563693478
0.01334902884
-0.006357548753
-0.2418649959
0.243647282
0.004632474026
-0.4695038184
-0.004283148246
0.4701369296
0.003650037069
-0.4649262843
-0.002652526562
0.4657304118
0.0018483991
0.0008472043776
0.924098073
-0.0008944411234
-0.001159782313
0.000235682993
0.9201784725
1.368215899e-05
0.9178105584
0.9166225375
-0.03331660474
-0.1411486854
0.1441045455
0.03036074464
-0.03663289307
-0.2713139765
0.2748138647
0.03317035981
-0.2726046348
-0.02383099722
0.2756554833
0.02092779707
-0.2651347597
-0.01289399696
0.2677108415
0.01048441323
-0.005857012393
-0.2487460081
0.2504960414
0.004188164809
-0.4711251271
-0.001995456201
0.4718906012
0.001229982106
-0.4663394253
-0.0007229445751
0.4668167782
0.0002455916651
-0.001294724547
0.9244245396
0.0007607237005
0.0002075342582
-0.001075434593
0.9199591825
-0.0005849540325
0.9173200778
0.9160375835
-0.01476422231
-0.1572644126
0.1577694055
0.01425922942
-0.0204819137
-0.282046466
0.2831636045
0.01938535857
-0.2827057659
-0.01529581547
0.2844179128
0.01372293692
-0.2742997808
-0.008568059811
0.2760916305
0.006945536858
-0.002528172529
-0.2545982008
0.2558331487
0.001384836661
-0.472890018
0.001063096709
0.4736655069
-0.001838585654
-0.4669776013
0.002108138522
0.4670018127
-0.002132349992
-0.003828757521
0.9234354119
0.002649366092
0.002168519138
-0.002647617808
0.9187780428
-0.001358131742
0.9160305918
0.9146794517
0.003754627281
-0.1548224108
0.153770418
-0.002702634417
-0.001947394877
-0.2836175371
0.2828369082
0.002749591513
-0.2880931552
-0.002988630317
0.2886937007
0.002525794909
-0.2802897932
-0.0003934414512
0.2812385562
-0.0003881057032
0.00220610549
-0.2578024031
0.2582252538
-0.002538741475
-0.4734724551
0.005273572123
0.4728284072
-0.004629524262
-0.466671801
0.004347911022
0.4668587646
-0.004534874657
-0.006577870435
0.9211015717
0.004763821759
0.0041478889
-0.004321290637
0.916521463
-0.00217904283
0.9138883439
0.9125004089
0.01360236393
-0.1447195938
0.1433081816
-0.01219095178
0.01199672459
-0.2794757767
0.278385461
-0.01087014262
-0.2899923975
0.01044367011
0.2881110852
-0.008423143646
-0.2828725566
0.007865869369
0.2828285383
-0.00765967786
0.006771867481
-0.2573139388
0.2569184053
-0.006297968295
-0.4718530718
0.009231382688
0.4705893085
-0.00796761942
-0.4669175482
0.006829782586
0.4658754998
-0.005787734209
-0.009099169307
0.91764278
0.006490393367
0.006067567599
-0.005929760604
0.9133520543
-0.002921371504
0.9108799549
0.9095790374
0.01690326761
-0.1338098061
0.1324540885
-0.01554754998
0.01997004092
-0.2749207137
0.274253547
-0.01924399066
-0.2873109615
0.01494951646
0.2900393374
-0.017531843
-0.2817524362
0.0176048429
0.2811135277
-0.01681286819
0.01076796854
-0.2532945001
0.2517042419
-0.009118075031
-0.4690856581
0.01250811887
-0.01077175883
-0.4647741981
0.009239091881
-0.007904809261
-0.01134342396
0.006826766795
-0.007328534689
-0.003568151325
0.1605909427
0.01754545253
-0.1597816708
-0.008877607912
-0.009477116536
-0.1423645684
-0.03677164762
0.1458196113
0.1570833207
-0.00187074201
-0.1582235905
0.001694694619
0.001316317153
0.16102161
-0.007314980591
-0.007879909067
0.1458658078
-0.01288428042
-0.1473587495
0.00725879429
0.007118427845
0.1558645334
0.002673467191
0.002299947419
0.1342689683
-0.01670624518
-0.1356082261
0.01804550301
0.01510505097
0.1443631208
0.01848249956
0.1326897363
-0.1051228855
0.1037621065
0.03388028999
-0.1386953431
-0.03754951529
-0.123730128
-0.02825512174
0.1254298589
0.04339496366
0.009799237355
-0.04308569805
-0.01010850297
0.02701818091
-0.07271940536
-0.02934745339
0.07504867785
0.01674076887
-0.156459729
0.2845148647
0.02520542367
-0.2820930129
-0.0276268316
-0.2707895199
-0.04076239615
0.2749254185
0.04926057603
0.0008767184019
-0.04935996264
-0.0007773317902
-0.0461436461
0.003671171119
-0.003029021805
0.04550149679
-0.0009497594949
-0.1557433934
0.2851395344
0.006336367629
-0.2862087954
-0.005267012448
-0.02195667716
0.2859897787
0.03943303616
-0.004229533518
-0.03979740337
0.004593900729
-0.04268201977
-0.001655665643
0.001204944582
0.04313274084
-0.01146958382
-0.1461342904
0.2763633539
-0.008905339394
-0.2789111519
0.01145638128
-0.0002732971169
0.2834657369
0.07072132512
-0.0109306666
-0.07123785366
0.01144719514
-0.07460024981
-0.01006043126
0.0741101134
0.005346820646
0.005203747013
0.007970754552
0.03059839011
-0.007734431978
-0.03083471269
0.06401477196
-0.01116959907
-0.06445301944
0.01160784655
-0.06724836387
-0.01146066867
0.01184715808
0.06686187447
0.004245074434
-0.04653703608
-0.003851684463
0.009386341122
-0.009595139987
0.04360376253
-0.1548404165
0.02573519801
0.1569420198
-0.01365577186
-0.01418102948
-0.08476730211
-0.008965516004
0.08546528165
0.01765387758
0.04498147765
0.004434701712
-0.04517110493
-0.001471665856
-0.04221582174
0.001005467817
0.000211589122
-5.423846542e-05
0.04910322537
-0.07989098227
0.002479212981
-0.002413267693
0.07982503698
-0.04773013484
0.04753197605
0.0004097479085
0.04203386462
-0.001703895919
-0.04180163456
0.04463090086
0.004021747908
0.0008931370576
-0.04774655349
0.00321358766
-0.0800556177
-0.003048952231
-0.009874976416
-0.0751218852
0.005218407079
0.005178204729
-0.004095127041
0.004283548969
0.03924461423
-0.1517839253
-0.009740004861
0.1503107644
0.005726046359
0.005487119436
-0.07840429696
0.004080411929
0.07785729922
-0.007628541233
0.07438085132
-0.009397807366
-0.07485802037
0.04224943372
-0.001871234738
0.00407071485
-0.007358203165
-0.03979901756
-0.0395473246
-0.00850443877
-0.1531414537
0.005051351682
0.004810615497
-0.01138144741
-0.06771800409
0.01185108762
-0.01115963542
0.01157184487
0.07030911568
-0.02896286823
-0.007317905155
0.006821656018
-0.02923293324
0.008240819566
0.01140649251
-0.007342778273
0.03200025225
0.01381216176
-0.04560387791
-0.0002085361086
0.02111338682
-0.03720325546
-0.02328733173
0.03937720037
0.04511124952
-0.007682567637
-0.03725137475
-0.0001773071305
-0.01543345382
-0.1350825975
0.2683471843
-0.01834716157
-0.269961922
0.01998209946
0.01432707989
0.2740388866
0.0378436988
-0.007250076685
-0.03038263742
-0.0002109846933
0.06515425103
-0.01312672264
-0.06576626314
0.006901529716
0.006837205043
-0.03353746206
-0.006593592609
0.006692074882
0.03343897978
-0.07258898143
0.07449036563
0.02511679671
-0.01011355008
0.01894177729
-0.08379629197
0.0281753574
-0.1522308243
-0.01518440282
-0.01560054676
-0.006641844086
-0.03369074515
0.006795127183
-0.03572636091
-0.006841284418
0.00730088143
0.0352667639
-0.139970757
-0.01591798242
0.01739308008
0.1384956593
-0.07076960304
0.07027947914
-0.01066951153
0.06730973391
-0.01093787604
-0.06775330527
0.07392429301
-0.009603872946
-0.01053611852
-0.07116415112
-0.01547264334
-0.1414516491
0.01695353549
0.02297248656
-0.05202585693
-0.02164418615
0.05069755651
0.02708333319
-0.070478917
-0.02932382155
0.04228419577
-0.123595484
-0.02215716779
-0.02330228183
0.0628457274
0.06392501041
-0.05586673936
0.05487140319
0.02396782274
0.03297984971
-0.0009795974523
-0.08130432109
0.02393737044
0.08315661542
-0.01275281282
-0.01303685195
-0.04359402642
0.05965199556
0.01692188057
-0.03692907943
0.03867619186
0.01936627439
0.01572937669
-0.04551124136
0.02507419853
-0.07936931823
-0.01337590853
-0.01363329286
-0.04150091182
0.002666496545
-0.002648883637
0.04148329891
0.002348415686
-0.04182354011
-0.002025787395
-0.04015663342
-0.003201372508
0.003121273049
0.04023673288
-0.003439619977
-0.04047413171
0.003757118268
-0.006174828979
0.03661389789
-0.03564301963
0.005203950724
-0.009677640759
0.02183850367
0.03295038661
-0.07262816388
-0.01067392773
0.01108221351
0.07221987811
-0.03848684482
0.0366813742
-0.007872170141
0.03668531095
-0.006381016264
-0.03647912366
-0.03399934143
0.03802475756
-0.003791836644
-0.0002335794789
-0.006902061387
-0.03926735107
-0.01052404977
-0.07307917699
0.005521429168
0.005453633713
0.06311668495
-0.01276476319
-0.06363501077
0.01328308901
-0.01307470296
0.06459008034
0.006827937712
0.006810935934
0.01841856192
0.02826413852
-0.00883900164
-0.04457033915
0.006458914081
-0.006204895388
0.04431632046
0.006901097238
-0.04462948829
-0.006841948099
-0.03999067821
-0.0009340962884
0.0008304043686
0.04009437013
-0.001293081536
-0.04018201298
0.001484416307
0.04079813296
-0.001000703242
-0.04109051125
0.08195190794
-0.000108566654
-0.0822753032
0.0004319619172
-0.08308748676
0.001888248058
-0.001659378457
0.08285861716
0.08060819277
-0.002408246042
-0.08096451843
0.002764571702
-0.0007178285697
0.001036898078
0.08163283843
0.04077605516
-0.0009120184877
0.04221367969
0.00250826782
-0.04237353182
0.08359702788
0.005668134417
-0.08366622815
-0.005598934148
-0.08363353078
0.008179069693
-0.008241755758
0.08369621685
0.00260339569
-0.08328015966
-0.002410722782
0.004878536807
-0.0047990845
0.08351757558
0.04232617771
0.002553998529
-0.03842326319
-0.004621702702
0.004809977277
0.03823498862
-0.00185483382
-0.03206526049
-7.924712495e-05
-0.004651350109
-0.03865277672
0.004880863641
0.006166548254
0.03684441754
-0.006325654846
0.006938873735
0.03519572073
-0.006617390379
-0.03551720408
0.06898141757
-0.01129747235
-0.06942384113
0.0117398959
-0.03622855841
0.007441071234
0.005475675079
0.03730477106
0.01866187568
-0.0002433137668
-0.01266169493
0.01303508972
0.03867378085
-0.04048425683
0.001810475975
0.03447039016
-0.006961085283
-0.03450256345
0.006993258568
-0.031966553
-0.006918102206
0.006537881475
0.03234677374
-0.006542823642
-0.01040735213
0.009809952332
0.007140223448
-0.007620976804
-0.03284844502
0.008502868823
-0.02991213851
-0.00760726821
0.006292536247
0.03122687047
0.03032239222
-0.04735854921
-0.02844138714
0.02229223029
0.02318531384
0.0205425911
-0.03527892235
-0.02246692421
0.03083574676
-0.05911283114
-0.03277829609
0.06105538047
-0.05221904345
0.03297160604
0.02417946225
0.02539036739
-0.04643545161
0.003976358726
-0.005916977355
0.04837607024
-0.04204728219
0.04126996044
0.0009153938506
-0.0001380721061
0.04009991326
0.0006235286676
-0.04036632848
-0.0003571134443
0.04344611787
0.002768435312
-0.0440936452
-0.002120907989
-0.04089061697
-0.003670765711
0.003822359165
0.04073902351
-0.04301358338
0.003526466735
0.04340383471
-0.003916718067
0.03822259662
0.006980150406
-0.006023506393
-0.03917924063
-0.03780979047
0.03792011277
2.655861886e-05
-0.000136880912
0.04357847434
-0.003561316275
-0.03978628145
-0.0002308766162
0.04329578998
-0.002954076764
-0.0436397732
0.003298059985
-0.04481749769
0.006196481477
-0.007115524694
0.04573654091
-0.04086247149
-0.02860461669
0.05771217743
0.01175491075
0.001909122649
-0.04377551279
-0.0001808920417
0.04385157939
0.006844008285
-0.04379449044
0.08271734412
0.01276587667
-0.08232442774
-0.01315879306
-0.08059136323
0.01554341749
-0.01621230615
0.08126025188
0.009068149993
-0.08350875132
-0.009192929453
0.01181841285
-0.01214758874
0.08304652001
0.0438039749
0.006506518571
-0.04097729004
-0.001094174726
0.0007122071738
0.04135925759
-0.03741929285
0.03749243256
0.0001961893169
-0.0002693290271
0.000161710914
-0.03768294015
-0.0002885612347
0.04562970168
-0.002714761701
-0.04771187759
0.004796937611
0.003682350185
0.03889365624
-0.004353409808
0.00256794424
0.04213079966
-0.003504897246
-0.04119384666
0.0392858761
-0.004220494682
-0.03924992283
0.004184541413
0.07632409429
0.004540580023
-0.008538687549
-0.07697733687
-0.007146765256
0.0754725652
-0.07591166928
0.007585869341
-0.07722611166
-0.006257908035
0.006692855286
0.07679116441
0.04020314199
-0.003174262173
-0.0404684998
0.07897021133
-0.004366799048
-0.07942504956
0.004821637277
-0.002935458717
0.003301881267
0.08024177022
-0.005895248004
-0.07767991623
0.006349052572
-0.004782751919
0.00519749419
0.07855546906
0.04015424547
-0.003152475985
-0.01133181841
0.01171233248
0.0686009035
0.03492255073
-0.006568114423
0.06700822535
0.006641399715
-0.01278622085
-0.06750524829
-0.03705453043
-0.009240828081
0.01848258263
0.02781277588
-0.04305271938
0.02041828022
-0.02083031439
0.04346475355
-0.03298890426
0.04349430867
0.02816837644
0.0207714405
-0.04221013638
-0.0216140235
-0.0287696349
-0.002255064455
0.03121382496
-0.0001891256072
-0.006107695623
-0.02243419914
-0.0002277401335
0.0336063997
-0.007269503789
-0.03376448395
0.007427588037
-0.007457848844
0.007972986123
0.03395525288
0.01920151831
-0.01893059488
-0.0002709234242
0.01214656165
-0.01415696365
0.002795878171
-0.01188910788
0.01097421113
0.002398926429
0.006533240249
-0.03122742831
0.03257226995
-0.00787808189
0.009200789106
0.03321593872
-0.008129486382
-0.03428724145
0.03436503595
-0.006753309183
-0.03469340994
0.007081683174
-0.04057090769
0.01985955829
-0.02073138909
0.02744263682
-0.000178007477
0.03292731412
-0.03201025945
-0.0009170546722
0.04701748919
0.01341877271
-0.04593896862
-0.01449729327
-0.04353352945
0.01434861729
-0.01515159911
0.04433651127
0.04868585779
0.0122031309
-0.04661781441
-0.01427117428
0.01254305876
-0.01281963902
0.04729406945
0.01461714856
-0.04283114464
-0.01531953336
-0.04014140413
0.01564935129
-0.0165602787
0.04105233155
-0.04319084442
0.04450102266
0.01910810198
-0.03861717078
0.03771331529
0.001225959567
-0.0003221040743
0.02686476076
-0.02676676872
-9.799203659e-05
0.004514094201
-0.04399222447
-0.006957321343
0.002578031787
-0.001973329873
0.04284141596
0.0397751043
0.0005531482956
-0.0002283393322
0.0006771322459
-0.03911913746
-0.0001751655633
0.0004005684377
-0.0381920479
0.03960073285
-0.001809253386
0.001049076901
-0.002186146011
-0.04187651427
-0.003425674851
-0.0407500856
0.003285143487
0.03795793282
-0.03654944821
-0.0003594077137
-0.03456097043
0.03552836338
-0.0005668245085
0.03601551829
-0.03557931868
0.006543950794
0.04188273474
-0.0003983351852
-0.002165830126
-0.03224621706
-0.0001489232454
-0.003512282428
0.004404510033
0.04240356237
0.05154217217
-0.007741039074
-0.000222658755
-0.003601058726
-0.0367568193
-0.03774890601
-0.007029784183
0.007558796695
0.0372198935
-0.005461274617
-0.03627950564
0.003991874246
0.03799366518
-0.006085932098
-0.0373690077
0.036281101
-0.005969182092
-0.03639313857
0.006081219656
-0.03730870652
-0.005848548897
0.006289372853
0.03686788256
0.03405447002
-0.006926060906
-0.03323610474
0.03744313814
-0.005859266144
-0.03780306401
0.006219192015
-0.03858843342
-0.005360204738
0.005227911548
0.03872072661
-0.005801923249
-0.03755559271
0.006048809443
-0.005656696009
0.00566184371
0.03743799044
0.03614942857
-0.004350023
0.007206452304
0.03197746867
-0.007483255477
-0.0317006655
0.03257013794
-0.007065569956
-0.03281879549
0.007314227509
-0.007309681012
0.007651133939
0.03326494677
-0.002323616412
-0.04744987207
0.04550503721
0.004268451268
-0.008531001207
0.008979375404
-0.04131084568
0.006313738565
-0.04420894322
-0.006922293036
0.02856845236
-0.03686602189
-0.0002334316753
-0.04364854345
0.04145991387
-0.0001349868286
-3.616432597e-05
0.04245077499
0.006413799649
-0.04521573263
-0.003648842012
0.01049476483
-0.0113074803
0.04949857326
0.005235942416
-0.04870024898
-0.0001842368883
0.009478807415
-0.008542337501
0.04151430508
-0.04377397332
0.008080920641
-0.008342997493
0.04403605017
-0.04407024693
0.04443175001
0.009117304338
0.006153563392
-0.04836749304
-0.036872566
0.03716533469
3.952507394e-05
-0.0003322937615
0.0002686970764
-0.03725714806
-0.0004308418662
-0.0009744549141
-0.04063311055
0.0006302754232
-0.003218088468
0.005810956196
0.04303683395
0.02596463252
-0.02563534699
-0.0003292855309
-0.0005568411256
-0.0362386126
-7.711227468e-05
0.03973317196
-0.005905042495
-0.04047098439
0.006642854923
-0.03837220571
-0.005175126142
0.00438191225
0.0391654196
-0.005193097725
-0.03818407417
0.004788738482
-0.00628950552
0.00745715572
0.03856552176
0.02299586909
-0.02262238703
-0.0003734820564
0.04211676434
-0.04073255007
0.001183729971
0.001963873163
0.03773399531
-0.006607052686
-0.03906598573
0.007300832702
-0.004285138648
0.003656679744
0.04274522325
-0.02045165277
-0.0002797363201
-0.03601218808
-0.006538925136
0.006283160721
0.0362679525
-0.02703519775
0.03013045153
-0.002968062703
-0.0001271910765
-0.009554677454
-0.04212440362
-0.005938617539
-0.02093883848
-0.000157741737
-0.006937644972
-0.03629185152
0.007217308413
-0.02960900267
-0.000239075447
0.03079361952
-0.1380620149
0.0389877374
-0.2669367202
-0.04282722666
-0.2551250371
-0.04438623339
0.2585868076
-0.02486067389
0.02772243557
-0.002621041474
-0.0002407202045
-0.01936232063
-0.005310104186
-0.0001882490739
0.0212258243
0.2671182428
-0.01905631161
-0.0003060090215
0.06692448876
-0.01107542352
-0.02084843858
-0.1299435186
0.01116619705
-0.0167628197
-0.129997773
0.01807330735
0.02043551012
-0.01978532836
-0.019399495
0.01874931324
-0.0190547961
-0.01209586794
0.01713027006
0.01402039398
-0.008991359186
0.01026407735
-0.01168007028
0.02717104952
-0.03043774668
-0.03721755967
0.02180115408
-0.02746764608
-0.02279526683
0.02846175883
-0.0226034025
0.02116842503
0.02187048759
-0.1300714334
0.0331242738
-0.03545183395
0.1323989936
-0.1266555537
0.1287108818
0.04022886771
0.02513812677
-0.07064377502
0.01078712902
-0.04213946552
-0.01109620065
0.04244853714
-0.04546085729
0.04593443603
0.01206948001
0.04764558499
0.01115773763
-0.04660019172
0.03142081096
-0.006944278373
-0.03163826299
0.0071617304
-0.007002751583
0.007399923766
0.03217296575
0.0311431004
-0.008406459806
0.006564370978
0.06650389377
-0.01265363201
0.06519208919
-0.01262807553
-0.0656907363
0.06562386759
-0.01137238211
-0.0660600028
0.01180851732
0.0480587815
0.01008156832
0.007801994648
-0.04545844193
0.008334199779
-0.04370940036
-0.008398772732
-0.0258226533
0.005309055526
0.007729276378
-0.02888365255
-0.00807855707
0.03471284499
-0.02670015972
-0.0002834088906
0.01713101126
-0.006857607284
0.006992181304
-0.06063684806
0.0158718559
-0.00083888575
-0.03322358811
-0.003788622826
-0.0002391638071
-0.03241297045
0.03261318622
-0.007450292446
0.004703738809
-0.03058457251
-0.006532136751
-0.02540991182
-0.0002689867866
-0.03336882069
0.03339816337
-0.006947444881
0.03420273407
-0.006900686712
-0.03426313264
0.03313285413
-0.006561584337
-0.03323734747
0.006666077679
0.01643883467
-0.07981197393
-0.01721822397
-0.076894533
0.01886008745
-0.01993397146
0.07796841701
-0.07987698399
0.0813997519
0.02241460253
-0.006660483824
0.006980960865
0.0340445589
0.03328188631
-0.007673215796
-0.007245622542
-0.03374417495
-0.06539067956
0.02552093082
-0.02672758202
0.06659733077
-0.06169264323
0.0628599721
0.0296684179
0.0190725857
-0.03545907403
0.014851003
0.04553201799
-0.000731025423
-0.0460320506
0.04570195791
0.0151810957
-0.04505950271
0.01594933268
-0.03071009454
0.03097728874
-0.0002671941959
0.01024497963
-0.0406488306
-0.0003062435737
0.007160587459
-0.03566257417
-0.007141032928
0.03319622017
-0.03207499802
0.006039365305
0.002942544254
0.03545762664
0.02196903683
-0.0001305331645
-0.006349302651
0.02838806162
-6.972213798e-05
0.03400884443
-0.007407760473
-0.006015297451
0.03555009427
-0.03568405253
0.006149255706
-0.005921788383
0.006129664965
0.03607322442
0.03761377787
-0.006649896868
-0.007555814177
0.04593017631
-0.000349604572
-0.03957267041
0.03864682824
-0.006629972003
-0.03859810545
-0.004766401609
-0.007301962156
0.005745766099
0.02982033458
-0.03185464008
0.03219881641
-0.007646138486
-0.008080455507
-0.03310201982
0.03512550587
-0.001788045154
-0.000235440891
-0.03045481636
-0.002328606216
-0.0003185972474
-0.0367312321
-0.003721707162
0.002365577792
-0.03471021771
-0.004386592181
-0.02954476804
-0.0001549146536
-0.02359360618
-0.006570007766
-0.0002912024091
-0.0233943279
-0.0001992782778
-0.004266325919
0.004418394932
0.03913380708
0.04233309842
-0.004487437409
0.03929909137
-0.005876676928
-0.04002946713
0.02472645057
-0.0003188087884
-0.03173843013
0.03906722601
-0.007078886859
-0.0002499090166
-0.003700619965
-0.0003153745935
0.02992862464
-0.02870084735
-0.00489074956
0.03219833273
0.03357876362
-0.006122739445
0.007961405367
-0.003435194498
0.00528374147
-0.006833102567
0.01397332602
0.001325761249
0.006635644119
0.007306645744
-0.03289076657
-0.007264324196
0.03925429014
-0.03165448357
-0.0002931608269
0.02658078004
-0.02012242926
-0.000165814539
-0.004903083414
-0.0001706201139
-0.00656697951
-0.03169249083
0.01852825475
-0.01928786323
0.03245209932
-0.02965929759
0.03057493849
0.02088551318
0.02641437281
-0.03223222756
-0.04699872485
0.0431235726
0.00406636453
-0.0001912122775
-0.0550919855
0.008424207436
-0.0003309467871
-0.04184601697
0.04145407809
0.0004786845071
-8.674562727e-05
0.001464342511
-0.0001867868842
0.0006623235472
0.04080651729
-0.0001988803976
-0.04620249327
0.04525576517
0.001609051653
-0.04735232161
0.002065222188
-0.04441742711
0.0437240834
0.001316872375
-0.0005609395623
0.001399277619
-0.0001207507544
-6.620790598e-05
0.03845146522
-0.000465144549
-0.04345739868
0.04429325528
-0.0009020645133
-0.04286823191
-0.0005626081433
-0.04515151238
0.04520478566
-0.003614589556
0.0009588329161
-0.001817090009
-0.0003759833125
0.009389332637
0.04830919489
1.364990143e-05
-0.04714984103
0.04892884891
0.00761032475
-0.04417757269
0.008782642413
-0.04856173565
0.003118536689
-0.004763921793
0.005131035057
-0.0002302396961
0.0001205290924
0.03747938589
-0.0001074824254
-0.04138789151
0.04178514789
-0.0002767272862
-0.04097914152
-0.0002125606719
-0.04232548589
-0.00038103511
-0.0002596159367
-0.0002807220642
-0.0004631701975
-0.04153813633
0.04266696417
-0.0007459390819
-0.0003828887584
4.720037228e-05
-0.0001312586084
-0.04612873893
0.05383860385
-0.007387757187
-0.0003221077307
-0.003303308126
-0.0001584666367
-0.01747961574
-0.0002330278575
0.01888898184
-0.0004063992067
-0.007504166745
-0.0003070111389
-0.008575043413
-0.0003486044812
0.03601961727
-0.05618226315
-0.0006676685149
0.03750069399
-0.001481076717
0.02032859948
0.04418607508
-0.0006917664101
-0.03795526112
0.05646586544
0.02567547075
0.02583452273
-0.03562140741
-0.03569310356
0.03626344037
-0.0005703368081
0.02129580444
-0.0005230425552
-0.001749981814
-0.0002597813351
-0.02204444279
-0.0003897563543
-0.005951865383
-0.0002565281295
-0.02910764884
-0.007428789058
-0.008971017711
-0.01112018568
-0.03270249403
-0.007603925411
-0.0002644882448
-0.0002628709705
-0.005068736347
-0.0001911208659
-0.04432799415
0.06097394779
0.01628136047
-0.01381190774
0.0151858715
-0.0002901492013
-0.01202710464
-0.04657460222
0.01198389246
0.04392496286
-0.04570708787
0.06063107732
-0.04871798954
0.00856710072
-0.0004979417825
0.01289295146
-0.0006369932094
0.002952598105
0.03493573995
-0.0001750227658
-0.04000200872
0.03878931768
0.004165289151
-0.04100258554
0.002226536388
-0.03892465197
0.01069742724
-0.008377599793
0.008242265496
-0.0002086285678
0.0005072513284
0.03942816525
-0.0001603122831
-0.04305469573
0.04240023943
0.001161707625
0.001222535967
-0.04176594385
0.001440490551
-0.0005692895277
0.001203585112
-0.0002602617367
-0.001249312586
9.247150932e-05
0.04075757393
-0.04007464058
-0.002266087298
0.0410914153
-0.03915644298
-0.002727450988
-0.03601132667
-0.0002707067229
-0.0002674148169
-0.0003904917849
0.02392477599
-0.0498520564
-0.009652038267
0.02417619348
-0.0002514174886
0.03116680411
-0.0004466598378
-0.007701217235
-0.0002681044236
-0.0250574198
-0.007060284058
-0.0001285131948
-0.0246902038
-0.0003672160051
-0.009773216273
0.03662518464
-0.04326190607
0.04023757196
-0.006748882158
-0.005798159488
-0.0388079825
-0.003949519211
0.007191918712
-0.005762329253
0.04385573958
-0.03602877277
-0.0002681701123
-0.009368292045
0.0211490336
-0.007810972712
0.02145144293
-0.0003024093223
-0.02767971427
0.0308305993
-0.0002083407714
-0.0001889060429
0.00299331843
-0.00526397964
0.03167420111
-0.0002928210563
-0.0003626974111
-0.03676021492
-0.006639646654
0.03647380067
0.009350371224
-0.007463757909
0.003926625303
0.04331131945
-0.001732907544
-0.04528403063
0.04387536331
0.005335292622
0.005546798057
-0.04656237742
-0.04306923077
0.007871033483
-0.005403517442
0.00620964998
-0.003403043674
-0.03970670243
-0.0005623631362
2.030389432e-05
-0.003226418968
-0.04790310051
0.005913786846
0.04111069351
-0.04391690133
-0.0004202111488
0.03765925613
-0.0001974046329
0.04959153017
-0.0002679331561
0.006043693447
-0.0003690646053
0.007639166201
-0.05864609586
0.01021899524
-0.0002731483611
0.02918356224
-6.664360908e-05
0.02956958841
-0.00038602617
0.01243779763
0.0001598345827
0.03728391792
-0.0002784178208
-0.03984096808
0.04023273683
-0.0002319341618
-0.03931370371
-0.0004877392947
-0.04055045983
-0.0001599846131
-0.0001280047788
-0.0001897182247
-0.0001012349118
-0.007550003109
0.03373715243
-0.0002225167953
-0.0378981563
0.03758742993
-0.007239276733
-0.009694899443
-0.03857133359
-0.001299211245
0.002240813894
-0.003224717561
-0.0002606462774
-0.03915696854
0.0470452557
-0.007787616769
-0.0001006703908
-0.00387280326
-0.0001586594187
-0.006339853626
-0.0002090453284
-0.03396285293
-0.007087218415
-0.009539984252
0.0005033932924
-0.03930971651
-0.001926226857
0.03517864294
-0.03445921484
-0.0002160348004
0.03670286028
-0.0003404873707
0.03353269993
-0.0004020226587
-0.0006264508145
-0.0003000640953
-0.002202172009
0.009915449112
-0.04144942695
-0.007532007892
0.03521794384
-0.04869682263
0.03594876877
0.04066511016
-0.0003055701422
-0.007812428598
-0.0002192838654
-0.006516632299
-0.004012668078
0.03436331361
-0.0002201939979
-0.03491573955
0.03647524774
-0.005572176267
-0.03262856461
-0.005255237636
-0.03619767333
-0.008196880082
0.03483987596
0.007491664538
-0.007214090135
-0.0002694254768
-0.03511173997
0.04284241409
-0.007497755115
-0.0002329190012
-0.003975556016
-0.0003055846543
-0.0314432885
-0.007123893655
0.02069776865