/*--------------------------------*- C++ -*----------------------------------*\
| =========                 |                                                 |
| \\      /  F ield         | OpenFOAM: The Open Source CFD Toolbox           |
|  \\    /   O peration     | Version:  v2012                                 |
|   \\  /    A nd           | Website:  www.openfoam.com                      |
|    \\/     M anipulation  |                                                 |
\*---------------------------------------------------------------------------*/
FoamFile
{
    version     2.0;
    format      ascii;
    class       pointVectorField;
    location    "2";
    object      pointDisplacement;
}
// * * * * * * * * * * * * * * * * * * * * * * * * * * * * * * * * * * * * * //

dimensions      [0 1 0 0 0 0 0];


internalField   nonuniform List<vector> 
7018
(
(0 0 0)
(0 0 0)
(0 0 0)
(0 0 0)
(0 0 0)
(0 0 0)
(0 0 0)
(0 0 0)
(0 0 0)
(0 0 0)
(0 0 0)
(0 0 0)
(0 0 0)
(0 0 0)
(0 0 0)
(0 0 0)
(0 0 0)
(0 0 0)
(0 0 0)
(0 0 0)
(0 0 0)
(0 0 0)
(0 0 0)
(0 0 0)
(0 0 0)
(0 0 0)
(0 0 0)
(0 0 0)
(0 0 0)
(0 0 0)
(0 0 0)
(0 0 0)
(0 0 0)
(0 0 0)
(0 0 0)
(0 0 0)
(0 0 0)
(0 0 0)
(0 0 0)
(0 0 0)
(0 0 0)
(0 0 0)
(0 0 0)
(0 0 0)
(-4.329200192e-07 2.778661914e-05 3.330669074e-16)
(2.001390371e-06 2.362158308e-05 2.91433544e-16)
(0 0 0)
(0 0 0)
(0 0 0)
(0 0 0)
(0 0 0)
(0 0 0)
(0 0 0)
(0 0 0)
(0 0 0)
(0 0 0)
(0 0 0)
(0 0 0)
(0 0 0)
(0 0 0)
(0 0 0)
(0 0 0)
(0 0 0)
(0 0 0)
(0 0 0)
(0 0 0)
(0 0 0)
(0 0 0)
(0 0 0)
(0 0 0)
(0 0 0)
(0 0 0)
(0 0 0)
(0 0 0)
(0 0 0)
(0 0 0)
(0 0 0)
(0 0 0)
(0 0 0)
(0 0 0)
(0 0 0)
(-2.367077737e-05 0.002068909871 3.524958103e-14)
(-1.805232689e-05 0.002975803595 5.828670879e-14)
(0.0004523652905 0.002935210163 5.755118604e-14)
(0.0002601829192 0.00203426615 3.468059173e-14)
(0.0008484345078 0.001557821973 2.658984144e-14)
(0.001508570362 0.002382479897 4.679590049e-14)
(0.00164870855 0.002081083601 4.089784067e-14)
(0.0008906805383 0.001303963952 2.225997164e-14)
(0.0005223656854 0.0004759105218 8.118505868e-15)
(0.001297812912 0.001023864761 2.012279232e-14)
(0.000975556357 0.0006843729898 1.344757639e-14)
(0.0003050191926 0.0002468270983 4.204969706e-15)
(0 0 0)
(5.133734276e-05 2.700148008e-05 5.273559367e-16)
(0 0 0)
(0 0 0)
(0 0 0)
(0 0 0)
(0 0 0)
(0 0 0)
(0 0 0)
(0 0 0)
(0 0 0)
(0 0 0)
(0 0 0)
(0 0 0)
(0 0 0)
(0 0 0)
(0 0 0)
(0 0 0)
(0 0 0)
(0 0 0)
(0 0 0)
(0 0 0)
(0 0 0)
(0 0 0)
(0 0 0)
(0 0 0)
(0.0001386249175 0.004221721223 1.499772528e-13)
(0.0002407785712 0.00378103712 1.843247777e-13)
(0.001733591225 0.003730535361 1.830480212e-13)
(0.001352500388 0.004172426336 1.487976409e-13)
(0.004381033726 0.003642850787 1.312561171e-13)
(0.005532425921 0.003282301547 1.639244296e-13)
(0.006383392424 0.003046674869 1.528083216e-13)
(0.005017588608 0.00335508668 1.211669654e-13)
(0.005355076124 0.002262863303 8.190670364e-14)
(0.007131083121 0.00215274046 1.085381784e-13)
(0.006735720698 0.00181616611 9.145462165e-14)
(0.004927399923 0.001857895007 6.718237078e-14)
(0.002503213216 0.0007161821534 2.57294186e-14)
(0.004006770561 0.0008243713317 4.110600749e-14)
(0.002829565494 0.0005405844575 2.682576383e-14)
(0.00157002598 0.0004160472433 1.490474411e-14)
(0 0 0)
(0.0001356864875 2.124246571e-05 1.040834086e-15)
(0 0 0)
(0 0 0)
(0 0 0)
(0 0 0)
(0 0 0)
(0 0 0)
(0 0 0)
(0 0 0)
(0 0 0)
(0 0 0)
(0 0 0)
(0 0 0)
(0 0 0)
(0 0 0)
(0 0 0)
(0 0 0)
(0 0 0)
(0 0 0)
(0 0 0)
(0 0 0)
(0.0005905231293 -0.0006746900592 2.813999034e-13)
(0.0006789721207 -0.003088291794 3.078093336e-13)
(0.003180007952 -0.00314503152 3.06601966e-13)
(0.002874666375 -0.000728965618 2.800953913e-13)
(0.008975232391 -0.0008242997168 2.59708921e-13)
(0.009965777974 -0.003129136288 2.87242452e-13)
(0.01176034582 -0.003045371014 2.751410211e-13)
(0.01053200512 -0.0008225876195 2.472744232e-13)
(0.0129023105 -0.0006969577983 1.940114736e-13)
(0.01476405186 -0.002521079633 2.21253571e-13)
(0.01479302118 -0.002262564804 1.981470543e-13)
(0.01278704175 -0.0006187841825 1.718208908e-13)
(0.00971252162 -0.0003368508063 9.874046025e-14)
(0.01211277046 -0.001401503726 1.224853552e-13)
(0.01042713114 -0.001118392905 9.753309271e-14)
(0.00826010503 -0.0002664278854 7.752132269e-14)
(0.002856016918 -7.010518533e-05 2.187139359e-14)
(0.004269637433 -0.000359546338 3.26683125e-14)
(0.002408050195 -0.0001883438823 1.736111255e-14)
(0.001375822216 -3.062191864e-05 9.922618283e-15)
(0 0 0)
(0 0 0)
(0 0 0)
(0 0 0)
(0 0 0)
(0 0 0)
(0 0 0)
(0 0 0)
(0 0 0)
(0 0 0)
(0 0 0)
(0 0 0)
(0 0 0)
(0 0 0)
(0 0 0)
(0 0 0)
(0 0 0)
(0 0 0)
(0.0007175557302 -0.01171826806 3.558819905e-13)
(0.0006475960567 -0.01458173887 3.595734821e-13)
(0.003590740841 -0.01467507444 3.595179709e-13)
(0.003622142051 -0.01179533278 3.554101458e-13)
(0.01204506892 -0.01174020042 3.454736497e-13)
(0.01235108989 -0.01478159827 3.547717675e-13)
(0.0150037946 -0.01463387068 3.489153411e-13)
(0.0145211764 -0.01154957687 3.37341266e-13)
(0.01963810432 -0.01015722788 2.912808883e-13)
(0.02087263683 -0.01321653577 3.085309785e-13)
(0.02183132229 -0.01242190166 2.88158386e-13)
(0.0203248065 -0.009445756414 2.687433609e-13)
(0.01866864266 -0.006614899569 1.875999356e-13)
(0.02057520244 -0.008905964478 2.066263827e-13)
(0.01882047649 -0.007523198999 1.751238043e-13)
(0.0168790137 -0.005518804983 1.571520691e-13)
(0.009164024784 -0.00240929653 6.991629498e-14)
(0.0108033135 -0.003482889588 8.236467064e-14)
(0.007783051186 -0.002351856879 5.594136265e-14)
(0.006375921186 -0.001569577049 4.58660887e-14)
(0.0004204452144 -8.698935008e-05 2.581268532e-15)
(0.0007223175131 -0.0001838395277 4.427014311e-15)
(1.833524181e-05 -4.441628057e-06 1.110223025e-16)
(0 0 0)
(0 0 0)
(0 0 0)
(0 0 0)
(0 0 0)
(0 0 0)
(0 0 0)
(0 0 0)
(0 0 0)
(0 0 0)
(0 0 0)
(0 0 0)
(0 0 0)
(0 0 0)
(0 0 0)
(0.0003805209925 -0.02280826249 0)
(0.0003363934818 -0.02417920153 0)
(0.00183834785 -0.02422634329 0)
(0.001874337016 -0.02285527136 0)
(0.01245423215 -0.02330935879 0)
(0.01245373554 -0.02471882267 0)
(0.01246318921 -0.02615044356 0)
(0.01395587102 -0.02624160475 0)
(0.01542773778 -0.02630492912 0)
(0.0154537379 -0.02347530764 0)
(0.0232068374 -0.02279139281 3.437944374e-13)
(0.02354185718 -0.02587680947 3.496508638e-13)
(0.02530766818 -0.02490130632 3.356342981e-13)
(0.02478095105 -0.02179622981 3.280015148e-13)
(0.02497280891 -0.01670021588 2.50882648e-13)
(0.02586089329 -0.01934951268 2.599587212e-13)
(0.02453337757 -0.01697610627 2.282896094e-13)
(0.02342757254 -0.01448736914 2.179367797e-13)
(0.01508849431 -0.007569460234 1.148664497e-13)
(0.01650089188 -0.009260050128 1.256078574e-13)
(0.01299566172 -0.006847118183 9.325873407e-14)
(0.01170468594 -0.005512191151 8.401612739e-14)
(0.00260384736 -0.001033159964 1.59317004e-14)
(0.003254783824 -0.001445379797 1.99146255e-14)
(0.001165898352 -0.000492095018 6.800116026e-15)
(0.0007932498394 -0.0002991666206 4.62130334e-15)
(0 0 0)
(0 0 0)
(0 0 0)
(0 0 0)
(0 0 0)
(0 0 0)
(0 0 0)
(0 0 0)
(0 0 0)
(0 0 0)
(0 0 0)
(0 0 0)
(0 0 0)
(0 0 0)
(0.01229026472 -0.03456916464 0)
(0.0122536179 -0.03597031519 0)
(0.01371580491 -0.03602305867 0)
(0.01375392501 -0.03462403128 0)
(0.02388493432 -0.03483490392 3.57811003e-13)
(0.02385667887 -0.03768900323 3.586853037e-13)
(0.02622576626 -0.03700579908 3.513855873e-13)
(0.02615764436 -0.03409314306 3.493871858e-13)
(0.02832063249 -0.02795518355 2.858269177e-13)
(0.02863595441 -0.0305641317 2.895600426e-13)
(0.02763748633 -0.02725341619 2.583905312e-13)
(0.02726530176 -0.02487111672 2.545047506e-13)
(0.01935954231 -0.01431650583 1.475347622e-13)
(0.01979038777 -0.01581680063 1.509348202e-13)
(0.01606636535 -0.01206071823 1.15435439e-13)
(0.01565655774 -0.0108739073 1.124378368e-13)
(0.004722293339 -0.00276720073 2.889355422e-14)
(0.005332481195 -0.003379813034 3.264055692e-14)
(0.0025429481 -0.001531898934 1.482147738e-14)
(0.002093398531 -0.001165956837 1.219857548e-14)
(0 0 0)
(0 0 0)
(0 0 0)
(0 0 0)
(0 0 0)
(0 0 0)
(0 0 0)
(0 0 0)
(0 0 0)
(0 0 0)
(0 0 0)
(0 0 0)
(0 0 0)
(0 0 0)
(0.01196451955 -0.0457465913 0)
(0.01192009698 -0.04713987215 0)
(0.01337891396 -0.04718755544 0)
(0.01342357051 -0.04579498861 0)
(0.02364605972 -0.04612477573 3.595179709e-13)
(0.02355626961 -0.04891001279 3.595734821e-13)
(0.02617674792 -0.04843199365 3.554379013e-13)
(0.02622736312 -0.04561445587 3.548827898e-13)
(0.02942284612 -0.03856368022 2.99343883e-13)
(0.02953765149 -0.04113152878 3.01175751e-13)
(0.02885388221 -0.03708044788 2.716438186e-13)
(0.02868017991 -0.03470157723 2.695066392e-13)
(0.02133562514 -0.02089768776 1.631195179e-13)
(0.02163716127 -0.02249650606 1.655758863e-13)
(0.0179594963 -0.01753397941 1.293687379e-13)
(0.01764252056 -0.01622764176 1.269956362e-13)
(0.006113817778 -0.004744982078 3.742839372e-14)
(0.006361980965 -0.005240455032 3.895495038e-14)
(0.003280808702 -0.00256859774 1.91235916e-14)
(0.003093022092 -0.002281654743 1.804112415e-14)
(0 0 0)
(0 0 0)
(0 0 0)
(0 0 0)
(0 0 0)
(0 0 0)
(0 0 0)
(0 0 0)
(0 0 0)
(0 0 0)
(0 0 0)
(0 0 0)
(0 0 0)
(0 0 0)
(0.01159349009 -0.05688013223 0)
(0.01154500181 -0.05826801583 0)
(0.01300222476 -0.05831333573 0)
(0.0130508911 -0.05692590744 0)
(0.02326605067 -0.0572394148 3.595457265e-13)
(0.02316356233 -0.05999772378 3.594763376e-13)
(0.02573811093 -0.05926390607 3.546052341e-13)
(0.02586793162 -0.05660954596 3.550770789e-13)
(0.02921312835 -0.04790800843 2.999545057e-13)
(0.02903885663 -0.05003277602 2.988581604e-13)
(0.02835820664 -0.04502762314 2.6906255e-13)
(0.02853516737 -0.04314190138 2.702144064e-13)
(0.02135599921 -0.02606575216 1.639244296e-13)
(0.0212000315 -0.02715314226 1.628974733e-13)
(0.01755551027 -0.02110276989 1.268429806e-13)
(0.01769699455 -0.02027465368 1.277727923e-13)
(0.006188649432 -0.005979689422 3.792799408e-14)
(0.006107347966 -0.006190652699 3.744227151e-14)
(0.003094330526 -0.002981269631 1.806887973e-14)
(0.00315157153 -0.002894419067 1.838806885e-14)
(0 0 0)
(0 0 0)
(0 0 0)
(0 0 0)
(0 0 0)
(0 0 0)
(0 0 0)
(0 0 0)
(0 0 0)
(0 0 0)
(0 0 0)
(0 0 0)
(0 0 0)
(0 0 0)
(0.01119525154 -0.0679669407 0)
(0.01114284706 -0.0693527717 0)
(0.01259870584 -0.06939657055 0)
(0.01265141878 -0.06801113482 0)
(0.02280646875 -0.06814087832 3.586297925e-13)
(0.02265865991 -0.07075687374 3.579081476e-13)
(0.02497168299 -0.06912280115 3.493039191e-13)
(0.02521247693 -0.06682416601 3.513300761e-13)
(0.02794810152 -0.05515367426 2.896294315e-13)
(0.0273441384 -0.05625157454 2.839950497e-13)
(0.02659639935 -0.05034501457 2.542549504e-13)
(0.02709357384 -0.04921145451 2.585431869e-13)
(0.01962435664 -0.02867916945 1.51212376e-13)
(0.01912428707 -0.02910145007 1.474931288e-13)
(0.01551889762 -0.02214939116 1.124378368e-13)
(0.01598361006 -0.02191171708 1.157407503e-13)
(0.004991276318 -0.00576766108 3.06143999e-14)
(0.004723170749 -0.00568128995 2.899069873e-14)
(0.002100400114 -0.002401695271 1.226796442e-14)
(0.002280179825 -0.002504686992 1.33226763e-14)
(0 0 0)
(0 0 0)
(0 0 0)
(0 0 0)
(0 0 0)
(0 0 0)
(0 0 0)
(0 0 0)
(0 0 0)
(0 0 0)
(0 0 0)
(0 0 0)
(0 0 0)
(0 0 0)
(0.01076622816 -0.0790263629 0)
(0.01070992778 -0.08040750861 0)
(0.01216531036 -0.08045013607 0)
(0.01222205987 -0.07906900478 0)
(0.0221197049 -0.07818519483 3.54216656e-13)
(0.02188890264 -0.08042727161 3.521488656e-13)
(0.02382435702 -0.07732102839 3.382988334e-13)
(0.02416610193 -0.07552246447 3.418931804e-13)
(0.02564565233 -0.05922213757 2.679800826e-13)
(0.0251942456 -0.06031880975 2.638167462e-13)
(0.02392449658 -0.05259936061 2.301769886e-13)
(0.02469491372 -0.05240604984 2.372269048e-13)
(0.01688762115 -0.0287409796 1.305344721e-13)
(0.01582721854 -0.02787949765 1.224020885e-13)
(0.0122814896 -0.02028134442 8.916478667e-14)
(0.01334488192 -0.02129403783 9.685308111e-14)
(0.003350942597 -0.004505428573 2.058075932e-14)
(0.00292653679 -0.004072983381 1.797173521e-14)
(0.0009507088744 -0.001258179238 5.551115123e-15)
(0.00119661203 -0.001529752486 6.994405055e-15)
(0 0 0)
(0 0 0)
(0 0 0)
(0 0 0)
(0 0 0)
(0 0 0)
(0 0 0)
(0 0 0)
(0 0 0)
(0 0 0)
(0 0 0)
(0 0 0)
(0 0 0)
(0 0 0)
(0.01200861541 -0.04435548371 0)
(0.0105497752 -0.04430452406 0)
(0.01052772094 -0.0449992748 0)
(0.01050597541 -0.04569641189 0)
(0.01082372377 -0.0345059991 0)
(0.01079042022 -0.0359130433 0)
(0.01164177529 -0.05549057219 0)
(0.01018514422 -0.05544482171 0)
(0.01016121279 -0.05614002599 0)
(0.01013709505 -0.05683503161 0)
(0.01048408302 -0.04639412231 0)
(0.01046205612 -0.0470920211 0)
(0.01124601078 -0.06658234142 0)
(0.009790323871 -0.06653919037 0)
(0.009765208112 -0.06723127369 0)
(0.009739788029 -0.06792283341 0)
(0.01011284694 -0.05753009727 0)
(0.01008872068 -0.05822336846 0)
(0.01082250999 -0.07764579465 0)
(0.009367692501 -0.07760357071 0)
(0.00931054772 -0.07898501044 0)
(0.009687557483 -0.06930924804 0)
(0.009256298455 -0.08036628625 0)
(-0.001093407097 -0.0227618923 0)
(-0.001141680222 -0.02413327626 0)
(0.01232288831 -0.03316129383 0)
(0.01085627795 -0.0331002899 0)
(0.01095678847 -0.02323647806 0)
(0.0109512299 -0.02463556716 0)
(0.006294260675 -0.03995941745 0)
(0.006303671094 -0.03960738502 0)
(0.005935499014 -0.03959534962 0)
(0.005925080049 -0.0399475873 0)
(0.00642393158 -0.03431397611 0)
(0.005689286601 -0.03427999429 0)
(0.005678994089 -0.03499309434 0)
(0.006412687869 -0.03502509566 0)
(0.01346816318 -0.0444044108 0)
(0.02373256121 -0.0433398814 3.594347042e-13)
(0.02081654003 -0.04325622191 0)
(0.02072568208 -0.04603546121 0)
(0.0210751845 -0.03490025399 0)
(0.02099091541 -0.03768432158 0)
(0.005872642754 -0.05112663982 0)
(0.005885463644 -0.05077880823 0)
(0.005470875042 -0.05076594376 0)
(0.005458184301 -0.05111352262 0)
(0.006115927031 -0.04555337495 0)
(0.005734440606 -0.04554253693 0)
(0.005733819143 -0.04589088875 0)
(0.006110233146 -0.04590207769 0)
(0.01309929432 -0.05553667233 0)
(0.02336567611 -0.05446918784 3.595734821e-13)
(0.02044366671 -0.0543771792 0)
(0.02034598437 -0.05715292372 0)
(0.02063366743 -0.04881671866 0)
(0.0055792301 -0.06225425949 0)
(0.005589006311 -0.06190703663 0)
(0.005222079523 -0.0618960239 0)
(0.00521435007 -0.06224331249 0)
(0.005761501746 -0.05669727596 0)
(0.005387188307 -0.05668467724 0)
(0.005364804329 -0.05703149521 0)
(0.005744174176 -0.05704464168 0)
(0.01270269749 -0.06662635954 0)
(0.02293708131 -0.06546442641 3.590738817e-13)
(0.02004555677 -0.06546598285 0)
(0.0199423863 -0.06823262347 0)
(0.02024738849 -0.05992311532 0)
(0.005174479358 -0.07333225229 0)
(0.005201550927 -0.07264106675 0)
(0.004477128229 -0.07262037181 0)
(0.004450807587 -0.07331177415 0)
(0.005382241127 -0.06779432806 0)
(0.004656074353 -0.06777274215 0)
(0.004642948669 -0.06811966476 0)
(0.004630681395 -0.06846725722 0)
(0.005356876311 -0.06848736679 0)
(-0.001046838734 -0.08423135235 0)
(-0.000685331437 -0.08424116339 0)
(-0.0006775712589 -0.08389451807 0)
(-0.001042562561 -0.08388369595 0)
(0.004721302968 -0.0843817785 0)
(0.004751739841 -0.08369160022 0)
(0.004027718884 -0.08367239542 0)
(0.003997854875 -0.08436233519 0)
(0.0049563252 -0.07886078666 0)
(0.004233297575 -0.07884065035 0)
(0.0042050555 -0.07953128448 0)
(0.004928397517 -0.07955143089 0)
(0.006123988013 -0.04520436285 0)
(0.005739396632 -0.04519381049 0)
(0.005915364659 -0.04029891627 0)
(0.006284182213 -0.04031045216 0)
(0.01213602018 -0.04016820799 0)
(0.01067520282 -0.04011481484 0)
(0.01065477646 -0.04081287421 0)
(0.01063458994 -0.04151346544 0)
(0.01209449205 -0.04156535839 0)
(0.00627528583 -0.04066047791 0)
(0.007006528365 -0.04068620895 0)
(0.007026176255 -0.03998639043 0)
(0.006490377922 -0.04556469353 0)
(0.006499920804 -0.04521553634 0)
(0.005779061001 -0.05635049573 0)
(0.005409878905 -0.05633851139 0)
(0.005449750242 -0.051461752 0)
(0.00586365967 -0.05147536539 0)
(0.01178345521 -0.05131678031 0)
(0.01105470909 -0.05129331319 0)
(0.01103150021 -0.05199001791 0)
(0.01176012213 -0.05201335259 0)
(0.006267129759 -0.05148845086 0)
(0.006277049369 -0.05113956268 0)
(0.006131706307 -0.05670942159 0)
(0.006146194045 -0.05636228581 0)
(0.006481871929 -0.04591356287 0)
(0.006289318234 -0.05079152067 0)
(0.0118065649 -0.05062116427 0)
(0.01107775462 -0.05059769509 0)
(0.005407281953 -0.06710217811 0)
(0.00468057004 -0.06708076738 0)
(0.004668347861 -0.06742675559 0)
(0.005203031684 -0.06259035737 0)
(0.00556731089 -0.06260141353 0)
(0.01139716271 -0.06242959931 0)
(0.009940958386 -0.0623865601 0)
(0.00991619875 -0.06307955404 0)
(0.009891345819 -0.06377145311 0)
(0.01134722109 -0.06381473867 0)
(0.005554768138 -0.06294758413 0)
(0.006281815987 -0.0629691341 0)
(0.006306569441 -0.06227633265 0)
(0.006107736263 -0.06781582817 0)
(0.006132980346 -0.06712374898 0)
(0.006117328349 -0.05705713895 0)
(0.006330766045 -0.06158287103 0)
(0.005966064963 -0.06157135173 0)
(0.005599531622 -0.06156028742 0)
(0.01144629083 -0.06104379156 0)
(0.00999070311 -0.06099955182 0)
(0.009966051193 -0.06169319149 0)
(0.004984891735 -0.07816964913 0)
(0.00426131232 -0.07814949509 0)
(0.004424641167 -0.07400337413 0)
(0.005148563169 -0.07402386031 0)
(-0.001401801625 -0.08422361409 0)
(-0.001417476395 -0.08456769305 0)
(-0.001058621703 -0.08457658394 0)
(-0.001403598541 -0.08387402851 0)
(0.003966674848 -0.08505165464 0)
(0.004690089034 -0.08507135377 0)
(-0.0006972529945 -0.08458639052 0)
(0.003392880492 -0.03703712226 0)
(0.003377858305 -0.03668970034 0)
(0.003008819905 -0.03669824141 0)
(0.003115344318 -0.03698416203 0)
(0.003451976897 -0.03415651063 0)
(0.003068143139 -0.03413616654 0)
(0.003056640198 -0.0345071583 0)
(0.003442977786 -0.03452233526 0)
(0.002302583677 -0.07046223485 0)
(0.002299600845 -0.07011331769 0)
(0.001915041652 -0.07007476303 0)
(0.001848848722 -0.07036275445 0)
(0.01227775189 -0.07768880295 0)
(0.02232150152 -0.07580275142 3.557987238e-13)
(0.01962395208 -0.07652231948 3.595734821e-13)
(0.01950603363 -0.07925030003 3.594069486e-13)
(0.01983792847 -0.0709993512 0)
(-0.001087425921 -0.08135964278 0)
(-0.0006383284977 -0.08145833198 0)
(-0.0006286262816 -0.08111181325 0)
(-0.001002304309 -0.08107482836 0)
(0.00195361266 -0.08154529458 0)
(0.001982064643 -0.0808549241 0)
(0.001258766183 -0.08083542137 0)
(0.001244994944 -0.08118084601 0)
(0.001232113256 -0.08152617076 0)
(0.002067669649 -0.07878285724 0)
(0.001706338932 -0.07877298765 0)
(0.001692347248 -0.07911827676 0)
(0.002053701569 -0.07912821134 0)
(0.007145861998 -0.0350574785 0)
(0.007160163067 -0.03435215543 0)
(0.007045553612 -0.03928499605 0)
(0.006313840853 -0.03925650739 0)
(0.01217682007 -0.0387717343 0)
(0.0107163065 -0.03872088147 0)
(0.01069592712 -0.03941747796 0)
(0.002081008241 -0.07843690489 0)
(0.001719397038 -0.07842676937 0)
(0.002163733022 -0.07601412578 0)
(0.00178931369 -0.07600062447 0)
(0.001782255639 -0.07634780617 0)
(0.002153127952 -0.07636035861 0)
(0.01098539641 -0.07350165054 0)
(0.009530090351 -0.07345864018 0)
(0.009476530382 -0.07484045194 0)
(0.01093159216 -0.0748830691 0)
(0.005872829818 -0.07404461446 0)
(0.005899336529 -0.07335321809 0)
(0.005680127356 -0.07888120476 0)
(0.005708997746 -0.07819020544 0)
(0.006082411535 -0.0685084186 0)
(0.005926029544 -0.07266202039 0)
(0.01103894579 -0.07211816852 0)
(0.009583385146 -0.07207508575 0)
(0.0002291199374 -0.02829214416 0)
(-0.0005703440938 -0.02827315636 0)
(-0.0005919312321 -0.02895916143 0)
(0.0002065131075 -0.02897819356 0)
(0.006434819965 -0.03360432111 0)
(0.005698878406 -0.03356931368 0)
(0.006431081187 -0.02860534353 0)
(0.004899462789 -0.02851023437 0)
(0.004890401154 -0.02920460593 0)
(0.004918983043 -0.02992519027 0)
(0.005704014076 -0.02999659335 0)
(0.006456523798 -0.0300436823 0)
(0.001041233244 -0.02901081231 0)
(0.001058417129 -0.0283239208 0)
(0.003280795735 -0.03748254599 0)
(0.006368083159 -0.03714704828 0)
(0.005635823407 -0.03711879254 0)
(0.0056264611 -0.03747292676 0)
(0.005617156248 -0.03782647193 0)
(0.006351038855 -0.03785319336 0)
(0.003739103587 -0.03741423031 0)
(0.003756675363 -0.0370566602 0)
(0.003823211841 -0.03453617103 0)
(0.003829319088 -0.03417299657 0)
(0.003759392088 -0.03670026369 0)
(0.006385110619 -0.03644322771 0)
(0.005653786471 -0.03641703803 0)
(0.00564471794 -0.03676742436 0)
(0.006066518238 -0.04834332261 0)
(0.005720623592 -0.04833118693 0)
(0.005705758943 -0.0486796594 0)
(0.006051925129 -0.04869173957 0)
(0.006076433726 -0.04799456276 0)
(0.005728284945 -0.04798241892 0)
(0.005678595999 -0.05947889016 0)
(0.00531705261 -0.05946824301 0)
(0.005302116914 -0.05981632782 0)
(0.005665617235 -0.05982703782 0)
(0.005688457629 -0.05912980744 0)
(0.005325335393 -0.05911872421 0)
(0.002253127884 -0.07324344602 0)
(0.002268680992 -0.07289833552 0)
(0.001901612814 -0.07288712557 0)
(0.001875926232 -0.07322998381 0)
(0.001982615916 -0.07081015807 0)
(0.002324717513 -0.07081600606 0)
(0.005279849171 -0.07056452621 0)
(0.004554936315 -0.07054349439 0)
(0.004528878266 -0.0712345198 0)
(0.005254176092 -0.07125556398 0)
(0.002694406252 -0.07082781399 0)
(0.002690195403 -0.07047853625 0)
(0.002627842125 -0.07325676412 0)
(0.002640312708 -0.0729110408 0)
(0.002446623021 -0.06769517254 0)
(0.002377843251 -0.06801551594 0)
(0.002759069454 -0.06805325706 0)
(0.002790527586 -0.06770987765 0)
(0.00269497801 -0.07013140994 0)
(0.005305611372 -0.06987291325 0)
(0.004580732657 -0.0698518183 0)
(0.004567625048 -0.07019777807 0)
(0.001834226315 -0.08430608353 0)
(0.001864918244 -0.08361636304 0)
(0.00114554353 -0.08359807818 0)
(0.001115777824 -0.08428795688 0)
(0.001218241184 -0.08187133525 0)
(0.001204645242 -0.0822167013 0)
(0.001924854527 -0.08223539832 0)
(-0.0009789572899 -0.08180514209 0)
(-0.0006308441779 -0.08181047664 0)
(0.00621411966 -0.04276114025 0)
(0.005843831454 -0.04274879925 0)
(0.005837691436 -0.04309819417 0)
(0.006205504176 -0.04311141909 0)
(0.006223672844 -0.04241166225 0)
(0.00585232597 -0.04239928726 0)
(0.005888703766 -0.05391631355 0)
(0.00554538435 -0.05390618741 0)
(0.005531479831 -0.05425456225 0)
(0.005876550861 -0.05426474464 0)
(0.00589623291 -0.05356786243 0)
(0.005552145614 -0.0535576474 0)
(0.00624064904 -0.05392703784 0)
(0.006249844327 -0.05357870445 0)
(0.008777004966 -0.05400707716 0)
(0.0088002989 -0.05331172394 0)
(0.008072635282 -0.0532885485 0)
(0.008049658036 -0.05398404034 0)
(0.008869557341 -0.05122307518 0)
(0.008141065803 -0.05119968046 0)
(0.008118229529 -0.05189678252 0)
(0.008846594805 -0.05192010895 0)
(0.008681741031 -0.05678951482 0)
(0.008705800784 -0.05609431465 0)
(0.007978511833 -0.05607147238 0)
(0.007954385859 -0.05676673464 0)
(0.008026217235 -0.05467996688 0)
(0.008753437902 -0.05470293542 0)
(0.006229139812 -0.05427542538 0)
(0.006420285051 -0.04835532573 0)
(0.006431096742 -0.04800665888 0)
(0.008960337914 -0.04843824556 0)
(0.008982652652 -0.04774138366 0)
(0.008254494285 -0.04771761428 0)
(0.00823230581 -0.04841454446 0)
(0.009048203567 -0.04564818411 0)
(0.008319411825 -0.04562413748 0)
(0.008297954141 -0.04632231145 0)
(0.009026555458 -0.04634628775 0)
(0.008892416566 -0.05052725841 0)
(0.008163862926 -0.05050379747 0)
(0.008209678506 -0.04911113941 0)
(0.008937840994 -0.04913478047 0)
(0.006407041397 -0.04870372179 0)
(0.00548149469 -0.06502505677 0)
(0.005116545908 -0.06501385066 0)
(0.00510505405 -0.06536069728 0)
(0.005469318364 -0.06537181719 0)
(0.002839884631 -0.06737054136 0)
(0.00251548696 -0.06736140823 0)
(0.005492685222 -0.06467839315 0)
(0.005126805861 -0.06466696447 0)
(0.002237106866 -0.07358892687 0)
(0.00261443113 -0.07360297106 0)
(0.002532421073 -0.07602609426 0)
(0.002544125133 -0.07567963981 0)
(0.002173376788 -0.07566702713 0)
(0.005067626185 -0.07609716895 0)
(0.005094885413 -0.07540553983 0)
(0.004371222118 -0.07538499774 0)
(0.004344068079 -0.07607695137 0)
(0.001794942058 -0.0756525619 0)
(0.001852575839 -0.07357349514 0)
(-0.001232890889 -0.08184393784 0)
(0.001084295298 -0.08497649588 0)
(0.001803357915 -0.08499489917 0)
(0.001926537538 -0.03403919145 0)
(0.00147534256 -0.03402501832 0)
(0.001869374938 -0.03446758607 0)
(0.0005419239922 -0.08011867592 0)
(0.0005563132439 -0.07977320689 0)
(0.0001728468313 -0.07975742398 0)
(0.0001589834706 -0.08010271721 0)
(0.0006147541089 -0.07874120821 0)
(0.0002571995666 -0.07873255175 0)
(0.0002398104964 -0.07907683257 0)
(0.000600755774 -0.07908630441 0)
(-0.001864278769 -0.03394137867 0)
(-0.001910162088 -0.03434154611 0)
(-0.001449453334 -0.03440966836 0)
(-0.001469724066 -0.03390048169 0)
(0.0006211852017 -0.07839374946 0)
(0.0002526557287 -0.07838204299 0)
(0.0006532446429 -0.07735364582 0)
(0.0003115958811 -0.07734909692 0)
(0.0002940122654 -0.07769343572 0)
(0.0006480777696 -0.07770133784 0)
(0.0001210422796 -0.03103591623 0)
(-0.0007311963778 -0.03103035928 0)
(-0.000777793817 -0.03172216379 0)
(-0.0003195832021 -0.03171377598 0)
(0.0001160275469 -0.03172110472 0)
(-0.002429300642 -0.031777878 0)
(-0.0023192145 -0.03103428944 0)
(0.003455654749 -0.03378858546 0)
(0.003074510241 -0.03376510041 0)
(0.003413919858 -0.0312491744 0)
(0.002634481935 -0.03119140667 0)
(0.002650117652 -0.03190292377 0)
(0.003440075528 -0.03197630914 0)
(0.0005833216985 -0.03174218732 0)
(0.001011122874 -0.03176862353 0)
(0.001003821927 -0.03107436878 0)
(0.005962451039 -0.04973648641 0)
(0.005573862569 -0.0497242 0)
(0.005523863698 -0.05007212222 0)
(0.005929080341 -0.05008462149 0)
(0.004624330484 -0.04551041948 0)
(0.004645970772 -0.04585755937 0)
(0.00497886097 -0.04586844247 0)
(0.00496297987 -0.04552116638 0)
(0.004694806174 -0.04690186657 0)
(0.005019937402 -0.0469127574 0)
(0.00500860166 -0.04656434273 0)
(0.004681930318 -0.04655320975 0)
(0.006095941399 -0.04694911048 0)
(0.0061009185 -0.04660012781 0)
(0.005735532714 -0.04658832961 0)
(0.005735553337 -0.04693708741 0)
(0.005622694754 -0.06086640725 0)
(0.005249584138 -0.06085455366 0)
(0.00523725818 -0.0612013735 0)
(0.005610243002 -0.06121354418 0)
(0.004091709936 -0.06081036895 0)
(0.00407273336 -0.06115588333 0)
(0.004467505293 -0.06117222199 0)
(0.004481735262 -0.0608259129 0)
(0.004135020176 -0.06221372498 0)
(0.004486665664 -0.06222238435 0)
(0.004484182589 -0.06187290519 0)
(0.00412520178 -0.06186266147 0)
(0.004306860753 -0.05664895604 0)
(0.004269239736 -0.05699464242 0)
(0.004602758014 -0.05700496763 0)
(0.004638159507 -0.05665959534 0)
(0.004144358895 -0.05800472529 0)
(0.004529159556 -0.05804136087 0)
(0.004537195159 -0.05769433902 0)
(0.004184878766 -0.05767917109 0)
(0.005704857633 -0.05808592529 0)
(0.005714373311 -0.0577390152 0)
(0.00532823347 -0.05772488058 0)
(0.005320516614 -0.0580719769 0)
(0.006168279642 -0.04415655932 0)
(0.005797367006 -0.0441442625 0)
(0.005773129982 -0.04449378276 0)
(0.006151312552 -0.04450490004 0)
(0.004738114812 -0.04410427257 0)
(0.004550894736 -0.04454194608 0)
(0.005007225881 -0.04447278334 0)
(0.00506805073 -0.04411974942 0)
(0.004952697788 -0.04517394165 0)
(0.004600880707 -0.04516662555 0)
(0.006581246523 -0.04277312282 0)
(0.006591242657 -0.04242385173 0)
(0.009133850634 -0.04285920752 0)
(0.00915500428 -0.04216250101 0)
(0.008425848174 -0.0421378004 0)
(0.00840487671 -0.04283483389 0)
(0.009215554464 -0.04006301996 0)
(0.008486079197 -0.04003825771 0)
(0.008466298039 -0.0407382261 0)
(0.009195640449 -0.04076312538 0)
(0.009069768969 -0.04495065587 0)
(0.008340853025 -0.04492647679 0)
(0.008383969694 -0.04353386051 0)
(0.009112881517 -0.04355816792 0)
(0.006571658311 -0.04312369156 0)
(0.005830384904 -0.05530831317 0)
(0.00547497284 -0.05529754178 0)
(0.005454023788 -0.05564427738 0)
(0.00581371567 -0.0556553789 0)
(0.004447002011 -0.05526767677 0)
(0.004414467841 -0.05561256309 0)
(0.00473934996 -0.05562261096 0)
(0.004770127222 -0.05527683326 0)
(0.004673221647 -0.05631479021 0)
(0.004344276504 -0.05630506145 0)
(0.005873619624 -0.0525220209 0)
(0.005862822136 -0.05217304547 0)
(0.005458770001 -0.0521596844 0)
(0.005486142742 -0.05250932059 0)
(0.004114430143 -0.06255848105 0)
(0.004473415073 -0.06256859645 0)
(0.004009034964 -0.06358479704 0)
(0.00440129588 -0.06360092661 0)
(0.004424289915 -0.06325631197 0)
(0.004041845551 -0.06324210335 0)
(0.005528493113 -0.06363956598 0)
(0.005541147 -0.06329333473 0)
(0.005174439719 -0.06328168678 0)
(0.005160192327 -0.0636277384 0)
(0.00620791558 -0.0650463297 0)
(0.006232329682 -0.0643540954 0)
(0.005504310697 -0.06433238578 0)
(0.008387132686 -0.06511136736 0)
(0.008411911153 -0.06441978703 0)
(0.007685299134 -0.06439786569 0)
(0.007660572466 -0.06508983304 0)
(0.008486523518 -0.06234242161 0)
(0.007759789358 -0.06232030366 0)
(0.007735098004 -0.06301317134 0)
(0.008461832165 -0.06303528929 0)
(0.006041674209 -0.05948894433 0)
(0.006052666022 -0.05914066863 0)
(0.008585478496 -0.05956504803 0)
(0.008609776351 -0.05887043356 0)
(0.00788248328 -0.05884771961 0)
(0.007858574516 -0.05954221812 0)
(0.007930125379 -0.05746218527 0)
(0.008657612996 -0.05748484124 0)
(0.008511500365 -0.06164866392 0)
(0.007784571659 -0.06162660394 0)
(0.007833931127 -0.06023759222 0)
(0.008560986096 -0.06025972048 0)
(0.006029475687 -0.05983679591 0)
(0.004316142926 -0.07676791682 0)
(0.005040165056 -0.07678808507 0)
(0.002520247694 -0.0763717629 0)
(0.002789186006 -0.07880185315 0)
(0.002816436993 -0.07811048069 0)
(0.00209452831 -0.07809070145 0)
(-0.001055474811 -0.08283097245 0)
(-0.0015066142 -0.08273183231 0)
(-0.001394230798 -0.08317848498 0)
(-0.001043267969 -0.08318468178 0)
(0.003407693885 -0.03561404582 0)
(0.003026348952 -0.03559980186 0)
(0.003017038653 -0.03596151663 0)
(0.003393403772 -0.03597962776 0)
(0.002282949464 -0.03445762801 0)
(0.00230091226 -0.03408208185 0)
(0.003421113101 -0.03525018291 0)
(0.003037690612 -0.03523903224 0)
(0.002437506348 -0.06909825796 0)
(0.002136607885 -0.06909777951 0)
(0.002063121673 -0.06942747748 0)
(0.002388665074 -0.06943613358 0)
(0.002448060558 -0.06875240887 0)
(0.002205342402 -0.06878944526 0)
(0.000500329338 -0.08150369796 0)
(0.0005116362999 -0.08115780881 0)
(0.0001354580002 -0.08114348028 0)
(0.0001251544903 -0.08148972279 0)
(0.000155258409 -0.08045071245 0)
(0.0005327222371 -0.08046521072 0)
(-0.0008218708199 -0.08046962339 0)
(-0.0005678239622 -0.08043128088 0)
(-0.0006798405353 -0.07998618145 0)
(-0.002001283534 -0.03547999021 0)
(-0.001874004024 -0.03518761481 0)
(-0.002326601582 -0.03509591681 0)