/*--------------------------------*- C++ -*----------------------------------*\
| =========                 |                                                 |
| \\      /  F ield         | OpenFOAM: The Open Source CFD Toolbox           |
|  \\    /   O peration     | Version:  v2012                                 |
|   \\  /    A nd           | Website:  www.openfoam.com                      |
|    \\/     M anipulation  |                                                 |
\*---------------------------------------------------------------------------*/
FoamFile
{
    version     2.0;
    format      ascii;
    class       volVectorField;
    location    "2";
    object      U;
}
// * * * * * * * * * * * * * * * * * * * * * * * * * * * * * * * * * * * * * //

dimensions      [0 1 -1 0 0 0 0];


internalField   nonuniform List<vector> 
3259
(
(99.99953665 0.4693443688 0)
(100.0044355 0.4523926886 1.191801454e-21)
(100.0057697 0.3986274379 -1.728961299e-21)
(100.0063345 0.3256473597 9.73739757e-22)
(100.0058976 0.2506521029 0)
(100.0051577 0.1842651055 1.540020223e-21)
(100.0046905 0.1289667637 6.312541187e-21)
(100.0024991 0.08948173863 -1.753680743e-21)
(100.0096722 0.1006604998 -1.517337403e-20)
(100.0065241 0.06150469167 0)
(100.0047277 0.03250700934 -1.897732703e-21)
(100.0045004 0.01018445121 -1.335474302e-20)
(99.93533514 2.131333467 -1.484427767e-21)
(100.0425609 2.072491553 3.379339084e-22)
(100.1241781 1.836692875 -5.763104771e-22)
(100.1609557 1.50555418 5.022751163e-21)
(100.1588277 1.156929927 -9.621268275e-21)
(100.1331591 0.851953955 0)
(100.1354745 0.6290085613 -2.666657831e-20)
(100.0946909 0.4232280771 5.123595529e-20)
(100.0908479 0.2857067601 1.469031264e-20)
(100.0622855 0.1739438805 3.017375861e-20)
(100.045953 0.09228171517 -3.026315057e-20)
(100.0397193 0.02896973298 1.525274818e-20)
(99.89849602 4.197652983 4.257433516e-20)
(100.306608 4.080275241 -3.295124451e-21)
(100.5773424 3.556729689 2.160415464e-20)
(100.6686598 2.85419131 2.0741565e-21)
(100.6355269 2.158807645 -1.034076371e-20)
(100.5284644 1.550510376 -2.396861166e-20)
(100.4465207 1.065779277 -1.601876327e-19)
(100.3204889 0.7071114776 -3.536587916e-20)
(100.2495311 0.4288927625 -1.502918623e-20)
(100.1743499 0.2587086574 3.413765698e-20)
(100.1292219 0.1373432493 -3.831209649e-21)
(100.1094988 0.04289079586 0)
(99.77135722 6.696063237 4.503732712e-20)
(100.8174542 6.473244622 4.280416724e-20)
(101.4524991 5.46062546 5.185240568e-20)
(101.5763215 4.188595991 1.592712872e-19)
(101.418235 3.037651929 -9.365382356e-20)
(101.166786 2.127904544 0)
(100.9197706 1.389742096 5.798946976e-20)
(100.6579338 0.9004197318 -4.462091302e-20)
(100.469504 0.5045653157 -3.843137626e-20)
(100.3299807 0.300934464 1.942991278e-20)
(100.2433762 0.1574511235 -3.896259394e-21)
(100.2038621 0.04869506743 0)
(99.44626691 10.09975562 7.33486785e-20)
(101.8425096 9.627396504 2.62785522e-19)
(103.0799432 7.631595543 1.787155615e-19)
(103.1062897 5.429657121 -8.970411492e-20)
(102.5937085 3.704994209 0)
(102.0246541 2.477851175 -4.282670771e-22)
(101.523412 1.53970469 -9.523579875e-20)
(101.0753365 0.9685940443 7.906454028e-21)
(100.721729 0.4918246039 0)
(100.5024707 0.2874689138 3.965636007e-21)
(100.3657875 0.1455381978 -2.978409436e-21)
(100.3023849 0.04423359895 -9.874632133e-22)
(98.51969237 15.56310705 3.937473866e-19)
(104.1503358 14.15306285 -7.928346298e-20)
(106.0804453 9.870579106 4.385798182e-19)
(105.4816061 6.328874204 -5.108080028e-19)
(104.1884391 3.982000548 0)
(103.0561839 2.509625513 6.500694246e-20)
(102.1969308 1.452737533 2.446465436e-20)
(101.5221255 0.8738885826 -1.632144012e-20)
(100.9713633 0.3781774782 0)
(100.6616984 0.2098044996 0)
(100.4714245 0.09741003454 -9.998033531e-22)
(100.3825639 0.02837596991 -2.997036546e-21)
(94.77633619 26.1807197 -4.654676419e-19)
(110.8257292 20.33891227 1.873610305e-18)
(111.2815908 11.25185878 -1.557297055e-18)
(108.6766176 6.236807178 -1.026520535e-18)
(106.0785865 3.567334935 6.164572856e-19)
(104.1606911 2.094682887 -5.680528746e-19)
(102.8305618 1.077618562 0)
(101.9346181 0.5882102629 8.850365779e-21)
(101.1730067 0.1643872521 2.620016216e-21)
(100.7746984 0.06398547451 -3.100435655e-21)
(100.5350524 0.01319173987 -3.527259811e-21)
(100.4216827 0.001313984873 8.5025767e-21)
(126.8899783 22.44070419 3.313421036e-18)
(118.2700664 8.957918931 2.539985447e-18)
(112.1010443 4.350028207 0)
(107.8565693 2.239751182 -7.156100949e-19)
(105.1295402 1.170058388 0)
(103.3081452 0.4135881174 -4.688331607e-21)
(102.2302649 0.1282965691 1.99617943e-20)
(101.2777818 -0.1420976131 -3.188061481e-21)
(100.8097219 -0.1396295049 2.609753137e-21)
(100.5321341 -0.1017461992 -4.912619058e-22)
(100.3984354 -0.03580282472 -7.979509319e-21)
(139.2093097 5.235436604 1.921689627e-19)
(122.7999491 1.834498718 -1.518005688e-18)
(114.2883491 0.5866081813 1.026369026e-18)
(108.9613206 0.0668744612 3.636229051e-19)
(105.6922407 -0.1732315485 1.294290447e-18)
(103.5200318 -0.4588219891 -4.774052069e-21)
(102.3289732 -0.4656262779 1.119618249e-20)
(101.2499911 -0.5119322602 1.092565688e-21)
(100.7418635 -0.3824437312 0)
(100.4423673 -0.2376386943 4.021623017e-21)
(100.2959831 -0.07987198961 3.975999157e-21)
(135.4105016 -11.30447702 -8.893356613e-18)
(122.132865 -6.21080657 0)
(114.1993086 -3.798325624 -7.19991143e-20)
(108.9375417 -2.430984406 -1.488892415e-18)
(105.6574842 -1.694816757 1.294982623e-18)
(103.3925749 -1.420030674 4.034784766e-20)
(102.1914829 -1.119333442 0)
(101.0695661 -0.904755225 -1.067764796e-21)
(100.5567655 -0.6399628286 -4.43794627e-21)
(100.2541786 -0.3816861597 4.956491993e-22)
(100.1043143 -0.1266790292 0)
(125.8906813 -20.00268666 0)
(117.9168341 -11.89954613 1.167773189e-18)
(112.1530963 -7.335866377 -4.387448481e-19)
(107.8834575 -4.630703173 7.860038015e-21)
(105.0282195 -3.120742804 0)
(102.9239026 -2.32821543 0)
(101.8201418 -1.747401567 -2.643931724e-20)
(100.7351642 -1.278937803 -1.338912489e-20)
(100.2536977 -0.8861809457 1.013273003e-21)
(99.96636955 -0.5202477378 -3.207781341e-21)
(99.82199298 -0.1718598148 4.697659815e-22)
(116.1558835 -22.8251631 0)
(112.4996405 -14.56711905 0)
(109.1051855 -9.411757939 6.65985486e-19)
(106.1357803 -6.146041381 -2.938497284e-19)
(103.9473292 -4.225192807 -5.620951283e-19)
(102.1777716 -3.07066371 2.114616545e-21)
(101.2502886 -2.281135352 -3.226030065e-20)
(100.2690565 -1.605865472 7.925388633e-21)
(99.84556408 -1.097535284 0)
(99.58751555 -0.6415480029 3.693858309e-21)
(99.45602413 -0.2116160661 0)
(141.8251924 8.352325128 0)
(128.3273755 25.37253077 -3.591432012e-18)
(138.4701037 -10.64993139 6.115675239e-18)
(142.2096102 5.547024265 -3.214702824e-18)
(128.1846687 -20.70408554 2.718186188e-18)
(137.3578381 -12.40756261 -5.708326724e-20)
(117.7129477 -24.01983394 2.354310281e-18)
(126.8297147 -21.41741651 0)
(116.4750002 -24.10558322 0)
(92.62014515 24.94290041 7.625198824e-20)
(125.1029858 26.32266351 -4.526034201e-18)
(108.8092997 22.36666226 1.817014004e-19)
(152.5893931 27.75713051 0)
(132.8636764 45.21145777 2.014976478e-18)
(138.767506 7.71547621 0)
(124.9271096 4.763466456 3.345857663e-18)
(120.1748954 10.83391225 -2.574797473e-18)
(152.4969256 -6.691589756 8.749893639e-18)
(155.8527935 6.724167221 -4.923753338e-18)
(136.3657103 -9.657206303 4.583054222e-18)
(125.4248724 -4.977410826 0)
(125.6801877 2.297124452 -3.345317829e-18)
(137.7091738 -23.45206388 0)
(145.2141925 -17.50565767 -4.087664676e-18)
(127.1460778 -19.29479382 0)
(121.0484537 -12.21513203 2.75368872e-18)
(124.6533304 -7.119418079 0)
(124.2491699 -28.84288225 5.633313504e-18)
(129.9440889 -27.26083388 0)
(106.6767065 -33.73185633 -1.995797489e-18)
(112.3589642 -28.95585178 1.505341297e-18)
(117.3988138 -29.49429553 0)
(155.9846098 7.781906867 4.842403923e-18)
(153.248865 26.4198405 -2.479610658e-18)
(138.5045485 16.8584243 9.61778772e-18)
(151.346723 24.79922691 5.096051208e-18)
(154.9332387 7.882652433 7.150547304e-18)
(145.6840856 -16.97319235 -4.235322085e-18)
(152.1698155 -7.446444559 -6.515183602e-18)
(140.6464358 -3.882427224 1.018563462e-19)
(151.133488 -7.02845858 2.165668469e-18)
(145.0959361 -16.48881077 0)
(154.8317872 6.835798907 0)
(151.4526818 -6.285490461 0)
(140.9105301 -2.727460765 4.637860307e-18)
(130.7894755 -26.94017717 0)
(137.2113004 -23.78044758 0)
(132.242209 -17.92918745 -3.935964486e-18)
(136.6606225 -23.11166439 0)
(130.567605 -26.08672145 0)
(144.6441174 -17.01828074 -3.994768681e-18)
(137.6055114 -22.53851479 -5.399463157e-19)
(133.5767764 -16.76502857 4.273901003e-18)
(118.1395474 -29.49388944 0)
(123.4629964 -28.98420391 -5.514606059e-18)
(103.3554814 -33.19940385 6.695917104e-19)
(102.6298432 -32.96659269 1.027724853e-20)
(111.6517719 -28.87281668 -1.324512774e-20)
(106.8586193 -33.77003888 -6.491762241e-19)
(160.4628165 53.90994208 0)
(133.2988363 69.85985791 0)
(120.4475095 -30.02191387 0)
(117.3199799 -22.71109699 2.213312256e-18)
(114.9109068 -15.81361554 -1.005061885e-18)
(119.5812652 -13.44538512 -2.745082713e-18)
(100.2835996 -31.54814239 -3.096196362e-18)
(114.532368 -32.53906889 1.469379351e-18)
(117.1666711 -32.54127991 0)
(132.0189763 41.31053517 -7.987450292e-18)
(150.0636442 27.37478224 -1.156904436e-17)
(136.5472652 19.49153001 -4.106030955e-18)
(117.5734204 -32.49947426 -9.243440608e-19)
(120.2738661 -32.4016803 -1.02597003e-18)
(121.5418162 -23.35576635 -2.658131042e-18)
(123.3835463 -28.18298124 -2.702173222e-18)
(118.151616 -28.70564803 0)
(129.7443985 -26.40565677 0)
(124.1562803 -28.03046458 -8.52982274e-20)
(122.845544 -22.99088654 0)
(84.78233417 37.04064028 0)
(128.734101 45.68327599 0)
(108.7280323 38.51317325 1.39900996e-19)
(87.9559225 39.60424091 0)
(161.9962772 50.28924287 0)
(146.9392207 37.52381807 -5.725717683e-18)
(159.8819539 49.40862626 0)
(132.9282792 64.95693731 0)
(157.686063 52.36778059 0)
(144.0056278 40.05746247 0)
(154.0939595 -0.8959953425 -3.985658244e-20)
(154.3437005 -0.01466439405 -7.825820238e-18)
(141.2224861 -21.11383491 -5.467068686e-20)
(141.7334935 -20.70273761 0)
(122.7536757 -31.91866565 3.044228974e-20)
(121.5740996 -30.304355 0)
(126.6439979 -28.301835 0)
(125.4790733 -30.79074228 0)
(123.9074273 -31.6544121 2.408110623e-18)
(124.7551418 -29.01919402 0)
(125.3317042 -30.65832944 0)
(127.4567327 -28.07920439 -8.053201946e-19)
(111.4485393 -32.00554717 0)
(113.7608024 -32.44572371 -8.923377745e-19)
(101.7444944 -31.92301568 6.153040456e-18)
(155.8807264 15.7833284 0)
(155.7432206 17.06124701 0)
(148.7447458 -12.81424026 -2.41726101e-18)
(149.1584286 -12.17378613 2.410649782e-18)
(148.447827 -11.79010619 -2.279788002e-18)
(144.5156426 -9.163884714 -5.093695701e-18)
(146.088505 -5.443848931 0)
(141.9313762 -13.47804784 -1.157190633e-19)
(143.9169261 -10.31688972 9.735868416e-18)
(148.0537781 -12.4285975 4.554667505e-18)
(153.5157505 0.237987648 0)
(147.7871978 1.711857406 -2.73495033e-18)
(148.0488526 6.57385087 -2.754707329e-18)
(146.5270853 -4.103668347 0)
(147.555479 0.1898337628 0)
(153.271816 -0.6408612221 4.863002194e-18)
(133.5162323 -25.58668838 3.022116366e-18)
(125.0808295 -28.77665967 -9.22485225e-18)
(133.9637696 -25.3353007 1.548914474e-18)
(123.5242454 -31.71890296 0)
(120.8291727 -31.97179898 0)
(121.1457502 -29.30542394 1.268429583e-18)
(120.6201547 -32.37012025 0)
(122.5185188 -32.03058317 0)
(97.26487541 -30.99153789 0)
(110.6843531 -31.81524584 0)
(130.3654131 94.00956032 0)
(113.216412 -33.63491268 0)
(113.1604273 -33.26391393 -9.77984924e-19)
(30.27450474 17.25539203 -3.219376448e-18)
(112.7405063 -33.0439932 5.672818123e-21)
(111.3723822 -32.28469996 1.102665153e-18)
(70.29598296 50.99259546 0)
(127.8990319 69.43196121 0)
(104.9756899 57.54099302 0)
(78.80138811 57.7954755 3.564783785e-19)
(153.2709063 -4.295004972 -4.418952054e-18)
(159.9149837 6.388819937 5.52188231e-18)
(158.9237004 3.152672431 -3.147055294e-18)
(155.2985974 3.70014553 1.018730022e-17)
(139.1894375 -22.56324286 3.550236774e-18)
(139.7923476 -24.27178719 -3.63786243e-18)
(138.5191218 -25.1223003 -1.856725598e-18)
(145.2175615 -19.07032761 -1.793496418e-17)
(143.4209889 -20.62088309 0)
(143.7596729 -18.97582597 -1.912253091e-18)
(156.0982588 11.06368991 -4.872296558e-18)
(160.2844055 10.81430101 0)
(160.2514598 7.494011194 0)
(154.5442886 16.7770268 0)
(146.567527 15.54341511 0)
(144.0785653 21.18944998 0)
(147.9670609 8.294817722 0)
(147.0978459 13.67475172 -2.720331292e-18)
(154.6830051 15.58393804 -2.479568049e-18)
(147.0469189 -15.2773356 -4.523892138e-18)
(147.5676802 -16.72548724 -2.734340771e-18)
(145.8172433 -18.52771549 -5.217690131e-18)
(150.9787659 -9.601536606 -6.544442453e-18)
(138.0057588 -25.42030137 1.905341819e-18)
(136.4107665 -26.13845194 -6.735431901e-18)
(135.7803097 -24.47352449 -6.48680777e-18)
(133.9589662 -24.56444885 0)
(132.5417799 -21.92255111 -7.215195683e-18)
(134.9315493 -20.38726137 0)
(141.3421266 -20.19125293 -3.713100229e-18)
(138.9380234 -17.01160796 -8.663617931e-18)
(141.2120839 -14.43692306 -4.66341251e-18)
(135.7376365 -19.80059719 4.012884717e-18)
(138.1482566 -17.77731004 -8.487370109e-18)
(140.8578135 -20.60000979 3.667391095e-18)
(120.3889188 -29.37860777 1.208755236e-18)
(120.4426275 -32.00508236 0)
(117.8782808 -31.90321613 -2.242253452e-18)
(99.05918594 -31.80185556 4.077670651e-18)
(151.7934131 63.81591021 0)
(131.6180961 90.07317413 0)
(147.7363043 66.7978877 0)
(121.7736536 -29.58384472 7.453394582e-18)
(122.0327678 -29.47167667 -8.737323125e-18)
(112.9241614 -33.75109568 0)
(113.2544742 -33.65522822 8.042545679e-19)
(99.89068749 -31.1277407 0)
(41.56517559 -3.122796226 0)
(37.95791133 15.81904965 -7.854740735e-18)
(44.90556971 -5.822687514 0)
(113.8257171 -32.10410169 0)
(115.0999254 -32.82429573 6.297633178e-20)
(119.1363087 -32.46984257 -1.985486832e-18)
(110.1048196 -31.81737151 -9.08141838e-19)
(109.1545294 -31.21921856 6.295195632e-18)
(163.850513 40.99661902 0)
(156.538512 38.22900389 0)
(152.0035436 43.87398505 0)
(159.9696437 30.65621207 0)
(157.6357307 36.30006449 0)
(150.1665793 45.71266638 0)
(143.6365283 50.60690538 0)
(149.4392215 60.11765694 0)
(156.9778657 -1.621594577 3.205631292e-18)
(155.1394037 -4.377817323 0)
(153.4502113 -3.459924273 9.399618271e-18)
(155.0771018 2.734247965 -5.10385372e-18)
(158.541932 2.12537318 3.19775653e-18)
(157.3758578 -0.7078552285 -3.167489168e-18)
(141.9689508 -22.7155453 2.189139674e-18)
(140.3119193 -23.92341569 3.935873422e-18)
(139.6979869 -22.23251787 0)
(138.0285335 -24.2706722 -6.643542164e-18)
(140.1619689 -23.07251303 -1.001547148e-17)
(137.3117316 -25.44906765 2.023691704e-18)
(137.4620093 -24.61907822 0)
(140.7954851 -22.55478004 0)
(143.2587206 -19.41953403 0)
(142.7964911 -21.03532225 1.592470012e-17)
(142.4980897 -22.25708365 -6.809006232e-18)
(122.5308161 -31.45404807 2.502726106e-18)
(122.484645 -31.21032003 -7.871913643e-18)
(125.0620564 -31.35124217 -1.215193432e-20)
(125.8138103 -30.03712908 2.470994438e-18)
(127.067223 -29.80520979 0)
(125.7895909 -29.86272146 0)
(129.2450917 -29.19226352 0)
(130.5690186 -28.79780641 2.862343423e-18)
(127.4873706 -29.65363659 0)
(128.8038999 -29.32531958 0)
(125.7731116 -30.08937158 0)
(104.3149107 -33.03802228 2.172196323e-18)
(111.8511174 -33.61577763 -1.400100001e-18)
(112.6974179 -33.71940093 2.234739767e-18)
(160.336623 15.96372166 8.497662508e-18)
(160.0868248 12.08839515 0)
(156.0843388 12.19498675 1.339248106e-19)
(161.5368891 12.4041472 0)
(162.2668699 16.29166499 -6.543327111e-18)
(161.2312114 10.90411838 0)
(161.2879042 23.55870714 -3.770806413e-19)
(160.6212023 28.85733726 0)
(162.4793202 17.58019898 0)
(161.4025453 22.03335637 -6.108898227e-18)
(155.0531698 20.90948198 -4.99411574e-18)
(159.6613556 21.75620977 5.542918966e-18)
(160.4168141 17.37339163 -2.655413398e-18)
(149.6923634 -14.10684434 0)
(148.1390319 -16.0850206 8.192208977e-18)
(147.4845438 -14.68212627 4.567989205e-18)
(150.5112283 -10.25618068 -4.168787712e-18)
(150.9447996 -11.59045146 0)
(150.1355242 -13.42112408 0)
(132.7068843 -28.02406548 1.513699151e-18)
(133.994868 -27.53616772 0)
(131.0249195 -28.65677437 0)
(132.327165 -28.15083553 1.120524986e-18)
(125.2060938 -28.1159456 0)
(135.5388968 -26.47060231 -7.5082602e-20)
(136.9772805 -25.7648637 -2.052860631e-18)
(134.3807878 -27.30623814 4.074067137e-19)
(135.136483 -26.70873871 -3.364497107e-18)
(108.326878 -30.94564932 3.718918466e-17)
(121.6469355 -32.27029552 2.198498866e-18)
(111.9856497 -31.01589932 0)
(112.6101994 -31.66105098 0)
(112.1571653 -30.92423508 -1.047603786e-17)
(121.9295926 -32.18667395 -2.264110292e-18)
(97.53343132 -31.4158249 0)
(124.1940472 23.33905098 2.697858127e-18)
(118.0151909 12.07029066 0)
(111.6852051 13.06803351 7.982167445e-19)
(103.715451 -31.51184715 -7.15697349e-18)
(103.982547 -31.45466651 -2.870552526e-18)
(113.3514953 -16.20151809 8.835895082e-19)
(103.1949884 -31.18157804 3.321741853e-17)
(117.424356 -28.72444338 0)
(112.8599156 -27.96630305 -4.290856158e-19)
(112.8919345 -23.98288736 -6.121174707e-20)
(55.94611632 65.65705442 6.120350014e-19)
(50.48240535 39.97058136 2.63687216e-18)
(34.47361115 27.02814374 -3.592279428e-18)
(115.0205665 99.95980168 0)
(95.79679917 79.15830071 7.094359986e-19)
(64.62774945 74.50039746 -4.57265534e-20)
(116.3833909 25.9632363 1.03045228e-18)
(112.1038841 35.20241955 0)
(128.5002478 41.79184918 -1.345685178e-18)
(150.2132918 32.13581464 0)
(155.3900446 35.21693783 0)
(157.8693267 29.96337619 0)
(110.4654463 -33.30501178 -1.257364153e-18)
(111.5083223 -33.60534912 -1.354207111e-18)
(105.0892928 -33.22415623 -3.419321862e-19)
(117.0977755 -31.90255905 -5.421090909e-19)
(114.7739679 -31.71977646 1.896416237e-18)
(115.2101047 -29.38804599 0)
(158.4838045 28.25810229 -2.493453378e-18)
(159.4654004 23.28917932 3.559206816e-19)
(154.7019926 22.21806467 -2.454028073e-18)
(98.10761701 -31.93707988 0)
(101.7735049 -32.7690923 -1.364701143e-20)
(95.20728136 -31.15372024 0)
(96.63506055 -31.46612291 0)
(110.0859453 -33.26050626 6.27717665e-19)
(158.6003065 56.92261705 0)
(120.875962 -29.85814654 6.204665605e-18)
(106.8696314 -33.09632752 0)
(106.3721594 -32.80440773 1.713036587e-18)
(100.6865119 -31.45715256 0)
(115.6031907 -33.45063549 0)
(114.9168425 -33.54841352 0)
(115.995396 -32.42280426 -1.68079211e-18)
(142.9007018 23.04593714 0)
(138.2973386 28.12164735 2.162026836e-18)
(144.3001213 34.80933871 7.888356014e-18)
(118.7531007 -32.5377357 -1.955930541e-18)
(115.5141062 -33.0433465 0)
(115.6673926 -33.38591556 -1.888639211e-18)
(117.865922 43.33956812 2.228515478e-18)
(109.9320544 53.85848045 0)
(128.5735697 64.83204978 0)
(161.5622536 46.59520512 0)
(158.7011313 45.45743988 0)
(157.0168719 47.99502246 0)
(164.2932669 31.61675659 9.379207692e-17)
(163.7706037 34.05423976 0)
(122.8666725 -31.73957439 -2.495487271e-18)
(119.4702673 -31.33348167 0)
(119.640433 -31.5756556 5.318176019e-18)
(117.7041242 -29.79168845 2.33873171e-17)
(118.5674595 -30.12790282 0)
(122.4840639 -30.69636638 0)
(124.1428089 -30.33994682 0)
(125.3805539 -30.17083245 -2.407217571e-18)
(124.7798428 -31.43727515 0)
(124.2228813 -29.27462711 0)
(128.5445164 -29.65435226 0)
(128.6291984 -29.37487546 0)
(103.2015049 -32.42527361 -8.337712127e-19)
(108.1880241 -33.5072953 3.199407632e-20)
(107.5700237 -33.2697873 -1.70437421e-18)
(128.6134073 -27.67015174 0)
(129.1945923 -27.50302174 0)
(128.8721533 -29.15924447 6.395391312e-18)
(129.1697375 -28.95206551 -3.374627469e-18)
(125.5846011 -28.60701746 9.751154448e-19)
(129.4917625 -27.29539002 0)
(128.875552 -26.97053226 0)
(135.3089784 -24.75391002 3.224349576e-18)
(135.9263068 -26.34716813 3.254646545e-18)
(134.5517281 -26.82164757 -8.015409882e-19)
(98.0173195 -31.26495551 -1.128412181e-18)
(102.9353326 -31.69076659 2.631901607e-18)
(103.3695108 -31.58040515 -2.061933188e-18)
(108.7749811 -32.40194814 4.22939012e-18)
(109.0835112 -32.66487191 4.06233122e-18)
(113.2735361 -33.45702201 -1.887710349e-18)
(30.09784824 9.509909068 0)
(20.54228949 21.95391015 9.490799359e-17)
(31.99754226 1.773419777 0)
(112.2241133 -32.88104077 0)
(106.2383148 -31.60084782 3.980722571e-18)
(107.5640795 -31.95516934 0)
(106.6379926 -31.346217 0)
(106.6800939 -31.46184546 -9.499829824e-18)
(111.8453863 -32.58476815 0)
(115.2212776 65.50648181 0)
(102.6714205 75.46402876 0)
(121.6414276 90.19261506 0)
(154.7474515 -5.842933254 0)
(155.1035411 -5.03992032 -2.435295487e-18)
(153.8754925 -7.407537269 2.749973228e-18)
(154.3089989 -6.625943952 0)
(159.5851777 5.301762218 -5.58545599e-18)
(158.2882094 5.297308594 6.914714279e-19)
(158.5404706 6.378137738 -1.787346632e-20)
(157.7545021 3.203895476 -7.118337163e-19)
(158.0290942 4.2402126 0)
(159.259346 4.231150149 1.61010437e-18)
(144.6069617 -19.63073617 2.498736788e-18)
(145.8971526 -19.11691094 0)
(146.4121269 -18.57415977 8.911213415e-18)
(144.8368516 -20.12261541 2.02239833e-18)
(145.3689272 -19.64580683 -4.108923855e-18)
(143.9641758 -20.16987862 -2.434098972e-18)
(160.4850106 9.753418005 0)
(158.8673136 9.867216605 0)
(158.7188382 11.02216273 -5.142038423e-18)
(158.766871 7.499514576 -5.242804273e-18)
(158.8973263 8.674586028 5.059344149e-18)
(160.4826678 8.645225117 0)
(147.0092278 -17.31377195 5.327541389e-18)
(147.8843538 -16.83207341 -9.492557345e-18)
(148.3590178 -16.23106004 0)
(146.9188227 -18.01831573 0)
(147.4087974 -17.42911056 4.603945279e-18)
(146.4258798 -17.92757107 2.630073807e-18)
(153.0720112 -9.070869151 5.41821021e-18)
(153.4902049 -8.216600651 -2.730373287e-18)
(152.0797986 -10.54443476 -2.356627999e-18)
(152.6355018 -9.843898097 6.331979219e-19)
(92.79376315 -30.67811617 0)
(94.33874482 -30.81027501 1.177789492e-17)
(95.36057592 -31.0916329 3.806215012e-18)
(100.7519383 -32.33811714 1.08924119e-18)
(92.07055536 -30.44805193 -2.244804509e-17)
(154.7578154 66.30553015 0)
(158.0444766 61.65346994 0)
(155.7709252 60.38800353 0)
(142.7505171 82.94746251 0)
(140.912388 80.41588212 0)
(132.4007913 83.68714599 0)
(152.4647827 71.17838673 0)
(147.5258334 75.74363496 0)
(121.2199628 -29.70143817 0)
(121.3717877 -29.20231367 0)
(100.6869948 -31.38082509 0)
(105.8069128 -32.51173987 0)
(104.3864328 -32.04696496 0)
(39.05698891 1.094455028 0)
(108.7627487 -31.46592598 4.209722499e-18)
(105.8112518 -31.06208922 -3.510089504e-17)
(109.1918491 -31.3314436 -4.993354518e-18)
(161.6631771 40.325601 9.24117065e-18)
(160.0821774 42.97406061 0)
(162.7325102 44.10113518 0)
(159.2228434 32.40615988 0)
(161.3714892 33.17873194 0)
(162.3755877 31.13811172 -3.741915361e-17)
(163.4616297 35.92095416 0)
(162.7743234 38.01456592 -1.122069237e-17)
(156.5270542 -2.480178956 0)
(155.9407867 -2.314348681 0)
(156.2283484 -1.458693721 -5.737051329e-18)
(155.3439009 -4.188148882 0)
(155.8577636 -3.118147838 0)
(156.1397012 -3.281430742 0)
(158.1425468 1.168833823 -2.006986393e-19)
(157.1388427 1.251203481 0)
(157.4546165 2.204222189 0)
(156.5184331 -0.578101513 2.845091219e-18)
(156.8269099 0.3263888941 -1.411327553e-18)
(157.7615775 0.2195924064 0)
(141.4205236 -23.15613057 6.398612052e-18)
(141.649979 -22.69554013 4.068082872e-18)
(142.2139581 -22.27838877 -4.140808522e-18)
(138.7292066 -23.9160996 -2.320510951e-18)
(139.444213 -23.542767 -9.59093837e-18)
(137.1936357 -25.10338404 3.07607824e-18)
(134.4181215 -25.18692503 3.234268429e-17)
(134.8210138 -25.57327233 9.676305612e-18)
(136.7841078 -24.92479485 -7.319359611e-18)
(141.1403658 -22.10769094 3.075067323e-18)
(140.817298 -21.64213105 -4.478041413e-18)
(143.0317549 -21.31550005 -1.562128448e-17)
(143.8543724 -20.96567027 0)
(144.3417767 -20.57570228 0)
(142.7866772 -21.84821812 2.137191146e-18)
(143.3462969 -21.40154462 2.323864682e-18)
(142.9181674 -21.79125575 4.537825685e-18)
(117.3808215 -30.70303387 -5.073329879e-18)
(118.5045961 -30.96874157 -8.442199196e-18)
(122.7386222 -31.5616668 0)
(114.4425661 -30.40280478 2.17127925e-17)
(115.0232793 -30.77767418 -3.165028934e-18)
(115.250973 -30.67587548 0)
(122.6105571 -30.9919357 2.803762635e-18)
(118.3442222 -30.32990519 0)
(117.9439344 -30.53119192 0)
(128.4477068 -30.00196766 0)
(128.5346086 -29.80660172 0)
(125.135704 -29.52216157 0)
(160.2068588 14.61606026 -5.882031317e-18)
(158.6297727 14.64300599 0)
(158.6621751 15.92763179 0)
(158.608264 12.15597219 5.420073608e-18)
(158.6005034 13.38839398 0)
(160.1139813 13.2978617 0)
(161.7837183 13.6247163 0)
(161.993867 15.00844602 3.430146802e-18)
(161.2051973 25.22764909 0)
(163.5498943 25.84919085 1.413163006e-17)
(163.4217259 24.21767003 0)
(163.1645253 29.32168419 5.6309857e-18)
(163.5617341 27.57144353 0)
(161.0422834 27.00113295 -6.735461506e-19)
(162.4091445 18.87628337 0)
(163.3480584 22.75746258 0)
(163.5315613 20.60364382 0)
(161.9852267 20.3056909 1.363221206e-17)
(149.1998603 -14.79474907 0)
(149.71219 -14.31414038 2.559865113e-18)
(150.1289568 -13.64767722 0)
(148.8211035 -15.5989216 2.400819408e-18)
(149.2707206 -14.95935255 -4.307040131e-20)
(148.6858373 -15.43139409 0)
(150.9342105 -12.14463813 7.202590543e-18)
(151.4621478 -11.68456048 -5.350535241e-18)
(151.9158178 -11.00391334 2.01246242e-18)
(150.5385996 -12.99236088 0)
(150.9808864 -12.34722996 5.48037889e-18)
(150.5684663 -12.77127524 3.136431824e-18)
(127.8029926 -28.05158727 0)
(128.2375477 -27.84548072 0)
(125.8477514 -28.44408943 1.055674506e-17)
(129.2530337 -28.68402578 0)
(128.6940252 -28.31227625 0)
(135.9877906 -26.23066906 0)
(133.0490315 -26.29411247 6.41425572e-18)
(132.4326106 -26.52390599 8.104773237e-18)
(134.3806574 -25.85943022 1.192980604e-18)
(133.6870624 -26.08595978 -6.713485457e-18)
(136.4736357 -26.01084161 0)
(134.6318305 -27.09832846 3.215150923e-18)
(132.0914391 -27.12704741 0)
(132.531942 -27.43825238 4.506003358e-19)
(131.9715319 -26.75145523 -3.714307409e-18)
(131.3949297 -26.95048207 1.337470456e-17)
(134.8466092 -26.95929916 -6.540912381e-18)
(111.7222486 -31.14721824 -6.164389402e-20)
(116.8320889 -32.14360837 -4.541828056e-18)
(116.8199198 -31.96222133 2.429332845e-18)
(117.4764742 -32.54652819 -5.203630389e-19)
(117.055398 -32.3987893 1.054987202e-18)
(111.2801261 -31.3180361 -4.378191331e-18)
(114.204496 -31.03710005 4.731750838e-18)
(114.6775376 -30.89874634 -8.241815412e-18)
(116.5619552 -31.71131204 2.551008508e-18)
(115.4575023 -31.3269662 0)
(111.2934479 -30.65243256 0)
(97.98129824 -31.34613068 -2.697794288e-18)
(99.85199561 3.613691986 -8.158131207e-20)
(99.98433809 2.10740223 1.764626437e-21)
(99.91826434 3.65258835 -2.117552034e-20)
(100.166592 3.615316573 3.666581142e-22)
(100.0924786 2.111705166 -3.380190223e-22)
(100.2259708 3.553071041 -3.365991233e-22)
(100.4063016 3.246505651 0)
(100.1752462 1.918540737 0)
(100.4347531 3.114790801 4.917829158e-21)
(100.5105656 2.673339358 -3.706511479e-21)
(100.2104587 1.605145021 0)
(100.511902 2.520433961 2.044320943e-21)
(100.5083158 2.062928563 5.173052002e-21)
(100.2055353 1.252918269 -4.277442479e-21)
(100.4880441 1.915356454 -2.43250291e-21)
(100.4333341 1.506387749 0)
(100.1744929 0.9308897477 -1.077303315e-20)
(99.60058037 5.926373878 -1.283137113e-19)
(99.80240117 4.150312444 5.284280277e-20)
(99.81368096 6.010977658 4.466741963e-20)
(100.4636988 5.945480344 0)
(100.2197832 4.154271951 -2.401124158e-21)
(100.6547113 5.821842743 -1.660344092e-20)
(101.0905221 5.216350844 2.14854241e-20)
(100.534249 3.713600765 3.150253734e-20)
(101.1787463 4.961257925 -5.204433722e-20)
(101.3000589 4.132750522 1.412703458e-19)
(100.6636514 3.033339445 -1.232589381e-22)
(101.2999546 3.855701185 0)
(101.2309096 3.074908945 -3.293271718e-20)
(100.6574261 2.327888892 -1.953226425e-20)
(101.1917661 2.837612209 9.182837873e-20)
(101.0409843 2.189155399 -2.893545624e-19)
(100.5598123 1.690353557 -1.16382166e-20)
(99.0658341 8.9331185 1.294297939e-19)
(99.50556653 6.593578169 -2.812018235e-20)
(99.5612972 9.121510435 -3.048306974e-20)
(101.076972 8.995358886 -7.653447138e-20)
(100.5797867 6.620355331 -4.656068105e-21)
(101.5136567 8.738015778 -1.438253817e-19)
(102.4193955 7.541265795 -5.859888125e-20)
(101.347598 5.758736213 -3.226731547e-20)
(102.5768099 7.064730312 -2.596278824e-19)
(102.6970494 5.609574658 0)
(101.5827631 4.504663074 -1.405980718e-19)
(102.6499712 5.141945074 4.331132581e-19)
(102.3760383 3.915177629 0)
(101.4711326 3.305308552 2.195170129e-20)
(102.2601104 3.5645003 0)
(101.9044655 2.669193817 0)
(101.2358729 2.334596824 0)
(97.70089052 13.39716029 0)
(98.83858152 9.865503035 0)
(98.85033157 13.87809167 0)
(102.4195816 13.49586799 1.097142414e-19)
(101.3119992 9.943559383 5.720831119e-20)
(103.3589822 12.8472706 0)
(104.9647341 10.25652624 7.695566486e-19)
(102.9070214 8.190256363 6.441436478e-20)
(105.148984 9.33416446 2.079611276e-19)
(105.0062791 6.864646669 0)
(103.173097 5.950920056 0)
(104.801033 6.164480701 0)
(104.0280826 4.432628355 -2.453265334e-19)
(102.7419931 4.08612689 4.351243158e-19)
(103.754777 3.967340604 -2.355117009e-19)
(103.0032688 2.838269534 -2.562056956e-19)
(102.1581528 2.744782983 -2.893745092e-20)
(93.772687 23.00768445 0)
(97.06953009 14.936715 -9.384515846e-19)
(95.48042579 24.0597049 9.190266148e-19)
(106.6386589 20.90313304 2.707948227e-19)
(103.0277169 14.99927269 -2.39221612e-19)
(108.3452696 18.7919324 -2.218103946e-18)
(109.9355996 12.73582309 -1.386575697e-18)
(105.9179571 10.94519528 -4.368554607e-19)
(109.7517547 11.11332494 1.376448204e-18)
(108.3885689 7.3435451 -3.138391374e-19)
(105.7474301 7.092853917 5.120441433e-19)
(107.8131478 6.403826887 1.27189256e-18)
(106.1123373 4.277064114 1.14816835e-18)
(104.5163205 4.470516234 1.058458756e-18)
(105.5937422 3.750876204 0)
(104.2582381 2.549075809 -2.131394722e-19)
(103.3079226 2.815107827 1.893301793e-19)
(91.15809604 36.07156658 0)
(106.0398091 35.00102583 0)
(102.2245504 26.48693574 0)
(114.6107875 23.01902625 -9.330939269e-19)
(114.3453847 18.28173701 -1.801851665e-20)
(111.6253639 17.60860148 -1.516348702e-18)
(116.5356428 10.04168271 -1.047792432e-18)
(112.4872426 5.930196393 -1.824339491e-18)
(109.3838948 7.210218542 6.936716403e-19)
(111.3013979 5.017978943 0)
(108.2849113 3.104510828 2.828534332e-18)
(106.6733095 4.08903383 -6.125194765e-19)
(107.4555227 2.661132906 0)
(105.44451 1.687974703 -3.130845435e-19)
(104.5728324 2.388123865 -1.182405016e-18)
(133.847518 17.35355149 0)
(127.7256188 12.41809197 1.774405149e-18)