/*--------------------------------*- C++ -*----------------------------------*\
| =========                 |                                                 |
| \\      /  F ield         | OpenFOAM: The Open Source CFD Toolbox           |
|  \\    /   O peration     | Version:  v2012                                 |
|   \\  /    A nd           | Website:  www.openfoam.com                      |
|    \\/     M anipulation  |                                                 |
\*---------------------------------------------------------------------------*/
FoamFile
{
    version     2.0;
    format      ascii;
    class       surfaceVectorField;
    location    "2";
    object      Uf;
}
// * * * * * * * * * * * * * * * * * * * * * * * * * * * * * * * * * * * * * //

dimensions      [0 1 -1 0 0 0 0];


internalField   nonuniform List<vector> 
6464
(
(99.99733427 0.9406981925 1.587621409e-22)
(100.0008619 0.4709766183 0)
(100.0033111 0.4622082588 5.95892469e-22)
(100.0179152 0.9064716515 -1.250253548e-23)
(100.0049576 0.4430492149 1.144287856e-21)
(100.0056241 0.4152745116 -3.6027927e-22)
(100.0314674 0.7985377034 -7.072287299e-22)
(100.0059362 0.3815897163 -1.266634744e-21)
(100.0062184 0.3448005798 8.469592554e-23)
(100.0358181 0.6515597184 1.862574876e-21)
(100.0062861 0.3064971973 4.868840968e-22)
(100.0060675 0.2685750503 0)
(100.033717 0.5004228412 0)
(100.0056699 0.2325181392 0)
(100.0052999 0.1991451389 7.699822306e-22)
(100.0278908 0.3678474083 1.603712046e-21)
(100.0052936 0.1693263796 -3.899452124e-21)
(100.0050596 0.1410054563 -1.451000018e-21)
(100.0226483 0.2563287959 3.156512119e-21)
(100.0042975 0.1167983198 3.156276575e-21)
(100.0032018 0.09664113951 -8.767669528e-22)
(100.0134517 0.1739820603 -4.660088618e-23)
(100.0009538 0.0822700267 1.71296415e-21)
(100.0081065 0.07859632748 -7.592650056e-21)
(100.0466079 0.1930259582 3.929978094e-22)
(100.0169665 0.1754299499 -2.695273674e-21)
(100.0028247 0.08126381912 -1.558531613e-21)
(100.0056277 0.04525404115 -9.501254512e-22)
(100.031181 0.1176626003 1.506999905e-20)
(100.004614 0.02114605011 -7.628183896e-21)
(100.0226505 0.0623714107 -1.60681653e-20)
(100.0199276 0.01957604498 1.345904253e-21)
(99.95983344 2.111228653 1.399296145e-22)
(99.99119101 1.891442973 -1.720754438e-21)
(99.96078399 2.377567636 -7.423196822e-22)
(99.98773953 2.143513082 -5.486743791e-22)
(100.0675134 2.085049156 1.745707984e-22)
(100.0674779 1.835060894 -1.805186416e-22)
(100.0898411 2.312669817 -5.57030368e-22)
(100.0910508 2.06079415 -8.700628055e-22)
(100.1497085 1.875223312 -2.881779448e-22)
(100.1163262 1.623845872 -2.438966564e-22)
(100.1808471 2.047518073 -8.502715083e-23)
(100.1613193 1.805922481 2.280680362e-21)
(100.1857067 1.556423681 2.511488092e-21)
(100.133106 1.329421445 4.369349597e-21)
(100.2180553 1.676558979 4.365153261e-21)
(100.1867179 1.465368813 5.41479222e-22)
(100.1821821 1.207540666 -6.884682575e-21)
(100.1254265 1.02130079 -6.412934872e-21)
(100.2089545 1.285890903 -2.32320996e-21)
(100.1756031 1.118069632 -2.272862088e-21)
(100.1538271 0.8945763601 -5.386355309e-21)
(100.1007651 0.7517417605 4.895548375e-22)
(100.1706716 0.9420226022 -1.434287664e-21)
(100.1439171 0.8197384699 5.832084004e-21)
(100.0911644 0.5063229238 -1.332939509e-20)
(100.1466425 0.6924057478 -1.332835942e-20)
(100.2037226 0.7434434826 1.348373564e-20)
(100.1249768 0.5719311283 -2.720932306e-20)
(100.1045936 0.4695899838 1.172236809e-20)
(100.1442353 0.4976421999 -1.649814711e-20)
(100.0845772 0.383510669 2.383875887e-20)
(100.0637291 0.3407677245 2.647532996e-20)
(100.0765816 0.2273967464 2.242988802e-20)
(100.1751508 0.3573166949 -1.737176696e-22)
(100.1357194 0.4067324811 4.737108532e-20)
(100.0799561 0.3217777817 2.551780534e-21)
(100.0541101 0.1314998271 -7.022048317e-22)
(100.1211547 0.2163317345 3.215608592e-20)
(100.0428345 0.06004226096 -7.491976388e-21)
(100.0900149 0.1148125607 -1.704519074e-20)
(100.0765618 0.03592882044 7.625664331e-21)
(99.90990635 3.925013743 1.125117899e-20)
(99.85040991 4.176096579 4.77080785e-20)
(99.88900334 4.483020555 -1.183961694e-20)
(99.95595533 4.205414013 2.756296512e-20)
(100.2659785 3.816113416 -1.812719426e-21)
(100.2631647 4.119075699 -2.848145458e-21)
(100.3544019 4.355067526 -3.671633594e-21)
(100.3529678 4.029246054 -2.973098275e-21)
(100.5054374 3.334937321 1.322997708e-20)
(100.5557811 3.636316525 2.655354343e-20)
(100.6609966 3.782920205 2.035638836e-20)
(100.5986037 3.47131608 1.080334736e-20)
(100.5896917 2.687264672 2.072321536e-21)
(100.6661554 2.94458654 9.74745674e-22)
(100.7583573 3.020498373 1.12839646e-20)
(100.6717667 2.764124079 5.524075442e-21)
(100.5616714 2.037075986 -6.386434163e-21)
(100.6464767 2.243776016 -1.492589526e-20)
(100.7184172 2.277219945 -5.170700492e-21)
(100.6254443 2.07616671 5.689842971e-21)
(100.5441417 1.620223051 -1.780215599e-20)
(100.467652 1.466007294 -1.198267273e-20)
(100.5959514 1.628560388 -1.199883184e-20)
(100.5166414 1.482843733 6.390292056e-21)
(100.358631 0.9617935998 -5.272600632e-20)
(100.4816633 1.177260178 -2.766815851e-20)
(100.5560171 1.155943577 -7.99822604e-20)
(100.4134649 0.9669839701 -3.791127209e-20)
(100.2572958 0.63980045 -6.006762459e-20)
(100.3504871 0.7882417569 2.390918918e-20)
(100.3985642 0.7613210851 -2.851604384e-20)
(100.2926724 0.6377933133 -2.492764608e-20)
(100.21193 0.3425603213 1.003876836e-20)
(100.365552 0.4667035689 -2.560041884e-20)
(100.3482998 0.5703814232 -1.398749991e-22)
(100.2597709 0.520631185 -1.467626994e-20)
(100.1517619 0.1967900389 1.507508466e-20)
(100.2582789 0.2798165327 2.678232918e-20)
(100.1193594 0.08937463828 -1.915390444e-21)
(100.1913513 0.1473930409 -3.863737824e-21)
(100.1608489 0.04578917584 0)
(99.79252217 6.353357904 4.485228551e-20)
(99.63842955 6.646929272 9.285534788e-21)
(99.74478269 7.065454004 -2.463500916e-20)
(99.90934632 6.717355688 -9.329617696e-21)
(100.7351021 6.147170567 1.306515157e-20)
(100.6985949 6.548418787 1.906610651e-20)
(100.9126674 6.821808515 -8.8226966e-22)
(100.9232512 6.374731434 -2.653103906e-21)
(101.3144183 5.210343897 1.095346262e-22)
(101.4000442 5.609873537 9.788653905e-21)
(101.6107123 5.718569659 5.304387968e-20)
(101.4888399 5.303362089 5.519919731e-20)
(101.4372131 4.021526912 7.934201849e-20)
(101.5795423 4.346107409 9.379592465e-21)
(101.7325386 4.352915111 -4.763550407e-21)
(101.5648945 4.034259368 7.961530516e-20)
(101.3040564 2.936905469 -2.38802391e-22)
(101.4447863 3.171825402 -3.563466476e-20)
(101.5442504 3.130952805 -1.556483295e-21)
(101.3895742 2.912636642 1.688348291e-19)
(101.2012098 2.23013827 0)
(101.075674 2.062403541 4.796503893e-20)
(101.265196 2.184212704 0)
(101.1312161 2.028485169 0)
(100.7929399 1.317896915 2.903359148e-20)
(100.9965615 1.545579268 1.884977484e-20)
(101.0648687 1.439666826 -1.644655876e-20)
(100.8504084 1.255536178 3.640325447e-20)
(100.5681441 0.8579087206 -3.31441869e-20)
(100.7194895 1.011363923 -1.480371869e-20)
(100.7596878 0.9263899012 -1.494811078e-20)
(100.6044904 0.8071580885 -7.261796512e-21)
(100.3996819 0.4017731382 -9.300845258e-21)
(100.6027736 0.4981841947 -1.920520793e-20)
(100.636584 0.6667262408 -2.538149361e-21)
(100.5238375 0.6413964493 5.532795703e-21)
(100.2866679 0.2279113354 7.70176891e-21)
(100.422178 0.2941945212 1.169732107e-20)
(100.2236179 0.1024174059 -1.948002623e-21)
(100.3097016 0.1514906609 -3.437367807e-21)
(100.2574351 0.04646089436 -4.937191172e-22)
(99.50408407 9.610692973 2.144081613e-20)
(99.14243063 9.988052262 3.663692758e-20)
(99.37177367 10.64830159 1.529295312e-19)
(99.76513133 10.15189502 -2.89368491e-20)
(101.6744349 9.183128059 5.961230253e-20)
(101.5771068 9.78914236 1.544987394e-19)
(102.0367058 10.11524839 -1.912823635e-20)
(102.0661642 9.42197985 1.315561173e-19)
(102.8250694 7.348175496 -4.044508506e-20)
(102.993388 7.910008486 1.215279836e-19)
(103.368137 7.91635124 -7.836111555e-20)
(103.1269845 7.347249342 9.45367107e-20)
(102.8767892 5.284623838 1.740476674e-19)
(103.1396382 5.690153511 -4.492020585e-20)
(103.3646846 5.568088628 -4.461901937e-20)
(103.056174 5.187086774 1.607058237e-19)
(102.4264017 3.634649629 0)
(102.6676575 3.893756243 2.170036494e-19)
(102.7737762 3.763260326 2.598761252e-19)
(102.5188008 3.528816685 0)
(102.0913901 2.611804191 -1.473067631e-20)
(101.9081399 2.446541574 -3.79093235e-21)
(102.1475174 2.498779975 3.340272057e-20)
(101.9598071 2.356450759 2.248108237e-20)
(101.3664632 1.514646968 -9.326667688e-20)
(101.6561026 1.730494832 -5.902706952e-20)
(101.6922297 1.534926747 -3.304299025e-20)
(101.404263 1.383292851 -1.69514495e-20)
(100.9678628 0.9605130445 1.145829342e-20)
(101.1801971 1.096745211 3.460917321e-20)
(101.189281 0.9561402423 -3.857707717e-21)
(100.9862538 0.8607946386 -3.783813665e-21)
(100.6120891 0.3919381057 1.982994823e-21)
(100.853719 0.4350100038 0)
(100.9607921 0.6500865415 -8.056242208e-23)
(100.8386273 0.6666565833 -1.030158498e-20)
(100.4341252 0.2153977443 4.392556881e-22)
(100.5886358 0.248629422 1.982816048e-21)
(100.3340844 0.09456481022 -1.986791364e-21)
(100.423663 0.1214682278 -1.989000788e-21)
(100.346625 0.03630209087 -1.992311975e-21)
(98.68510566 14.72125805 1.970309753e-19)
(97.79562336 15.27161852 -2.031886577e-19)
(98.30972455 16.57583893 1.968065266e-19)
(99.30869039 15.69984392 2.230697932e-19)
(103.7424893 13.50273658 -3.975172064e-20)
(103.5897462 14.58027461 -1.661836943e-19)
(104.641243 14.87002187 -3.963229175e-20)
(104.5700323 13.64717457 1.533116207e-19)
(105.6111321 9.602051403 3.230850329e-19)
(105.9990423 10.40562937 4.569684228e-21)
(106.6224782 10.12452895 2.175574165e-19)
(106.0832567 9.363296406 3.852916058e-20)
(105.136726 6.246577772 -2.556615908e-19)
(105.6143333 6.705724572 -7.176297444e-21)
(105.8584801 6.383208173 -2.443046254e-19)
(105.3258797 5.958088351 -5.216884546e-19)
(103.9714006 3.974665132 -1.179027016e-19)
(104.3520312 4.223509219 5.282563955e-19)
(104.4155185 3.96859719 -5.467142398e-19)
(104.0313976 3.763602507 -2.525842283e-19)
(103.181517 2.660836324 1.270710037e-19)
(102.9196246 2.523820913 3.23942264e-20)
(103.1959166 2.481157682 4.495324576e-20)
(102.9411476 2.368938083 -1.846509762e-22)
(102.029652 1.491403827 2.707550586e-20)
(102.3946758 1.64861795 -2.340350891e-22)
(102.3638593 1.378112267 1.640430714e-20)
(102.016956 1.292260594 1.222850695e-20)
(101.4110778 0.9087969096 -1.603420855e-20)
(101.67953 1.001584719 -8.164963684e-21)
(101.6316681 0.8154122329 -8.166545531e-21)
(101.3894787 0.7669671204 1.241145591e-20)
(100.8165094 0.2973569343 0)
(101.0835343 0.2712327243 1.310526137e-21)
(101.272609 0.502230528 -1.096718121e-20)
(101.1617092 0.579971404 2.722199356e-20)
(100.5665535 0.152825461 -4.99944356e-22)
(100.7248771 0.1368765369 -1.550517721e-21)
(100.4269923 0.06325624598 -2.002945118e-21)
(100.5081096 0.05529495893 -2.26364308e-21)
(100.406278 0.01484278554 2.560250894e-21)
(93.69299166 25.59833479 -1.926251334e-19)
(95.13012446 25.11863782 2.259367842e-19)
(94.28739624 27.47565263 -2.33047242e-19)
(96.01843118 26.54095087 -2.365339695e-19)
(109.4746002 21.43949601 7.467391909e-19)
(109.5429702 19.56448191 -7.849984578e-20)
(111.2276248 18.96081287 1.610376337e-19)
(110.4416514 22.13909193 2.758605926e-20)
(112.5219161 20.71287898 3.680956312e-20)
(112.1615706 21.59746781 6.171179532e-19)
(111.4834099 12.14965986 -3.736349513e-19)
(110.5252373 11.18245006 -9.290714955e-20)
(112.1206474 11.2046833 -7.799044754e-19)
(111.0031393 10.46952456 4.247881465e-21)
(108.2491458 6.320574573 1.313517479e-19)
(109.0308308 6.723402368 -1.663825076e-19)
(109.123823 6.096580602 -3.394002262e-19)
(108.3296449 5.821547504 -2.091273752e-19)
(105.8387442 3.658918034 3.092676908e-19)
(106.3752458 3.82832359 2.290268998e-21)
(106.3201186 3.44636984 -5.059084685e-19)
(105.8032425 3.342880654 -2.803143887e-19)
(104.3656265 2.240313859 -8.735396245e-19)
(104.0223959 2.171513825 3.030807289e-20)
(104.2970051 2.003956035 -3.340875e-19)
(103.9730864 1.955790012 -2.919031403e-19)
(102.6809753 1.19065882 4.295099353e-21)
(103.1121766 1.243069155 9.103293347e-21)
(102.9662504 0.9274497932 -2.46016822e-21)
(102.5908182 0.9399161895 -4.450678372e-21)
(101.8361941 0.6725346741 4.425131518e-21)
(102.1429153 0.6972213925 -2.224941483e-23)
(102.0225401 0.4846810462 -7.235727667e-21)
(101.7555332 0.4994470675 8.946900321e-21)
(100.9738496 0.1159337438 -1.972759508e-22)
(101.2321976 0.01113949693 -2.840692924e-22)
(101.5294527 0.2194912325 8.342814853e-22)
(101.4419625 0.3279423413 6.559479808e-21)
(100.6548722 0.03905451855 -3.319589474e-21)
(100.7972753 -0.0378164347 -2.455577824e-22)
(100.4783655 0.00742286117 2.48682802e-21)
(100.5378903 -0.04427475493 -2.208719573e-21)
(100.4132636 -0.01724519168 4.103998019e-22)
(127.6083306 23.91355195 -1.416527546e-19)
(125.5735471 22.88660258 2.965718903e-18)
(128.1846319 21.7635127 6.408302433e-19)
(126.2361703 21.186331 3.991302334e-18)
(119.2304464 9.921643662 -9.537918278e-20)
(117.4273137 9.496813953 7.523270487e-19)
(119.069843 8.244411814 1.681856077e-20)
(117.4048279 8.211622542 1.773370135e-18)
(111.707613 4.683943331 0)
(112.7778994 4.772732972 -1.513361206e-20)
(112.4645796 3.953616929 -4.341389704e-19)
(111.4902889 4.014559945 1.751853715e-20)
(107.6585797 2.450644448 -3.577825281e-19)
(108.3073223 2.438761556 -7.146988092e-19)
(108.0373051 2.002632043 3.612134915e-19)
(107.4521839 2.075195755 -5.042026894e-19)
(105.4107134 1.276959 0)
(105.0186695 1.310985634 9.767909098e-20)
(105.2294465 1.01963177 8.08051639e-20)
(104.8745426 1.073308893 -3.115666267e-19)
(103.2046492 0.5955293519 -4.802010125e-21)
(103.6674307 0.5229170961 -7.722273565e-20)
(103.3828713 0.2054642836 7.602819477e-21)
(103.0161315 0.3333942466 1.146530116e-21)
(102.1667283 0.2547729854 -1.983347514e-21)
(102.4772221 0.1916676016 1.34767897e-20)
(102.2711702 -0.01188865268 4.98775104e-21)
(102.0165122 0.08072688187 9.88273758e-21)
(101.0437553 -0.1385544398 -3.459574965e-22)
(101.2678095 -0.3268962086 -1.049142455e-21)
(101.6645422 -0.1765425702 -1.062785106e-21)
(101.6277544 -0.02459523782 -1.177029065e-21)
(100.6709241 -0.1190067336 1.069532257e-21)
(100.7787212 -0.2609963351 1.30531777e-21)
(100.4652821 -0.06791970755 -4.235533568e-21)
(100.4896428 -0.1696797756 1.654162565e-21)
(100.3491763 -0.0578364453 -2.093252244e-21)
(140.7095153 5.391166908 -1.511280282e-18)
(138.9834823 6.476642565 9.601672466e-20)
(139.2861613 4.013726898 2.543354059e-18)
(137.8487169 5.089707444 1.255082796e-18)
(124.2514725 2.099767295 -2.437545252e-18)
(122.4755861 2.862164018 -7.582698234e-19)
(122.9470672 0.7836335376 5.020262289e-21)
(121.5560287 1.649078296 5.538149111e-19)
(114.112971 1.118390384 2.709304789e-19)
(115.179931 0.7067133305 -2.887341019e-20)
(114.3901973 0.03510531634 5.128420215e-19)
(113.505172 0.5057174836 9.695142026e-19)
(108.8709313 0.367380812 1.810637876e-19)
(109.5132206 0.114634571 5.573855415e-19)
(109.0182852 -0.2444378317 9.35562647e-19)
(108.4712782 0.03202444197 1.741646713e-19)
(106.0241526 -0.1453289422 1.314151592e-18)
(105.6450314 0.01188611149 -3.157319138e-21)
(105.721955 -0.3595453901 5.633531822e-19)
(105.392822 -0.1979220017 6.410700336e-19)
(103.4882875 -0.2304784128 7.579181705e-21)
(103.9276534 -0.4384443269 -2.398577395e-21)
(103.5108188 -0.6983379791 -2.386806436e-21)
(103.193485 -0.4614563069 -1.195204778e-21)
(102.3175149 -0.3087451137 5.517247133e-22)
(102.5981621 -0.4644120831 6.809341844e-21)
(102.311699 -0.6264175773 5.597656147e-21)
(102.097018 -0.458462252 1.257732479e-21)
(100.9959087 -0.4440451984 5.462427408e-22)
(101.1598875 -0.7084672391 1.172090706e-23)
(101.6324146 -0.6493347966 3.642990719e-22)
(101.6599767 -0.467176283 -5.579483918e-21)
(100.5921042 -0.3072052594 2.010962188e-21)
(100.6494919 -0.5112460141 -2.219710243e-21)
(100.36917 -0.1576528192 3.998809476e-21)
(100.3484752 -0.3096762754 2.258296241e-21)
(100.2004268 -0.1032769605 1.987872609e-21)
(136.3841454 -11.86064345 -4.480982749e-18)
(135.8895871 -10.48148437 -2.159479134e-18)
(134.8801993 -12.06080713 -2.282953819e-18)
(134.4669066 -10.77687032 -6.55993994e-18)
(123.4045832 -6.654250869 0)
(122.4244281 -5.2798218 7.599285814e-19)
(121.7136366 -7.060390207 6.956454191e-19)
(121.0093308 -5.837405864 -1.583056021e-20)
(114.3163936 -3.265000603 -3.598296009e-20)
(115.0580224 -4.031798081 5.617894432e-19)
(114.0199346 -4.297258821 1.973498927e-19)
(113.4362297 -3.584965909 -9.349188193e-19)
(109.0129295 -2.119429826 2.575969843e-19)
(109.4890709 -2.56190197 -7.45301636e-19)
(108.8694316 -2.730148121 -5.53409294e-19)
(108.4467602 -2.310851611 -7.418788719e-19)
(105.9918891 -1.760382304 -5.133368766e-21)
(105.6891012 -1.503720871 6.672826607e-19)
(105.6077678 -1.881763588 1.520860617e-21)
(105.3521653 -1.637267649 6.403318683e-19)
(103.4461793 -1.179176465 2.019535454e-20)
(103.8058188 -1.500821275 1.005320556e-19)
(103.2943881 -1.654363188 5.724475e-20)
(103.0615219 -1.337542008 1.20617901e-21)
(102.2396428 -0.9533936541 0)
(102.4606779 -1.187422509 -1.949831004e-20)
(102.1128843 -1.278345115 0)
(101.9607713 -1.052455912 0)
(100.8131659 -0.7693343491 -2.752856082e-21)
(100.8988092 -1.091801201 -7.226909261e-21)
(101.4140296 -1.14150371 2.170639456e-21)
(101.5100089 -0.9508979265 -3.559538525e-22)
(100.4054698 -0.5074988242 -1.991534647e-21)
(100.4024862 -0.7630760896 -1.585076876e-21)
(100.1792435 -0.2530093271 2.47814732e-22)
(100.1084025 -0.4509720164 -1.356186251e-21)
(99.96174912 -0.1492704373 2.348890798e-22)
(126.3607496 -20.70338019 0)
(126.518535 -19.64862801 0)
(125.2620866 -20.31216742 -1.514751393e-18)
(125.3993606 -19.35888899 -5.782800114e-21)
(118.7608659 -12.68155845 -8.161570947e-19)
(118.5351714 -11.33162669 5.83230346e-19)
(117.2530181 -12.36978639 5.751917367e-19)
(117.1429785 -11.23068639 1.11773334e-18)
(112.4729005 -6.956782402 6.894910885e-19)
(112.8104415 -7.804784075 -2.463965669e-19)
(111.7949867 -7.665469704 -1.188118699e-19)
(111.5520684 -6.929824788 -6.24592391e-19)
(108.0573657 -4.381725146 -8.648556279e-20)
(108.3451033 -4.900873102 -8.333193089e-20)
(107.6892482 -4.857486334 6.382985686e-19)
(107.4639644 -4.39496535 -5.822328277e-19)
(105.3252226 -3.264090253 0)
(105.1304725 -2.952672949 -6.361023756e-19)
(104.9106973 -3.275011211 2.876002151e-20)
(104.7532233 -2.991529794 -6.33754554e-19)
(103.059431 -2.108361344 3.709569518e-20)
(103.3012755 -2.501108195 -7.649827458e-20)
(102.7493642 -2.526945861 -1.844001065e-20)
(102.6197353 -2.169311341 1.857260311e-20)
(101.9253474 -1.592309544 -1.321254327e-20)
(102.0677553 -1.880263872 5.65234025e-21)
(101.6875355 -1.887041044 -5.384954862e-22)
(101.6071263 -1.626022724 -1.371469504e-20)
(100.4944028 -1.079418066 -6.110434834e-21)
(100.4935965 -1.44239923 -1.150026602e-21)
(101.0180835 -1.598475755 -1.826882634e-21)
(101.1745299 -1.419706659 -5.26673536e-21)
(100.1100298 -0.7001463759 -1.134967489e-21)
(100.044805 -0.9918470586 5.067074806e-22)
(99.89417851 -0.3450427736 -1.375109441e-21)
(99.7734898 -0.5808934237 4.037244907e-22)
(99.63628452 -0.1917380627 2.348926836e-22)
(116.3152866 -23.4684652 0)
(116.7381933 -22.76811963 1.10697194e-18)
(115.5728661 -22.83464997 -9.722887105e-19)
(115.9874599 -22.22018067 2.062214152e-18)
(112.9325291 -15.40137207 4.492228395e-19)
(113.1806404 -14.36683003 4.880045707e-19)
(111.8259535 -14.68880517 3.725878846e-19)
(112.0806055 -13.83100267 0)
(109.5036615 -9.221768804 1.428238784e-19)
(109.5243216 -9.960891609 7.920798863e-19)
(108.6993444 -9.553649321 -3.855328662e-20)
(108.704943 -8.930202856 3.348312537e-19)
(106.3737616 -5.994888102 -1.670396575e-19)
(106.470945 -6.478766322 -1.476894135e-19)
(105.8884169 -6.272805905 -1.470924216e-19)
(105.8225447 -5.850958442 1.495277539e-19)
(104.1825623 -4.412972864 4.191958608e-19)
(104.0972583 -4.103517642 -2.900952308e-19)
(103.7884101 -4.330634516 -2.713090578e-19)
(103.7249157 -4.051754947 -4.417099636e-19)
(102.3761233 -2.89822223 -1.73735682e-20)
(102.490246 -3.30967161 1.055714332e-20)
(101.9227855 -2.856784676 1.746050741e-20)
(101.4022032 -2.154002786 -3.420202408e-21)
(101.4590852 -2.463550967 3.347507317e-22)
(101.0707804 -2.11654641 -1.81212842e-20)
(100.0571823 -1.345273488 3.960265175e-21)
(100.6833711 -1.829496836 -1.705489565e-25)
(99.71653125 -0.8680940618 1.847055283e-21)
(99.52176696 -0.4258620576 1.846845813e-21)
(142.007981 6.951703459 -1.60573064e-18)
(140.2966288 8.036447683 0)
(141.4611508 9.776890552 0)
(143.520297 8.05950211 1.685566699e-18)
(143.3678743 9.156359094 -3.276135388e-18)
(126.7643445 25.84349976 -4.058210062e-18)
(129.0950628 27.17476653 -8.331380107e-19)
(129.8823217 24.58558142 -1.796575314e-18)
(137.9161431 -11.529485 3.027266934e-18)
(137.418083 -10.15563552 5.349586623e-18)
(139.0133959 -9.695475056 -3.250430142e-20)
(139.2991852 -11.67960264 2.03806188e-18)
(139.7044411 -10.96653891 -9.458259669e-19)
(142.2406997 4.198697204 -2.53086394e-18)
(143.7881016 5.091753468 5.331611851e-19)
(143.7457321 6.166102668 -1.071620311e-18)
(127.504664 -21.06030663 1.3600689e-18)
(127.6662549 -19.9898953 1.35963043e-18)
(128.8628243 -20.29188749 8.85835451e-19)
(128.4654865 -21.58927094 2.904155019e-18)
(128.9113035 -21.2879103 9.055013346e-19)
(136.7478256 -13.20799048 3.921772506e-18)
(138.0862475 -13.43640673 -2.916774097e-18)
(138.5187826 -12.77300953 2.922057016e-18)
(117.0942843 -24.06272822 1.177142905e-18)
(117.5155037 -23.37874242 2.283813814e-18)
(118.3426214 -23.94275895 2.480629001e-18)
(117.8871844 -24.71421226 1.176853625e-18)
(127.2611305 -22.13697307 -2.143249485e-18)
(126.1582922 -21.72320713 -1.565525604e-18)
(116.6171722 -24.78453759 0)
(115.8624945 -24.1178819 -4.410401855e-20)
(93.18491803 23.97558491 3.810800527e-20)
(91.86631376 26.07232151 -3.05446265e-21)
(124.6479061 24.82554208 -9.078866005e-19)
(123.5465263 26.5102312 -7.301368514e-19)
(125.517926 28.18219377 -2.264718617e-18)
(108.0191682 21.88094976 1.209396937e-19)
(108.2173221 22.83119653 9.09769535e-20)
(109.3603116 22.76736355 -5.741974488e-19)
(152.8407295 27.09273581 -1.241308203e-18)
(151.74378 27.63365634 -3.87451536e-18)
(152.2849645 28.48292488 0)
(153.4084235 28.20886254 0)
(132.4413644 43.26523953 -2.986753119e-18)
(130.850627 45.44338899 1.00635777e-18)
(133.2689326 47.46960574 3.04283484e-18)
(134.9078899 44.6190609 2.117015393e-18)
(137.3973586 7.43301572 -1.076117214e-18)
(138.3943745 8.964452391 0)
(125.302867 3.53093039 9.977127355e-23)
(123.5494185 4.364266223 1.683664097e-18)
(124.3347905 5.92215517 2.359970955e-18)
(126.569149 5.351983944 1.917743026e-18)
(119.1347495 11.44731346 -1.292420102e-18)
(121.2415675 12.04029227 9.510609249e-20)
(121.1672457 9.98965251 -2.029758473e-18)
(152.3340155 -7.068751022 1.12357136e-18)
(151.9689369 -6.475823397 4.319907796e-18)
(152.6443347 -6.305890669 4.36980618e-18)
(153.136347 -6.86844003 -3.740065025e-18)
(155.9140773 7.252029869 -5.406479854e-20)
(155.3384377 6.781670135 -2.443003042e-18)
(156.4580623 6.645902751 -2.549491276e-19)
(155.7669516 6.20932885 -3.688642646e-18)
(135.3631512 -9.178591395 4.403678236e-18)
(136.7986727 -8.770900819 2.243691883e-18)
(125.0281138 -6.048795999 0)
(124.0892971 -4.646138742 7.548480753e-19)
(125.645834 -3.817002998 3.443115034e-18)
(126.9479149 -5.339261385 0)
(127.3732233 2.617463816 -1.672214223e-18)
(125.828495 1.045631976 -3.494342249e-18)
(137.4440511 -23.61537575 0)
(137.6716246 -23.19559183 -1.803114616e-19)
(137.9624965 -23.34240278 -1.758731871e-18)
(137.8456636 -23.733574 8.771627931e-19)
(145.4502219 -17.23860713 -4.161726416e-18)
(144.9271289 -17.26147054 -4.040901946e-18)
(145.5648973 -17.79732205 -2.051074306e-18)
(144.9753818 -17.76136899 -3.7316428e-20)
(126.6075362 -18.64880074 1.601382329e-18)
(127.7710237 -18.89277274 -1.81568969e-18)
(120.3087155 -12.82950554 -1.361617227e-20)
(120.1175402 -11.49557131 1.393967321e-18)
(121.7215678 -11.48257912 1.281261492e-18)
(122.0446915 -13.03784852 1.781233909e-18)
(126.0574367 -7.644753941 -4.760202355e-19)
(124.1307403 -8.08313446 1.541922825e-18)
(123.8560816 -28.91352863 6.015539489e-20)
(124.2025392 -28.43971578 2.775193092e-18)
(124.6448251 -28.76249763 -9.826825542e-20)
(124.2755124 -29.26168649 2.817255759e-18)
(130.3680673 -27.10036417 0)
(129.8440691 -26.83422214 0)
(129.5249357 -27.40868131 0)
(129.9050011 -27.78107183 0)
(130.1928229 -27.64184451 -1.889448659e-18)
(104.6395119 -33.35353032 -9.874291813e-19)
(106.7735114 -33.75134074 -1.319168317e-18)
(107.7802441 -33.80169901 -1.012066955e-18)
(106.4922767 -33.69943933 -6.893982141e-19)
(112.0128752 -28.91476735 7.456762229e-19)
(112.5241474 -28.64768726 8.443438964e-19)
(112.7014661 -29.06398765 7.526063208e-19)
(112.2710486 -29.3602513 1.502898589e-18)
(117.7689441 -29.49408722 0)
(117.4114054 -29.1119505 0)
(117.3616321 -29.88245689 -5.102659689e-19)
(117.0304096 -29.48639655 0)
(155.4532246 7.826619911 6.00823962e-18)
(156.0261836 8.320694249 2.490432295e-18)
(156.6015828 7.716220986 -2.861587554e-20)
(152.6111511 25.87118737 5.885123218e-20)
(154.0500631 26.68109187 -5.322731488e-20)
(153.6043393 25.68717521 -2.443880983e-20)
(137.5197123 18.17656841 2.757354282e-18)
(137.042625 15.98382564 4.807902726e-18)
(139.2505826 15.46088003 7.913279767e-19)
(140.451075 17.27846529 3.26158918e-18)
(139.830649 18.31259029 6.260505882e-18)
(150.6990502 26.08582839 -3.220598579e-18)
(152.989525 24.90315292 3.315202559e-18)
(151.8405638 23.52032922 4.39494306e-18)
(150.0106714 24.1793311 2.544748477e-18)
(154.8733418 7.359030913 3.570065773e-18)
(154.3866247 7.923946265 -1.257755999e-18)
(154.9718106 8.402659128 1.22830901e-18)
(145.3882695 -16.73680998 -2.109167923e-18)
(145.9153444 -16.69803436 3.05809517e-20)
(146.045722 -17.258374 -2.120938464e-18)
(151.6457102 -7.226919728 -2.122681721e-18)
(152.7947024 -7.637379922 -9.111634009e-19)
(151.9953671 -7.819634071 -3.23264029e-18)
(140.7129268 -3.300304164 2.420541528e-18)
(139.9726886 -3.840234789 4.466826795e-19)
(141.3487039 -4.027048525 1.69007407e-20)
(140.5488605 -4.416039824 5.09027873e-20)
(151.292274 -6.656529762 1.081720115e-18)
(150.9641059 -7.394295014 2.163819305e-18)
(150.7562514 -6.849415927 1.061907873e-18)
(144.8694004 -16.75289262 -1.993006449e-18)
(144.8654129 -16.25237872 2.004860503e-18)
(145.3204614 -16.22385375 2.094290378e-18)
(154.772526 6.337001926 3.637447992e-18)
(154.3074191 6.875040528 3.589632537e-18)
(151.0677643 -6.111269804 0)
(151.6010256 -5.905612249 0)
(140.2955205 -2.458511613 3.092333248e-18)
(141.0634613 -2.174724345 -2.303862634e-18)
(141.6353171 -2.837404925 -4.666059156e-18)
(130.6783457 -26.51515765 0)
(131.2186257 -26.76826256 2.301818964e-19)
(130.7653629 -27.47723024 -1.929208973e-18)
(131.0562707 -27.32758086 1.930864417e-18)
(137.030138 -23.51463294 0)
(137.3447613 -24.00060937 0)
(136.9843564 -23.88449072 -1.700751048e-18)
(132.9071122 -17.34726246 1.669832614e-19)
(131.556385 -17.25143926 -1.886575993e-18)
(131.5658442 -18.44677966 -9.78879375e-19)
(132.6425288 -18.90760319 -6.158867546e-18)
(133.1262936 -18.45434009 -1.36686038e-18)
(137.1329642 -22.8253972 -2.697049679e-19)
(136.7046124 -23.74295186 -2.261413746e-18)
(136.2007839 -23.37502748 5.112167418e-19)
(136.4471904 -22.65794903 0)
(130.1568622 -26.24615199 0)
(130.4299577 -25.65243771 0)
(130.9837681 -25.91622909 1.76392707e-18)
(144.4156054 -17.26664304 -2.30596529e-20)
(144.419294 -16.77207482 -3.984065874e-18)
(137.9951187 -22.95279204 -2.51153814e-18)
(137.3665484 -22.08946471 -2.190885876e-19)
(138.172117 -22.42091909 2.109271022e-18)
(137.9836543 -22.05138784 -2.468672352e-18)
(132.8257892 -16.1056334 2.1377312e-18)
(134.2287067 -16.11285852 -2.205227267e-18)
(134.0477736 -17.76496693 1.424419142e-18)
(134.5288403 -17.25959531 1.418501265e-18)
(118.1449143 -29.10898252 0)
(118.5127714 -29.48391197 -5.487497696e-19)
(118.1105359 -29.88460162 -5.530008465e-19)
(123.423079 -28.58685215 -4.109112586e-18)
(123.481744 -29.40286751 -1.36932337e-18)
(123.0725081 -29.0457962 -2.756017997e-18)
(103.0583373 -33.08710522 3.29667525e-19)
(105.0962964 -33.47009281 1.457413529e-20)
(100.6748088 -32.57724182 3.277768123e-19)
(102.1165664 -32.8628719 -1.677431077e-21)
(99.79810928 -32.20890179 5.420374933e-21)
(111.5724584 -29.17114059 2.660839206e-20)
(107.7883257 -33.78543536 -6.433817991e-19)
(160.5634665 52.21862474 0)
(159.1930415 53.55113557 0)
(159.112096 55.34834121 0)
(161.1751993 55.93326653 0)
(133.1141278 67.42668548 0)
(130.5917279 69.64652637 0)
(133.3146899 73.07528647 -1.898669498e-18)
(136.0276867 69.78533672 0)
(120.8033374 -30.11072131 0)
(122.9425603 -30.40626224 0)
(120.7555032 -29.95186527 3.119683983e-18)
(112.4057008 -28.1014073 0)
(117.1305878 -22.11947843 -2.17409395e-18)
(117.9132169 -22.64234197 -6.481295474e-20)
(114.127472 -16.00723376 -6.125041642e-20)
(114.3982067 -15.00809689 -2.38893252e-20)
(115.6948352 -15.52375334 -2.847045166e-18)
(115.4197778 -16.74430858 -4.970429928e-19)
(120.4465957 -14.31876753 -9.89961698e-19)
(118.8087558 -13.94673686 -7.855960824e-19)
(100.7850356 -31.67731039 1.349895387e-18)
(103.6636306 -32.37754386 -1.506218914e-18)
(100.5320499 -31.50746205 -1.518733291e-18)
(92.46215176 -29.17918428 -9.100479683e-18)
(114.1487887 -32.49251296 2.879010118e-19)
(114.6543203 -32.11515033 1.68314354e-18)
(114.9296611 -32.57118093 4.959139633e-19)
(114.2376824 -32.88294696 5.06653615e-19)
(114.4872251 -32.94990048 -5.642865147e-19)
(117.3537244 -32.51944369 -4.616481756e-19)
(117.1452245 -32.30666789 -1.809771879e-19)
(117.0949035 -32.68347924 -1.795892419e-18)
(116.9907181 -32.51192362 1.309703171e-18)
(130.2951394 41.54804096 -4.648399722e-18)
(133.7575013 40.80882815 -3.055323989e-18)
(131.6295574 39.65844568 -6.756927899e-18)
(151.2189693 28.59539331 -3.871025463e-18)
(148.7363323 26.610883 -5.776188014e-18)
(149.2782975 28.64323489 -5.690449547e-18)
(135.197751 18.42533339 -2.053315928e-18)
(135.3790825 20.66289495 -2.333153839e-18)
(138.477552 20.21006855 -2.83032465e-18)
(137.6517859 21.12300379 -1.368658209e-18)
(117.6782091 -32.25747996 -1.364193553e-18)
(117.7846068 -32.52709444 -9.33116107e-19)
(117.4836937 -32.69449427 -1.383547927e-18)
(120.4501104 -32.38619149 -5.144651907e-19)
(120.3587518 -32.20310206 -5.095085302e-19)