/*--------------------------------*- C++ -*----------------------------------*\
| =========                 |                                                 |
| \\      /  F ield         | OpenFOAM: The Open Source CFD Toolbox           |
|  \\    /   O peration     | Version:  v2012                                 |
|   \\  /    A nd           | Website:  www.openfoam.com                      |
|    \\/     M anipulation  |                                                 |
\*---------------------------------------------------------------------------*/
FoamFile
{
    version     2.0;
    format      ascii;
    class       volScalarField;
    location    "0.68";
    object      p;
}
// * * * * * * * * * * * * * * * * * * * * * * * * * * * * * * * * * * * * * //

dimensions      [0 2 -2 0 0 0 0];


internalField   nonuniform List<scalar> 
3019
(
975.240712
974.1490491
971.4203302
965.7080716
957.3100809
939.4175898
909.9506782
862.7687711
791.9504926
690.3351525
552.7796692
379.2816762
975.9319669
975.2659566
973.3803919
969.243394
960.8557572
945.7199389
919.6874928
881.4302143
817.750514
723.4453018
591.1993864
417.4348175
977.5264826
977.8034894
977.9040414
976.9933367
971.5273273
962.3857594
944.6363384
911.8704894
858.6913435
773.3943846
638.9881994
446.8207878
979.2745263
980.8849404
983.8698795
987.4937463
986.8321152
986.4827779
981.4348122
961.082946
926.8931344
853.5504822
715.5185602
496.3054749
979.8150893
982.9505482
989.2389191
998.3493712
1003.29873
1014.615235
1025.7534
1025.517155
1017.612233
972.4452894
851.9646656
595.6182046
977.6372642
982.2936876
991.8222034
1006.540829
1018.49001
1042.099848
1071.778223
1095.507253
1128.081863
1145.798662
1103.148555
862.3802265
971.2981837
977.275994
989.5757789
1009.188881
1028.445009
1063.315346
1110.45018
1159.877432
1240.47288
1350.203688
1495.479781
1567.792601
959.5514188
966.4713292
980.7329056
1003.740448
1029.56568
1072.625665
1132.393288
1203.865508
1323.811294
1511.186226
1835.012626
2466.816117
941.4640181
948.815095
963.9545496
988.4553389
1019.019031
1066.070075
1131.672872
1215.863857
1352.587021
1553.91881
1851.341714
2236.048792
916.5485995
923.7689133
938.5939783
962.5025463
995.6765451
1042.012597
1106.034612
1191.243619
1319.68156
1493.519477
1701.972958
1897.242394
884.8329954
891.4047692
904.8131051
926.1043434
959.9320677
1001.313537
1057.832015
1135.975967
1244.839034
1379.853294
1522.945163
1649.40494
846.8210265
852.3187594
863.5226868
880.3884021
913.6783519
946.6172667
991.3685366
1057.158356
1141.225678
1238.309308
1335.629747
1443.772546
2289.065096
1932.969292
1676.833995
1470.001986
2399.824915
1744.45861
1911.129926
2185.913375
1568.416392
1664.556764
1877.206838
1796.59659
1835.602141
1966.92741
1383.754315
1456.337853
1637.35685
1571.520707
1612.194122
1698.692337
1429.992829
1350.900445
1412.118053
1511.164921
2878.187523
2423.348018
3257.704322
2960.272192
1985.424866
2124.281095
2049.26346
2130.951957
1989.288587
2378.043993
2154.146609
1712.236075
1818.182433
1765.09475
1827.51004
1713.843473
1979.52735
1837.070249
1517.797651
1606.858167
1546.340734
1610.663203
1522.496416
1706.610447
1615.797023
1405.056981
1335.352314
1410.729862
1515.721085
1417.860284
1872.193744
2229.731836
2337.25723
2479.706547
2893.818646
3101.728577
2091.929054
2148.077263
2372.43636
2415.830941
2824.389116
2442.418037
2601.011171
4118.226923
3841.992306
2154.317173
3177.858637
1458.970382
1426.194917
1383.892667
2992.992281
2642.924345
2650.600469
2647.122375
3007.076303
2399.904466
2607.154782
2586.109405
3258.1503
3760.566178
3975.537289
3073.952918
3671.988219
3198.456353
3734.862222
3076.362623
2062.94408
2152.22354
2052.91423
2265.283788
2255.918497
2381.422151
2160.786778
2241.897305
2234.001347
1770.874311
1762.716144
1912.849675
1902.467603
1570.452807
1564.317487
1660.762121
1654.814328
1369.035777
1469.396458
1463.448076
2779.542251
4019.28891
1651.949807
1628.034086
1591.221482
1679.996991
1640.671796
1658.215349
1479.476881
1439.730385
1465.154859
1754.616535
1735.936853
1693.589139
1721.63139
1740.813478
1733.816833
1560.369935
1530.291532
1492.428812
1579.146342
1542.679859
1566.446401
1594.708246
1609.551956
1622.07117
1536.280091
1560.386097
1541.832964
1686.822836
1693.432017
1714.781234
1625.881144
1639.345848
1631.666375
1494.908149
1504.088446
1530.020222
1457.698988
1437.808342
2506.75867
2477.979864
4175.35238
4122.253535
2823.436003
2773.667418
2778.676583
2779.61586
2654.868149
2978.767855
2825.596274
2829.744372
2479.077449
2489.160216
2412.294293
2617.361494
2518.19486
2509.414473
3310.438292
3212.274695
3036.769828
3433.099944
3333.572406
2106.781923
2103.795422
2076.621267
2146.721689
2114.275013
2119.075741
2036.312713
2012.232472
2068.927864
2044.238076
2303.448224
2311.341076
2261.97788
2390.20973
2329.605332
2320.459676
2195.727262
2193.778799
2157.768634
2247.074743
2206.548883
2209.048443
1802.198399
1779.128478
1837.205869
1809.250253
1742.612386
1724.476277
1770.688291
1748.520729
1961.521608
1929.18206
2003.41567
1972.3325
1875.843431
1845.864295
1918.462807
1886.579667
1581.591161
1603.44103
1588.937223
1609.294725
1584.413054
1625.436455
1615.901848
1578.649195
1547.16509
1563.329996
1575.407922
1669.465055
1686.47142
1679.734674
1689.669609
1672.030415
1717.5106
1696.003237
1640.718573
1628.427165
1663.568521
1645.649419
1637.229166
1644.481179
1662.704971
1479.888582
1496.802496
1488.160049
1444.675506
1465.044615
1475.779635
1890.926062
1865.176632
1813.71824
1937.7647
1882.980109
1909.955036
1797.281838
1750.726316
1769.686759
1802.522755
1808.208993
1835.169601
1844.124782
1873.290621
1864.029094
2563.478213
2929.702743
3013.769401
2685.060905
2688.913892
2692.412751
2651.234916
2418.886013
2430.180166
2407.323591
2612.42893
2576.625689
2570.934475
3454.796115
3277.464878
3400.259569
3630.261307
3653.545459
3795.537805
3081.382991
3153.668749
3153.096087
2087.473015
2084.389717
2082.143251
2150.149432
2139.799338
2142.247211
2032.762856
2026.374797
2076.560695
2067.640228
2272.312853
2274.473368
2258.824018
2385.768035
2364.636972
2361.182597
2169.835186
2170.270177
2159.947794
2244.476387
2231.913389
2231.039693
1777.168774
1800.440466
1793.762368
1741.323254
1747.261316
1769.215503
1925.172989
1956.556662
1941.435926
1947.665457
1936.351826
2018.929908
2008.234755
1857.419694
1925.153299
1914.06385
1874.209841
1883.606771
1914.722667
1614.263374
1609.219999
1604.077897
1542.968343
1539.115866
1532.081366
1553.346275
1546.763565
1551.522181
1418.752185
1410.89228
1512.73082
1509.742609
1501.873531
1525.306407
1517.861965
1522.050074
1433.523303
1428.27117
1449.987481
1432.297784
1440.344381
2533.709396
2445.981802
4580.526545
4534.35361
4122.743398
3989.819115
4416.470715
4252.458802
4393.225727
2875.903434
2727.71735
2483.972054
2455.283004
2443.933696
2538.98249
2543.915888
2513.454016
3438.27858
3540.495919
3531.739409
3849.223558
3717.901447
3238.42156
3237.175698
3334.468828
2106.319219
2096.486597
2097.089689
2131.121984
2128.831404
2117.558247
2045.278979
2038.894332
2059.170599
2051.953457
2306.820354
2290.405438
2288.057122
2340.057188
2343.959299
2324.537479
2194.989982
2182.153484
2181.724434
2220.65306
2220.014527
2207.823315
1795.04368
1797.093132
1803.328886
1781.082976
1789.71085
1787.347954
1826.969797
1825.916983
1837.821827
1808.948774
1815.897119
1817.282865
1736.889681
1739.219572
1744.112462
1727.659748
1733.818203
1730.902798
1762.573697
1763.129592
1771.867233
1749.141236
1755.389473
1755.149205
1970.657078
1959.181681
1950.758254
1955.239515
1966.307171
1933.029235
1944.10444
1939.962226
1994.917319
1982.21462
1881.593054
1871.630767
1865.340798
1868.334146
1878.728079
1846.865664
1851.577185
1854.153266
1907.799797
1911.160479
1922.053574
1889.649063
1900.373366
1897.184962
1903.207791
1892.450487
1588.299536
1584.639683
1578.014158
1598.184986
1591.536541
1595.927917
1600.126461
1591.322025
1622.684484
1619.68466
1574.373603
1564.240802
1558.616077
1558.730417
1556.493219
1571.5739
1565.730857
1570.580433
1676.211387
1681.208023
1692.838907
1676.811818
1710.213087
1712.671645
1720.416378
1698.770049
1705.480916
1703.088177
1636.048493
1631.913381
1656.248393
1650.657905
1484.894322
1482.570501
1477.141412
1494.802201
1488.435658
1490.518343
1469.43561
1462.868253
1456.939056
1472.186405
1467.587934
1472.575681
902.2589167
862.6094198
836.966737
845.6870654
783.2993093
751.1478888
757.3755232
663.2014427
628.7103185
624.5671575
490.2157605
464.5314933
438.4926125
947.1913128
919.8719494
874.6392852
907.506585
854.8468105
798.6139164
830.5967348
733.7585362
678.1922724
692.4687142
540.4779241
500.335024
480.1588724
1008.409068
999.2624142
937.9443309
992.7693724
957.1216969
877.0383557
938.1392361
851.103363
757.3739115
809.5180897
636.2269057
558.3919357
560.0924013
1078.079464
1095.328275
1022.135216
1099.46606
1101.889291
988.9041183
1097.317853
1054.711378
892.1867795
1026.1748
861.7271707
675.9672426
769.7878772
1145.104727
1195.053528
1120.562825
1213.730539
1276.309457
1144.235219
1299.424582
1369.800307
1124.048015
1389.229747
1384.02667
955.8346887
1326.015222
1195.6434
1275.317434
1217.919035
1307.658309
1429.123735
1319.502474
1480.405968
1684.23784
1456.966025
1776.170805
2281.639329
1582.119489
1916.832723
1919.584681
1351.290699
1216.166103
1311.256306
1289.019057
1349.857658
1494.435592
1455.361052
1554.433731
1779.800126
1734.019628
1868.776018
1991.426928
1954.920748
2499.391337
2650.794346
2620.410269
1200.434054
1294.679917
1313.289702
1332.021761
1464.097424
1496.078671
1514.977675
1684.702442
1767.103476
1821.054092
1900.514493
1942.841411
2185.245061
2222.94726
2281.730908
1152.315023
1235.038437
1283.462642
1266.749868
1373.079674
1445.837994
1411.516154
1529.964518
1648.808005
1658.121871
1704.212547
1754.265638
1862.689991
1875.2633
1929.369175
1078.648158
1144.63176
1214.84009
1169.187596
1248.240402
1344.325604
1275.621628
1357.283991
1488.078607
1477.111414
1507.884167
1556.531514
1622.840091
1633.604595
1672.943689
1118.543461
1213.523635
1311.712383
1286.100729
1300.671589
1359.447998
1416.961909
1431.036928
1470.97549
2345.132095
2412.271033
2342.985017
1947.906197
2005.583955
1970.352297
1686.55754
1728.780294
1705.234936
1483.93608
1522.043796
1495.755596
3034.71934
2173.211399
2049.923348
1232.528249
1843.843025
1804.256379
1853.476054
1784.650521
2020.16065
1918.539812
1835.451017
2027.553751
1949.559309
2059.367285
1605.341074
1654.469396
1613.491467
1750.596728
1696.346328
1619.658938
1805.296288
1724.879487
1780.937671
1806.609187
1857.658438
1829.134069
1853.611198
1846.55434
1829.113089
1956.505219
1937.966834
1948.121503
1409.701838
1459.07932
1430.79471
1533.411542
1492.505097
1418.654903
1592.58966
1518.745797
1558.941039
1583.645723
1620.869976
1596.9489
1628.586686
1617.495902
1605.967572
1693.003909
1679.651608
1685.307679
1391.401653
1310.845928
1346.937705
1374.769473
1417.432525
1389.395992
1432.883025
1417.174585
1396.826822
1496.788861
1483.628559
1490.888769
2797.893675
2815.606403
2959.181814
2412.852532
2490.15382
2472.85625
3296.352758
3478.480587
3438.31642
3020.46246
3124.575827
3044.04079
2041.112677
2014.34929
1956.469796
2100.18193
2034.526164
2060.473721
2009.167622
2026.159089
2073.234255
2109.062141
2112.027131
2144.611707
2005.883682
2031.238848
2015.92508
2336.767259
2329.403255
2390.460544
2155.93254
2192.343936
2178.859644
1725.956582
1720.419729
1706.586571
1812.116444
1795.626239
1801.380212
1734.644134
1743.649109
1790.200037
1819.45392
1821.476799
1830.290382
1716.192552
1722.927998
1720.158187
1951.719729
1966.98657
1996.877057
1839.252064
1848.428749
1845.429535
1536.879142
1522.413801
1509.775671
1594.510144
1582.977794
1590.396658
1521.15917
1534.505898
1571.396624
1605.495667
1609.628419
1614.496512
1527.36987
1534.423669
1529.291078
1700.290204
1702.569275
1709.413293
1619.331062
1624.24267
1620.977247
1389.427339
1359.953436
1403.039404
1407.934418
1415.79835
1508.85833
1513.341398
1520.454765
1423.536937
1428.658156
1423.968864
1976.453501
1995.496859
1879.510092
2346.117482
2097.76265
2054.54155
2048.788111
2104.072642
2369.365881
2604.648919
2644.687717
2501.158726
3078.237184
2771.486699
2691.479744
2815.679397
2783.264697
3119.585738
2119.336269
2168.951508
2137.195328
2229.667985
2202.67384
2126.000527
2328.076763
2233.36998
2261.260841
2568.927506
2481.189854
2365.474307
2648.519259
2525.456508
2627.724054
2395.318978
2480.767938
2546.709968
4171.783119
4353.806744
4275.462082
3928.340281
4057.060979
3945.744174
1731.15547
2425.166402
2590.680985
2557.876304
1865.507061
3760.175889
2860.025629
2753.610305
1444.250662
1430.908604
1439.673593
1412.448555
1421.538951
1435.132987
1393.218746
1407.571413
1398.377415
2652.282668
2771.844874
2721.03986
3004.609495
2943.480048
2945.147094
2527.0008
2518.949857
2616.129593
3407.426802
3464.27098
3294.210695
3984.10229
3666.43931
3504.979862
3653.478811
3697.859168
4023.931667
3147.295763
3136.047295
3068.387013
3597.717584
3521.531536
3583.125492
3125.03779
3229.409992
3328.063939
2073.355948
2101.61286
2088.250952
2025.625124
2039.582098
2065.006695
2261.616591
2311.318727
2299.366422
2205.314296
2205.212739
2246.637603
1772.80252
1780.541349
1778.011965
1755.802618
1757.654138
1765.154544
1916.719585
1926.695517
1921.956735
1893.42837
1896.839063
1906.767872
1574.302146
1580.71168
1576.67539
1558.412936
1562.182495
1568.031489
1663.744984
1669.618595
1667.05994
1648.885684
1651.628859
1657.760427
1378.62563
1473.415273
1479.203465
1475.452999
1457.47653
1462.387111
1467.85979
3194.313425
3499.962391
1641.469948
1629.298772
1634.252768
1615.617648
1622.625901
1634.892665
1598.673039
1610.564124
1603.351671
1666.653652
1673.317706
1686.661419
1647.422833
1660.220534
1653.533696
1672.273558
1666.561895
1653.81195
1466.365389
1474.98175
1488.08396
1448.513279
1461.773501
1453.108475
1484.26206
1470.453511
1457.358593
1749.195046
1734.604453
1740.037516
1721.520256
1728.291634
1742.824558
1700.257959
1714.10737
1707.403075
1728.199571
1725.568096
1718.902074
1738.707819
1732.133685
1734.54803
1727.435363
1729.628334
1736.382951
1546.965084
1534.734443
1542.651619
1517.809384
1526.22175
1538.597202
1501.024564
1513.720184
1505.193984
1567.083427
1575.002544
1586.843164
1550.890313
1563.029837
1554.93814
1584.628255
1571.213261
1559.169137
1599.224364
1604.583292
1600.205697
1618.312257
1613.884648
1618.307616
1535.888174
1541.433235
1547.359308
1688.924853
1695.728296
1693.061043
1700.619235
1698.196656
1691.222382
1712.095514
1705.165519
1707.722404
1629.968413
1627.274371
1622.720127
1637.137288
1632.075851
1634.464529
1626.257268
1629.309509
1634.550359
1498.63941
1505.94928
1501.873119
1430.475669
1433.193385
1442.79014
4340.272789
4374.525146
4191.531333
4456.482321
4555.777574
4042.92391
4169.377706
4263.839634
2782.015294
2735.791668
2732.147948
2735.793747
2737.580601
2783.272614
2653.949153
2694.546888
2694.371816
2923.779437
2936.592863
2994.106444
2831.65764
2882.617798
2873.382882
2885.542834
2885.73353
2831.887738
2461.58216
2460.151499
2487.377231
2410.651767
2434.379325
2435.994717
2582.052377
2580.041213
2615.746188
2516.193618
2546.973434
2549.090908
3283.617048
3207.826255
3225.842323
3153.225005
3181.696552
3249.941765
3053.747337
3116.418374
3091.137049
2093.938443
2095.291554
2105.334156
2079.457359
2085.856013
2084.776837
2135.836241
2137.909186
2148.587585
2116.119772
2127.037462
2124.998845
2028.452583
2033.874804
2041.100397
2019.043873
2026.623743
2020.489752
2060.80645
2064.682113
2072.877256
2048.453544
2056.241038
2052.416389
2294.087884
2293.011876
2309.984095
2261.233937
2276.802929
2277.677583
2369.158443
2367.630715
2388.628527
2328.071081
2347.36605
2348.941157
2181.274754
2182.243714
2194.81021
2159.204077
2170.305099
2169.23836
2233.025266
2233.003848
2246.570238
2207.488299
2220.210633
2219.581445
1993.734623
2000.664349
2010.651233
1977.491147
1989.156935
1983.204057
1582.890396
1587.181635
1593.42388
1551.809708
1556.470947
1552.633284
1674.083224
1672.080089
1666.687053
1684.488274
1677.749105
1678.328134
1673.737284
1675.791487
1682.299125
1639.979977
1645.652188
1642.977874
1649.839263
1648.009666
1642.428543
1660.538729
1654.072971
1655.797945
1481.684149
1485.289998
1491.737868
1450.044423
1456.650649
1451.302271
1882.493213
1864.369088
1872.103549
1847.707785
1855.82594
1873.507077
1821.49848
1838.478952
1830.522904
1919.303854
1928.079951
1946.574209
1891.489601
1909.694933
1901.014114
1929.069208
1919.384486
1900.859381
1781.342788
1788.738718
1804.893595
1757.743241
1773.024691
1765.817562
1785.236927
1779.665629
1764.211194
1804.394237
1812.800718
1810.245507
1816.63117
1814.991215
1806.540412
1832.801832
1823.836338
1825.827097
1853.305652
1851.089825
1841.794217
1870.499341
1860.71987
1863.237986
1855.358372
1857.853046
1867.420093
3401.855015
3458.655397
3524.052628
3320.056781
3390.530821
3337.244389
3492.059327
3442.672861
3362.491361
1785.086201
1782.899851
1775.097206
1798.510779
1790.688081
1792.835062
1786.407754
1788.352341
1796.268699
1743.26552
1750.347768
1747.941367
1754.128564
1752.440904
1745.434541
1767.347528
1759.75878
1761.471778
1935.645576
1931.20859
1921.004678
1951.561893
1941.402478
1946.116695
1932.334339
1936.646631
1946.585395
1877.149899
1886.96024
1883.112638
1893.93901
1890.533977
1880.480043
1910.811496
1900.652412
1904.313426
941.1614251
928.7003275
926.5154567
912.6556307
891.8143572
888.8416711
866.223096
834.7625277
830.7782042
796.4531296
750.3509286
745.3949698
695.6240993
631.6312011
626.2052753
558.0507462
474.8813671
470.2921361
382.7606175
283.5674126
281.2106997
965.1793458
960.1903298
954.3687139
952.9680117
943.3174945
934.3596105
930.5156254
912.7380283
894.1820945
887.0482341
874.0504498
868.6234057
825.3307792
805.2955359
798.1589636
732.4952685
703.253365
694.9407885
600.4184105
560.0386434
552.0748887
423.8830033
372.8877591
367.8599717
978.8943036
976.9272832
967.8028245
973.6787794
968.7909832
954.8921614
961.7898167
953.7058236
921.5065775
922.5456876
912.6215422
901.0513074
873.2859984
856.5271896
840.9806385
790.8720404
762.5731396
745.2937622
654.7241338
611.0810328
596.5235421
455.9730969
397.2314054
390.700309
995.2675453
997.8358084
986.9783753
1000.323474
1002.11033
984.7107337
1003.006305
1009.494055
966.3591703
975.9235419
971.0008855
954.7109714
947.5343726
935.2410432
913.3517033
878.945388
852.3128037
826.0585832
742.1827444
694.0601027
668.4103195
513.8702308
441.9148195
427.4593237
1011.952976
1019.758607
1008.805904
1028.792675
1038.684726
1020.339829
1048.891946
1071.510107
1024.643441
1042.994882
1045.078842
1025.787478
1043.964222
1039.853805
1010.885834
1010.169954
992.4090415
951.4244023
901.5211828
854.2628869
803.2275372
640.6101992
541.5381731
503.6347077
1025.384023
1038.324043
1029.627103
1053.852375
1072.009447
1056.253831
1092.807543
1130.496626
1086.704094
1112.718213
1123.576657
1104.137262
1156.941549
1167.814372
1134.783381
1196.109405
1201.664002
1143.587502
1189.960462
1168.190975
1070.715554
981.3171157
850.3182871
738.5455614
1031.551503
1048.807303
1044.780456
1069.774378
1094.633619
1085.065581
1123.915359
1173.880205
1143.091967
1173.437444
1193.581643
1177.815225
1265.304448
1293.839377
1264.770529
1398.552701
1441.187095
1383.489294
1599.454046
1663.637574
1533.347851
1027.096243
1047.092305
1049.497339
1071.494931
1100.416482
1099.921131
1135.141291
1190.23616
1180.564607
1209.92738
1236.759093
1229.460335
1336.097382
1377.078329
1362.62881
1533.667647
1600.522245
1574.917807
1010.17531
1030.930912
1040.794626
1056.225689
1086.064622
1095.849659
1121.883393
1174.392406
1189.141443
1212.672154
1241.817226
1245.275713
1348.274719
1391.048342
1395.861366
1545.918995
1607.324369
1618.107067
980.3346185
999.9166654
1017.191505
1023.604437
1051.404745
1071.162718
1084.512851
1128.887667
1165.474808
1180.076519
1207.460847
1219.368539
1304.426286
1341.86996
1358.812648
1468.757047
1515.090652
1543.639306
938.8744125
955.4451808
979.2533252
975.490317
998.9224573
1027.173876
1026.573762
1059.515856
1113.460182
1118.15986
1141.35218
1160.363583
1221.141379
1250.829433
1276.542641
1346.523965
1379.637377
1415.985793
928.9792097
967.1939476
1039.301457
1034.58935
1052.479082
1076.379738
1112.204658
1133.656456
1164.754766
1199.925419
1221.966613
1263.060862
2542.370881
2421.402825
2302.458923
871.7205914
997.8213629
1946.177746
1920.063667
1887.156554
2133.801045
2097.045502
2142.464512
1692.45913
1677.610329
1650.326846
1855.064757
1823.715867
1844.238671
1482.263146
1469.289803
1443.428007
1623.610186
1597.359875
1610.769824
1617.588534
1613.980838
1608.746739
1417.191705
1390.47722
1403.119193
1418.861013
1413.94608
1406.580549
1506.495387
1500.2198
1504.429727
2003.78283
1993.619214
1975.012198
2117.004891
2094.177025
2101.937489
1994.325101
2003.339673
1997.825408
1970.766586
1975.799604
1985.187163
1524.415202
1519.553407
1513.414591
1602.894055
1597.695122
1601.465703
1399.447253
1392.183009
1397.604678
1342.639916
2272.644162
2203.385642
2169.629192
2231.673843
2256.848654
2368.28984
2961.940763
2879.952421
2825.013986
2966.020518
3010.467408
3140.054839
2173.447521
2167.017897
2141.243368
2361.380341
2323.233225
2332.396649
2462.851499
2446.279211
2402.254839
2767.259287
2709.195782
2755.903827
3342.390613
3192.849282
3061.216
1454.248166
1448.198367
1452.702374
3845.562975
3746.087401
3672.672142
3811.476994
3865.605998
4013.739367
2066.223718
2076.102091
2070.698035
2044.128372
2047.840179
2056.855833
4142.172954
3948.89712
3847.838803
1649.230025
1643.500119
1645.978302
1664.917385
1660.508576
1655.628493
1471.423125
1467.013998
1460.983425
1556.095471
1550.413663
1554.367034
1572.580528
1568.259275
1562.532219
890.7084625
881.6296078
893.8155107
852.0894559
867.4464177
877.2998506
852.8968436
859.5463787
843.2915212
827.2423748
815.2816901
834.3650862
770.0206197
793.4254168
806.1584743
774.9350001
783.3432334
758.9696297
729.3444758
715.122907
743.4290324
649.3402966
683.2377165
697.5958248
662.3942714
671.8036169
637.2271246
583.3585828
571.1704014
611.2747983
480.6458029
526.795085
537.9578358
509.3677715
517.4973748
471.3434133
385.1164738
379.3479725
430.5808924
324.7814429
328.5191527
317.3485645
321.3951441
939.4985069
925.4499898
934.3237831
903.2549689
915.1150763
930.4340335
888.5727645
901.1583323
888.1726278
892.9382715
873.9184572
889.5649606
834.5290045
855.7170737
875.4923176
820.8581082
837.4144622
815.8050391
802.5718857
781.5214994
809.8136278
712.9882494
749.2386124
770.3398203
713.3663707
730.401872
694.6137716
646.4955893
627.5744913
672.3801304
524.9493815
578.3112373
595.6898595
550.0004847
563.2413177
511.6987221
415.2532903
405.4446635
466.7038111
341.8512662
346.7110762
332.0967183
336.4169962
1006.70655
988.3171583
991.6880896
977.7014414
983.8174248
1003.730336
947.0594902
964.9093272
957.2835801
983.9036711
958.7267609
969.475448
927.9893624
945.0367441
972.1800771
896.8364942
919.9609399
901.3528416
914.6268074
881.7076994
907.0517646
815.3972905
851.3432007
885.8589008
794.0902215
820.9259738
784.3780324
760.3409478
724.348125
773.2301849
604.3934738
668.2144822
702.8111441
615.8817609
639.6824086
579.1888318
475.9676175
457.5655454
533.3281331
373.3918688
386.838466
353.1180304
361.5378622
1084.447185
1064.694511
1060.530998
1070.386169
1068.105004
1090.275277
1024.655794
1046.108623
1046.029218
1102.216196
1070.496571
1071.393147
1061.319636
1067.364367
1103.358438
1001.483859
1033.218688
1023.533752
1088.700502
1037.984934
1051.733031
993.2789143
1018.905299
1074.828034
924.9765246
969.1573706
939.3321047
986.6142136
914.8460473
959.2280911
786.0678349
857.8420428
932.7832108
744.8772113
795.9581032
725.141905
654.5500752
590.6834349
697.4465403
465.4853329
515.0471322
402.8476665
428.699715
1160.73175
1142.631303
1129.337109
1170.7268
1156.461131
1177.419721
1112.527956
1134.654977
1145.812976
1233.385716
1200.885588
1185.612051
1232.085291
1216.461081
1254.313881
1140.360406
1178.20877
1187.775328
1323.181618
1262.11273
1247.628558
1283.048733
1274.551218
1347.034922
1136.814516
1204.164167
1200.657049
1402.228928
1279.5471
1286.508355
1214.005494
1258.995267
1405.566599
1023.311935
1131.51179
1072.025848
1194.903866
999.0948363
1133.200119
796.0912515
1097.874007
581.5734127
672.7137507
1219.670775
1207.67073
1185.449155
1258.660023
1231.977357
1246.117919
1197.105776
1215.451276
1239.282789
1343.63288
1320.493628
1288.014768
1396.996707
1356.659127
1383.902581
1291.108951
1325.308562
1360.081219
1538.863316
1493.67142
1442.385912
1618.44114
1551.743604
1605.965051
1419.204671
1488.441395
1541.179574
1886.122743
1784.427472
1695.129982
2002.954342
1890.065371
2024.726653
1565.714252
1732.374035
1798.617884
1699.923425
1752.104959
1948.271041
1244.849916
1241.82336
1213.964687
1306.929745
1272.687075
1276.413632
1257.71785
1266.446614
1299.399075
1392.841007
1387.420976
1345.004324
1488.094392
1434.855835
1440.856294
1406.212408
1423.070589
1474.90486
1621.487387
1615.883248
1548.12208
1780.165762
1692.497544
1696.650251
1648.321404
1677.098269
1765.687667
1229.073174
1236.456386
1207.526653
1303.114621
1268.240898
1260.430174
1277.617408
1273.947138
1309.340976
1372.62967
1383.168651
1341.337574
1478.634083
1428.861767
1416.635928
1443.541528
1438.010766
1489.537506
1569.049435
1590.579616
1532.59606
1717.368408
1652.246841
1625.804233
1689.143322
1673.78336
1745.440866
1177.810979
1193.555826
1167.054409
1253.341164
1222.302089
1205.382899
1250.063448
1237.262569
1269.570125
1300.432221
1322.289362
1286.683117
1399.817129
1360.060725
1335.94714
1400.883806
1381.844432
1424.220705
1450.85119
1484.001966
1441.265609
1570.903112
1527.436719
1490.538177
1595.625012
1562.62117
1610.657796
1893.03949
1884.410901
1868.327503
1920.152077
1903.528916
1911.123971
1099.250655
1120.95655
1099.031913
1169.481216
1144.466338
1121.276867
1186.660906
1166.288303
1192.915191
1194.779172
1223.533835
1195.888105
1281.718801
1252.2236
1221.205959
1309.78362
1281.794928
1313.794054
1303.088933
1341.972831
1311.737118
1401.781804
1372.099458
1330.38849
1452.239938
1412.727732
1445.352396
1646.481959
1639.112132
1627.244941
1665.725345
1653.520888
1659.642679
1096.880463
1071.474885
1091.418464
1188.927751
1155.569975
1177.729123
1287.586506
1243.716019
1265.087068
1444.525265
1435.5995
1422.920228
1462.121662
1449.772169
1457.808511
1700.29629
1693.293304
1680.714177
1721.973312
1708.908589
1714.425349
1496.78239
1488.02413
1475.965721
1513.441965
1501.620402
1509.45957
2697.614633
2559.614445
2718.094416
2152.772019
2362.792479
2446.561502
2183.357654
2269.799511
2104.225218
1401.989872
1232.13457
1075.728552
1674.936738
1426.66197
1600.210501
1162.869237
1383.017826
1988.47325
1953.814461
1982.536757
1861.442278
1892.027948
1861.603097
2100.170737
2060.277878
2023.98238
1733.980848
1705.507701
1721.122233
1671.86638
1688.686358
1715.951579
1635.0207
1661.537833
1643.571701
1779.492118
1801.735367
1831.283768
1744.143955
1772.622056
1750.111797
1812.145607
1793.101101
1763.206442
1823.289936
1816.019105
1801.025207
1849.698759
1834.155334
1840.393854
1520.378286
1494.907802
1507.913634
1468.987188
1481.552411
1506.904342
1430.411185
1456.131652
1442.423114
1568.785296
1583.050995
1608.886517
1532.13362
1557.545072
1542.329247
1584.673672
1571.475583
1545.85682
1595.93712
1588.129458
1576.632229
1613.321278
1601.694005
1608.352558
1625.289806
1619.953631
1623.028847
1367.086148
1377.904016
1404.409467
1322.999032
1350.822181
1338.850153
1375.490997
1363.140239
1335.008977
1389.411999
1380.780004
1365.764
1408.344178
1395.408478
1403.59534
1427.739034
1421.143296
1425.790148
1401.77067
1409.854071
1402.538929
1497.677254
1493.222324
1486.898786
2861.022505
2847.342336
2806.749795
2930.429358
2892.534847
2909.024566
2437.169788
2437.178064
2413.373134
2489.831273
2463.348394
2462.56317
2031.659155
2012.451225
2022.254192
1994.788327
2003.335503
2022.908922
1965.214994
1984.104695
1975.449168
2079.454213
2086.681148
2109.606253
2043.123746
2064.482627
2056.29073
2080.71843
2072.428269
2051.567013
2122.683594
2120.023603
2110.156888
2142.147151
2131.83708
2133.57388
2014.516783
2008.81049
1999.954685
2026.139793
2017.513587
2022.930384
2007.464949
2012.22306
2021.087782
2348.901804
2348.310189
2328.859877
2390.370996
2369.090776
2368.990958
2167.622767
2165.480799
2154.506705
2190.360112
2178.534148
2179.767902
1758.733949
1752.045817
1738.320852
1783.418157
1769.054718
1774.334375
1956.44438
1966.22406
1960.716961
1977.327447
1971.668325
1961.67406
1990.854086
1981.429311
1987.363298
1532.043919
1526.274324
1530.810695
1596.012219
1591.742473
1586.400642
1546.886715
1538.488499
1526.861169
1563.2805
1551.790013
1559.16194
1382.348522
1386.907582
1394.234492
1351.03001
2256.810956
2233.388468
2312.491674
2377.877456
2269.157832
2269.688709
2965.423401
2927.729869
3024.696654
2757.28276
2836.435442
2861.758768
2756.442432
2799.941994
2723.217095
2885.669991
2900.917152
2771.639478
3143.257006
3013.617946
2994.645838
2223.462562
2194.408571
2200.531056
2176.976933
2186.286746
2214.515268
2133.85424
2159.2541
2149.035145
2295.752923
2310.518953
2346.765773
2244.634038
2276.616054
2262.090647
2295.434788
2287.706877
2254.532817
2543.542955
2493.318189
2513.830973
2442.546307
2469.079415
2514.518623
2385.088383
2426.027131
2401.306312
2610.50165
2659.750865
2708.595977
2561.763643
2610.42743
2565.278795
2690.102382
2652.083701
2596.592048
1920.743464
2142.781866
2294.556694
2378.771639
2613.891343
3478.223657
3335.056401
3533.858364
2850.253835
3100.992016
3169.796665
2915.876465
3009.299953
2809.734785
1446.33266
1441.290912
1434.965402
2690.211933
2683.673609
2649.707039
2761.848958
2724.745567
2730.048541
2549.673533
2547.879773
2519.134781
2612.301526
2580.773051
2581.849028
3854.355875
3812.839932
3922.361482
3588.577948
3645.22954
3537.532254
4025.918881
3880.410365
3889.226427
2082.209178
2079.12617
2069.663068
2098.839425
2089.588122
2091.716497
2029.946193
2038.875129
2034.158091
2048.05655
2043.504302
2034.784592
2060.920399
2052.258499
2056.607065
2277.517194
2276.23343
2260.724219
2310.268201