/*--------------------------------*- C++ -*----------------------------------*\
| =========                 |                                                 |
| \\      /  F ield         | OpenFOAM: The Open Source CFD Toolbox           |
|  \\    /   O peration     | Version:  v2012                                 |
|   \\  /    A nd           | Website:  www.openfoam.com                      |
|    \\/     M anipulation  |                                                 |
\*---------------------------------------------------------------------------*/
FoamFile
{
    version     2.0;
    format      ascii;
    class       volScalarField;
    location    "0.46";
    object      k;
}
// * * * * * * * * * * * * * * * * * * * * * * * * * * * * * * * * * * * * * //

dimensions      [0 2 -2 0 0 0 0];


internalField   nonuniform List<scalar> 
3019
(
48.38420526
51.21837203
45.07618616
41.5347054
39.36028955
37.92052658
36.79214708
36.08936396
35.41162805
35.13342946
35.00043234
34.94735184
55.98041641
51.15515428
45.27510712
41.74587483
39.52141966
38.02027582
36.82953946
36.07787997
35.34955001
35.04455056
34.89493733
34.83477865
55.29821332
50.6227328
45.19801019
41.8043869
39.597232
38.07384748
36.84310345
36.0523301
35.28685964
34.9604786
34.7966183
34.73052116
53.31237162
49.67676481
44.93098558
41.75055394
39.5952134
38.07834072
36.82832126
36.00844058
35.21691862
34.87515177
34.7010052
34.63002395
51.48933532
48.64106137
44.4695417
41.56607502
39.52604586
38.03617753
36.77254878
35.94493578
35.13960412
34.78783464
34.60502334
34.53005266
49.83281239
47.65407571
43.95719427
41.29771636
39.37557343
37.93480219
36.68223259
35.85797153
35.04902664
34.69166473
34.50480244
34.42684283
48.3077066
46.75423399
43.4625598
41.00097013
39.18124419
37.79409664
36.56705686
35.75306945
34.94778494
34.58846852
34.39928854
34.31967824
46.86776639
45.93423051
42.99517466
40.69605705
38.96594386
37.62938607
36.43360891
35.63343818
34.83589128
34.47677611
34.28655977
34.20588341
45.51705085
45.16078708
42.55116203
40.3949273
38.74233105
37.45116016
36.28700594
35.50230073
34.71600857
34.35916523
34.16890434
34.08763435
44.24438488
44.42845952
42.12665482
40.10288392
38.51744404
37.26623548
36.1315123
35.36263558
34.58814325
34.23396356
34.04395503
33.96235828
43.04900272
43.73259278
41.71831698
39.8210555
38.29521231
37.07886719
35.97058366
35.2169744
34.4561252
34.10578656
33.91640936
33.83467395
41.92759014
43.06914424
41.32439127
39.54844976
38.07750714
36.89172934
35.80683219
35.06743467
34.31838862
33.97102718
33.78201491
33.70016188
40.87215118
42.43467775
40.94367036
39.28388315
37.86493506
36.70644582
35.64211627
34.91559781
34.18017362
33.83693483
33.64850516
33.56657915
39.87293289
41.82630725
40.57497018
39.02645133
37.65745164
36.5238814
35.47768295
34.76272613
34.03693278
33.69595387
33.50754931
33.42544105
38.9279044
41.24179085
40.21719087
38.77549163
37.45481222
36.34446
35.31437245
34.60964575
33.89702011
33.56012504
33.37205945
33.28977384
38.03585871
40.67886758
39.86928534
38.53041355
37.25668921
36.16831987
35.15269851
34.45710047
33.75058765
33.41477017
33.2262999
33.1436658
37.19253943
40.13681944
39.53037461
38.29072098
37.06277636
35.99547668
34.99299054
34.30539654
33.61261748
33.28098131
33.0926151
33.00965615
36.39433175
39.61562476
39.19970009
38.05595939
36.87276881
35.82585566
34.83544312
34.15507713
33.46323261
33.13124959
32.94210925
32.85862071
35.63845859
39.11358202
38.87665933
37.82574316
36.68639102
35.65935514
34.68018246
34.00607842
33.33110212
33.0036093
32.81436866
32.73043005
34.92270319
38.62829787
38.56082801
37.5997767
36.5034119
35.495853
34.52729231
33.85902639
33.17643978
32.84723768
32.65699449
32.57235787
34.24508698
38.15809884
38.25186859
37.37780867
36.32360987
35.33518135
34.37689183
33.7135109
33.05604831
32.7313467
32.54077313
32.45562432
33.60432641
37.70284522
37.94960969
37.1596861
36.14683805
35.17728304
34.2293861
33.57087554
32.88946738
32.56299528
32.37136198
32.2853489
33.00031585
37.26286104
37.65408403
36.94532026
35.97298049
35.02203505
34.0860372
33.43115226
32.79168934
32.46707586
32.27487134
32.18835102
32.43598312
36.84224271
37.36758557
36.73558378
35.80239376
34.8695448
33.95069055
33.29971349
32.57757452
32.25162311
32.0579481
31.97022307
44.1019644
47.46167034
52.64320134
53.64990449
44.51466308
55.69431891
53.10233785
52.66228108
54.57280037
53.9505866
56.02316681
50.7833004
50.15960901
52.98729505
56.26863977
56.09127405
40.37213388
46.85321184
39.87610206
41.91770351
54.24575293
47.79771387
55.81098928
52.51875674
53.02694547
55.21431854
54.52707238
42.79654257
56.34036209
56.30103743
53.43196164
54.26061862
52.86683543
39.41331192
42.46635077
52.45634036
44.06074981
40.06774306
41.73608632
45.25597835
53.15046271
40.07224633
43.40272151
58.28915117
39.47449502
39.70728767
39.94619308
39.51015984
52.25737377
54.64354249
39.43107285
52.92154193
47.86699063
51.83003522
46.24695739
42.31748759
39.70469416
39.37717267
41.99992709
39.61486056
40.09815963
48.15454069
55.85381345
57.67340051
59.0607734
50.87719495
56.57716203
41.61929828
40.27919333
50.80747944
46.9980655
51.39324842
48.83842335
55.44825054
55.57722666
53.86999012
40.72443967
49.77734094
45.38303266
54.51423374
55.2521462
41.93803222
43.76329289
46.29293975
57.36226224
48.05798918
41.05844192
42.03428471
52.05061994
42.28172289
43.89352373
40.18545432
41.10973337
52.6693969
44.98680418
42.17302353
41.4584443
39.75949343
39.30660129
38.19465965
50.7599416
55.86316931
55.41440234
51.23124158
46.4539957
46.33058904
45.23352354
42.43145205
42.25272548
41.7063041
39.95891748
39.8188275
39.48918746
38.32474895
38.23118511
56.11710653
55.92700349
56.2848099
50.80450172
46.3890939
46.47529174
45.23417973
42.51753783
42.46739636
41.80529963
40.06238103
39.99444521
39.58793435
38.40223579
38.34809868
51.89445831
52.43453527
53.79447276
51.36772595
52.26099165
49.93146314
46.07642777
46.33276713
45.02350059
42.46182805
42.51371418
41.77059376
40.06936397
40.07121262
39.60073925
38.41709885
38.41015507
50.29305716
51.52407396
51.92878742
50.12287347
51.05495459
48.898265
45.53366658
45.95411429
44.59366037
42.26536599
42.4302711
41.62346299
40.00612
40.06072104
39.55257188
38.38696155
38.41440565
48.66633991
49.87736517
50.23288673
48.94388984
49.81983336
47.8932879
44.93020793
45.3841505
44.08543251
41.96207381
42.19543849
41.36852645
39.85151188
39.97442979
39.41851002
38.29041597
38.3682859
47.122526
48.27439772
48.67977218
47.86207086
48.66384681
46.97059219
44.34816655
44.78068322
43.58299448
41.63014402
41.88009904
41.07661249
39.645298
39.80343952
39.23247127
38.14809124
38.25815082
45.58096717
46.73860653
47.21968804
46.87907848
47.60747391
46.13458178
43.8116092
44.2109425
43.10976362
41.29276362
41.54575905
40.77225468
39.41530738
39.5892676
39.02091891
37.97857909
38.10767936
44.09422697
45.20089955
45.84635004
45.96072088
46.64418814
45.3501028
43.30388866
43.68222965
42.66015721
40.96168099
41.20908682
40.46948103
39.17673718
39.35607032
38.79856264
37.79383149
37.93348286
42.69492159
43.73648133
44.5553506
45.09487561
45.73963235
44.60794452
42.81910221
43.18072766
42.23117065
40.6423628
40.88066946
40.17492514
38.93767133
39.11680442
38.57352837
37.60159691
37.74625438
41.3779868
42.35800344
43.34067424
44.27500628
44.88580355
43.90337775
42.35391564
42.70105392
41.818997
40.3352546
40.56450056
39.89059643
38.7023996
38.87839565
38.35039135
37.4069141
37.55302896
40.14222045
41.06150178
42.20126346
43.4964992
44.07665424
43.23214435
41.90651266
42.24046365
41.42158779
40.03867988
40.26019763
39.61580524
38.47275089
38.64443354
38.1314597
37.21282936
37.35826921
38.98029135
39.84500483
41.13053956
42.75468162
43.3079225
42.59075836
41.47538961
41.79726999
41.03767823
39.75116291
39.96600188
39.34932608
38.24909267
38.41628445
37.91759385
37.02109955
37.16464787
37.89140521
38.70124033
40.11762759
42.04677128
42.57454086
41.97606267
41.05901345
41.36997685
40.66607771
39.47169792
39.68057906
39.09017783
38.03114412
38.19409095
37.70885621
36.83258591
36.97366594
36.87170486
37.6301866
39.15904076
41.37129434
41.87491344
41.38587929
40.6559742
40.95706182
40.30567162
39.19955524
39.4030078
38.83765895
37.81850197
37.97750766
37.50503614
36.64765223
36.78602585
35.91614528
36.62695916
38.25415062
40.72871817
41.20769592
40.8176071
40.26497679
40.55714668
39.9553948
38.93407618
39.13258959
38.59116601
37.61074451
37.76612471
37.30581857
36.46636802
36.60200373
35.01970533
35.68668285
37.3990044
40.11418158
40.57263613
40.27049308
39.88490321
40.16896855
39.61430439
38.67466627
38.8686748
38.35016632
37.40748192
37.55952123
37.11087796
36.28866484
36.42161941
34.17759329
34.80429022
36.5897782
39.52335915
39.96447926
39.74399473
39.51486804
39.79149017
39.28163231
38.42082233
38.61070786
38.11421027
37.20837852
37.35733412
36.91992069
36.11442518
36.2447988
33.38594321
33.97518755
35.82348619
38.95362566
39.3789526
39.23743898
39.1541252
39.42384175
38.956728
38.17209131
38.35818194
37.88288771
37.01311505
37.15921949
36.73265777
35.94349029
36.07139971
32.64186575
33.19584589
35.09774063
38.40414891
38.81442861
38.74818386
38.80217594
39.06533608
38.63913054
37.92813302
38.11067252
37.65588565
36.82143528
36.96487432
36.54885166
35.77570616
35.90126653
31.94257934
32.46363853
34.41027257
37.87400134
38.26985341
38.27419389
38.45859328
38.71551778
38.32847409
37.68866128
37.86786005
37.43293478
36.63310017
36.77405185
36.36827139
35.61088058
35.73423939
31.28541417
31.77615058
33.7589621
37.3627655
37.74453189
37.81508625
38.12315526
38.37398624
38.02454009
37.45349885
37.62947909
37.21386338
36.4479445
36.58652451
36.19075493
35.44890503
35.57013104
30.66744608
31.13170378
33.14132958
36.8698403
37.23843597
37.37012002
37.79559539
38.04059941
37.72713127
37.22250055
37.39537418
36.99853151
36.26583177
36.40214194
36.01616924
35.28967868
35.40885326
30.08443723
30.52970496
32.55310613
36.39187298
36.75212511
36.93673088
37.47437854
37.71538769
37.43506769
36.99514448
37.16547268
36.78652339
36.08651084
36.22078962
35.8442918
35.13303266
35.2502958
29.50046014
29.9717522
31.9577699
35.89800596
36.28963118
36.48699398
37.1384519
37.40117288
37.12905464
36.75659393
36.94088937
36.56418905
35.89903116
36.04290523
35.6648192
34.97003365
35.09464892
43.44260302
41.09280421
41.49249897
51.35671024
50.67786312
46.43908216
52.55731153
55.40575245
55.45883247
52.75694504
43.57704767
39.40378863
39.83420536
44.78992639
56.64921086
56.54468609
54.7739138
52.666906
55.50399673
55.4869103
55.47292872
55.50574584
52.67594424
54.33555354
53.66366085
55.94033713
55.47268712
55.83501205
55.3276918
55.83543918
39.63188754
41.20232439
47.21264515
47.99760141
51.42086225
49.43780829
45.41082856
46.33169998
56.3497674
55.99351165
51.41495466
56.21637684
56.30599616
56.43409884
55.92637258
56.19061533
56.15992534
39.34260976
39.40956288
40.65266815
40.16207561
40.51530553
45.88362643
45.88276851
40.20291506
41.1111313
39.66621252
39.38222736
39.31887181
48.24331506
47.26170503
40.50899904
53.93335344
51.39779528
52.00299947
50.72548599
53.57475043
43.38647151
44.42192863
48.64965141
39.8641399
39.96336254
42.32428636
41.98627844
55.73926835
56.09328557
56.02544618
52.73057317
54.54198152
54.2492722
55.40255905
54.74276288
52.88626109
55.01022513
53.48601119
53.86637042
52.55131367
53.03863502
54.78219475
45.37955934
49.92366543
49.09677853
56.33551975
56.69098925
56.76012151
56.53176213
56.63202868
56.33406181
54.44575501
56.41295831
56.23913229
54.0648244
48.92590686
49.42750594
39.48434005
40.92438674
40.11361037
44.05789858
43.33182377
45.67831858
45.1045686
42.01650183
51.87545225
48.8207387
49.37386051
42.03721355
39.48036813
39.70471291
39.32823376
39.3816373
40.73473257
41.21950452
39.57028372
39.80783312
39.47924919
40.49642693
40.00305141
43.02823697
41.37721144
39.55323389
39.80747202
39.62305356
39.63869919
39.75739892
39.63201027
39.58564979
39.69880901
39.49452273
39.49060728
49.37820111
49.30497283
51.59986499
46.1574284
47.62023084
47.70476815
40.17426879
40.54388528
42.89654831
39.5011919
39.40623878
39.34831483
39.75696776
39.57213093
39.42590522
42.34939458
41.89923023
39.82859182
47.19091208
44.84705004
44.82658053
43.96747723
46.81830646
39.91395489
39.87579182
41.08813461
39.97519484
40.17522634
39.69045321
39.78228471
40.6686187
37.88957427
37.200749
36.76709874
36.40440413
36.09180578
35.80780986
49.25079424
52.52643198
51.97141265
51.23034588
49.46173216
49.41980387
45.13982592
44.07339145
43.99970174
41.60116273
40.95942028
40.89787589
39.40859678
38.98976514
38.94609715
38.00022584
37.27754664
37.24294001
36.81311722
36.42401936
36.41554428
36.08625751
35.77947068
35.79616084
56.13162507
56.72323714
56.71921063
51.05839258
49.38156906
49.44940548
45.27142403
44.23036644
44.21186251
41.77580957
41.12476474
41.09849749
39.54891209
39.11813605
39.09207099
38.06507651
37.32246579
37.30357719
36.83998534
36.42927071
36.4298458
36.06989498
35.74396409
35.76472013
54.78554359
54.89379991
55.33205024
50.41079144
48.92284285
49.07881256
45.15288992
44.16331355
44.19495694
41.79946423
41.16570786
41.16756503
39.60318721
39.17252491
39.16615098
38.08038396
37.33325323
37.33300125
36.84040797
36.41411844
36.42494839
36.03687173
35.69763847
35.723588
52.84035532
53.06822458
53.52170807
49.41791457
48.1332382
48.34495512
44.82663921
43.92980738
44.01033329
41.71726412
41.10956154
41.1327881
39.58728718
39.16256611
39.16910854
38.05393036
37.30959517
37.32646586
36.80589238
36.36939759
36.39347117
35.98407973
35.63764833
35.67054689
51.06052232
51.34088113
51.75802153
48.38728968
47.26931284
47.4844149
44.34261681
43.53272671
43.63922679
41.50367109
40.93746044
40.98955958
39.49436701
39.08338485
39.1112053
37.96511922
37.23511736
37.27772237
36.73101004
36.29415364
36.33455439
35.90668775
35.56065266
35.60257889
49.44129637
49.77383538
50.15068929
47.42047159
46.44300896
46.6430817
43.8302919
43.09379405
43.20359564
41.22534231
40.69669139
40.76060156
39.32997997
38.93578052
38.9770978
37.83234879
37.12412357
37.18342222
36.62732454
36.19475501
36.24670679
35.8097792
35.46673545
35.51645717
47.94117221
48.35462815
48.69711931
46.54424418
45.69486545
45.87411427
43.34350121
42.66613276
42.77179542
40.9248887
40.4269848
40.49581482
39.12876063
38.75127082
38.79969292
37.67231035
36.98789575
37.05856847
36.50227937
36.07612519
36.13719259
35.69658261
35.35868982
35.41524687
46.5216738
47.04932508
47.3667246
45.73675189
45.0035813
45.17288845
42.88208806
42.25389285
42.35520857
40.62012809
40.14862554
40.21832906
38.9104765
38.54819027
38.60003605
37.49662068
36.83507864
36.91312399
36.36167892
35.94304338
36.01085954
35.57038937
35.23864424
35.30095064
45.19181691
45.83610527
46.13027921
44.97402311
44.34781619
44.50865852
42.44336809
41.86052769
41.95716435
40.32095768
39.87216816
39.94076561
38.68602962
38.33704607
38.39020525
37.31284588
36.6718498
36.75446148
36.21013907
35.79965433
35.87222782
35.43430816
35.10912876
35.17587684
43.93828619
44.71705137
44.98911689
44.25124902
43.72392931
43.87709034
42.02314361
41.48398278
41.57673018
40.0314936
39.60264526
39.66924689
38.46153686
38.12402917
38.17723017
37.12576255
36.50256915
36.58774722
36.0515488
35.64926078
35.72502508
35.29110155
34.9723472
35.04248477
42.76191697
43.67273695
43.92761791
43.56383322
43.12870696
43.2749947
41.61853961
41.121233
41.21074074
39.7520945
39.34157079
39.4060536
38.24032494
37.91275246
37.96528323
36.9383645
36.33038336
36.41668222
35.88893068
35.49443653
35.57216888
35.14307757
34.83060108
34.90295469
41.65790998
42.69019863
42.930831
42.90795001
42.55913891
42.69927041
41.22802247
40.77050994
40.85712489
39.48159764
39.08852827
39.15108187
38.02388022
37.70510284
37.75661943
36.75250473
36.15750225
36.24392475
35.72450532
35.33716725
35.41593751
34.99207065
34.68527217
34.75925714
40.61720644
41.75893103
41.98707295
42.2802289
42.01257258
42.14719598
40.85041759
40.43072708
40.51470101
39.21888899
38.8426618
38.90350067
37.81259823
37.50184987
37.55223835
36.56920156
35.98537075
36.07127903
35.55980355
35.17889646
35.25803657
34.83948195
34.53812613
34.61279807
39.63165181
40.87625509
41.09259886
41.67804127
41.48661759
41.61628263
40.48454731
40.10091457
40.18247996
38.96313178
38.60320718
38.66250245
37.6063524
37.30312937
37.35238784
36.38897143
35.8148894
35.89988269
35.39584999
35.02066337
35.09968923
34.68633361
34.38957952
34.46488212
38.70008368
40.03765805
40.24358611
41.09904912
40.97935549
41.10452578
40.12933066
39.78019067
39.85956758
38.71369553
38.36957628
38.42746819
37.40487384
37.10883203
37.15700462
36.21200905
35.64658726
35.73044539
35.23330505
34.86317757
34.94176824
34.53339779
34.24123765
34.3162187
37.82061021
39.23798984
39.43433325
40.54146593
40.4890423
40.61009382
39.7837503
39.46770431
39.5450927
38.47000766
38.14124352
38.1978536
37.20783135
36.91872399
36.96587095
36.0383421
35.48074884
35.56335029
35.07258032
34.70693495
34.78486531
34.38117871
34.09249692
34.16772223
36.98884767
38.47594088
38.66294131
40.00451175
40.01453139
40.13175985
39.44696266
39.16273704
39.23831082
38.23158726
37.91777252
37.97320788
37.01492196
36.73256382
36.77874905
35.86792494
35.31751674
35.39880663
34.91392794
34.55225039
34.62937523
34.23010199
33.9454078
34.01952904
36.20140907
37.75023386
37.92843245
39.48842667
39.55445743
39.66814481
39.11823926
38.86465301
38.93856342
37.99798982
37.69875794
37.75311752
36.82584192
36.55009028
36.59538034
35.70065545
35.1569199
35.23690199
34.75748459
34.39935222
34.47558618
34.08036157
33.7979717
33.87248536
35.45568589
37.05844692
37.2283666
38.99076507
39.10853396
39.21871276
38.79704384
38.57297688
38.64531846
37.76886741
37.48387907
37.53722805
36.64033971
36.37108118
36.41552205
35.53642044
34.99894152
35.07764512
34.60332041
34.24834943
34.32366965
33.93223368
33.65364577
33.72619216
34.74936373
36.39880175
36.56092873
38.50932502
38.67656004
38.78318393
38.48295861
38.28732671
38.35819059
37.54392178
37.2728551
37.32526281
36.45817442
36.19531162
36.2389623
35.37504895
34.84355
34.92105787
34.45138741
34.09928817
34.17381099
33.78563529
33.50795287
33.58180015
34.08023413
35.76971984
35.92468809
38.04283953
38.25841039
38.36175891
38.1756806
38.00742972
38.07687333
37.32292622
37.06546716
37.11698076
36.27914104
36.02258272
36.06548698
35.21646117
34.69057269
34.76726339
34.30146491
33.95194143
34.0261334
33.64064798
33.36734541
33.43822452
33.44613713
35.16958069
35.31870955
37.59089667
37.8527015
37.95316674
37.87504555
37.73313
37.8012004
37.10574236
36.86157756
36.9122301
36.10310641
35.85277109
35.89495792
35.06054542
34.53925166
34.61647879
34.15286271
33.80572009
33.8811408
33.49639642
33.22212309
33.29773372
32.84397015
34.59575338
34.74317108
37.15239614
37.45777184
37.55690986
37.58067297
37.4641483
37.53115743
36.89220916
36.66103833
36.71091029
35.92993931
35.68575169
35.72726258
34.90708607
34.38707039
34.46984285
34.00331147
33.65837766
33.73996316
33.35107987
33.08320749
33.1589344
32.26722491
34.04121719
34.2018504
36.72065689
37.06725439
37.17637127
37.28789926
37.19659506
37.26856997
36.68006632
36.46192458
36.5137085
35.75835064
35.52036614
35.5626966
34.74756411
34.22353226
34.33231274
33.8424054
33.49962489
33.60648388
33.19377445
32.92095451
33.02936726
52.60620524
53.54865306
53.57842793
53.2414295
50.54360262
50.96846375
42.31922475
42.30591269
45.59688436
53.5842863
53.60199928
52.66906693
55.81909278
55.80020147
54.82327373
54.59640623
52.53872934
44.74156545
44.08465155
41.49519187
40.55719034
40.31709976
42.75728482
46.24945703
45.16733949
53.81839758
55.32242597
55.11851943
41.24310966
40.8451799
43.91343526
43.81258191
44.89029176
42.08017281
42.88654252
42.98581749
40.82640825
40.74702709
41.37239963
39.69366607
40.19102803
40.26356679
38.89805406
38.84505619
39.24729225
38.15264723
38.48164431
38.52877732
53.46095515
53.00942276
50.05189461
55.73134637
54.82483765
55.09827913
54.23133181
54.53695883
55.55677416
49.48857599
49.46773637
51.22248561
46.43573148
47.86871885
47.8823433
47.77853769
47.82687167
46.38369244
44.1791293
44.13178916
45.20028459
42.38093077
43.19853864
43.25213444
43.06808135
43.14352233
42.32392774
41.05856332
41.01455905
41.65874245
39.91858207
40.4370539
40.47913682
40.32885383
40.38590616
39.87155186
39.06302992
39.02835178
39.45140194
38.29615825
38.64492015
38.67644553
38.57129325
38.61038553
38.26623972
56.63187412
56.69638852
56.1512655
56.76127858
56.74239268
56.23654789
49.19267585
49.29611504
50.9353674
46.43281795
47.78190771
47.70873453
47.87791213
47.83848645
46.4625191
44.21648315
44.22721488
45.25976856
42.51719029
43.31984881
43.3165978
43.27929398
43.31614059
42.50294583
41.16374838
41.15248397
41.79663497
40.04873635
40.57292909
40.58505819
40.51688284
40.54467131
40.0219899
39.15640079
39.13721897
39.5708911
38.38595504
38.745181
38.76317469
38.70289161
38.72674436
38.36989246
52.2087346
52.37514488
53.98040157
54.43999963
54.28557861
51.67665323
53.1700374
52.78963674
53.91005034
53.54622635
51.97679502
48.55006097
48.74445002
50.17799578
46.18412521
47.40097702
47.25390913
47.63033152
47.53033549
46.2718385
44.07859883
44.12846779
45.10097619
42.48437032
43.25951635
43.22876677
43.30625656
43.28659832
42.50321417
41.14741811
41.15983781
41.78814599
40.07343588
40.59021093
40.5830213
40.59329326
40.59308541
40.07467896
39.17271166
39.17399051
39.60296148
38.41768891
38.78077473
38.77988135
38.77253042
38.77875656
38.41613291
50.71055166
51.1243185
52.1853016
52.62232374
52.37911389
50.43053757
51.66413383
51.29982452
52.41014419
52.03448561
50.74177014
47.70103786
47.91788453
49.15774707
45.6799088
46.74959715
46.57097315
47.09380582
46.92465514
45.82088702
43.74205611
43.83959451
44.71336918
42.32900099
43.04787866
42.96889572
43.18004605
43.11897375
42.38456627
41.03649739
41.07695038
41.67438093
40.03178094
40.5314167
40.49920706
40.57131818
40.55626352
40.05044886
39.13414132
39.15149211
39.57326539
38.40064881
38.76180382
38.74658044
38.77704941
38.77137473
38.40986537
49.06318194
49.46731184
50.53734791
50.93397602
50.64181022
49.23000591
50.24692499
49.91003077
50.94203242
50.59100927
49.52208784
46.84783842
47.05683018
48.13782547
45.08124217
46.03044155
45.85272874
46.39065492
46.21007714
45.23291278
43.3138733
43.42390227
44.21420957
42.04260812
42.70252008
42.60843045
42.88398134
42.79474496
42.12075413
40.82225799
40.88138325
41.43747127
39.89644228
40.36935925
40.31814482
40.46070656
40.41709923
39.93762393
39.01577458
39.05137519
39.45829747
38.31961481
38.67259538
38.64043328
38.72621587
38.70138108
38.34594374
47.50370153
47.88829616
49.04758376
49.4062122
49.05698731
48.12274563
48.9436663
48.63664125
49.58041857
49.25834644
48.39015803
46.05829455
46.24810724
47.19257408
44.48903136
45.3388949
45.17570743
45.6777973
45.50629241
44.63344894
42.87822986
42.98532722
43.7052587
41.71414549
42.32363118
42.22903146
42.51338628
42.41826721
41.79747231
40.56391931
40.63099227
41.1515144
39.6999029
40.14838684
40.08803312
40.26389126
40.20714264
39.75274763
38.84676165
38.89222729
39.28215605
38.1867493
38.52770985
38.48588359
38.60530268
38.56760904
38.22361648
45.96639424
46.35605239
47.68986114
48.01915747
47.57753878
47.11766503
47.75780724
47.47644278
48.3366181
48.04413863
47.36011864
45.344472
45.5184238
46.33788139
43.94280459
44.71079482
44.5607097
45.01769339
44.86305571
44.07589733
42.457728
42.56140035
43.22587801
41.37687309
41.94643036
41.85329521
42.13447426
42.04021004
41.46126377
40.28805635
40.35766533
40.84858541
39.47404545
39.9005608
39.83677307
40.02641651
39.96384446
39.53210132
38.65126053
38.70173588
39.07525156
38.02276289
38.3514846
38.30438011
38.44242802
38.39753952
38.06586309
44.45759946
44.82650355
46.43148769
46.73765291
46.18124322
46.18511809
46.66015486
46.39683476
47.19980508
46.92777695
46.41290585
44.67152302
44.83647988
45.54206665
43.42846984
44.12214888
43.97952738
44.4126519
44.26649719
43.55454994
42.05489893
42.15379581
42.7704391
41.04345934
41.57886224
41.48927032
41.76092829
41.6694271
41.1259512
40.00975187
40.07906698
40.54457194
39.23666132
39.64399782
39.57969957
39.77265337
39.70835147
39.29647586
38.44316895
38.49586943
38.8546454
37.84098836
38.15854454
38.10880742
38.25645397
38.20777836
37.88756214
43.03694501
43.38411633
45.26606413
45.54824448
44.87120736
45.30680667
45.62992635
45.38143587
46.13773445
45.88203197
45.52168418
44.03209154
44.18898401
44.78977415
42.93837284
43.56144355
43.42521791
43.83856884
43.6992091
43.05889459
41.67037167
41.76495389
42.33672645
40.72100204
41.22630909
41.14052139
41.40065807
41.31300514
40.80043151
39.73638009
39.80402999
40.24761907
38.9972002
39.38795729
39.32465211
39.51554426
39.45160258
39.05692829
38.230499
38.2837949
38.62974307
37.6500564
37.9577473
37.9070197
38.05872204
38.00832052
37.69827658
41.69957087
42.0262247
44.18651741
44.44959382
43.6370893
44.47593732
44.65763959
44.42342357
45.13658411
44.8953278
44.67951465
43.42292978
43.57255912
44.07624194
42.46848385
43.02542946
42.89502185
43.29049539
43.15724231
42.58418729
41.30101835
41.39209043
41.92059851
40.41097327
40.88817151
40.80559931
41.05559615
40.97149144
40.48737784
39.47105359
39.53658228
39.9607362
38.76072959
39.13711178
39.0754649
39.26172341
39.19920182
38.81940232
38.018022
38.07095107
38.40584223
37.45563785
37.75466101
37.70395561
37.85624058
37.80542426
37.50433623
40.44361652
40.75006882
43.17440971
43.42169807
42.47940257
43.68744535
43.74101794
43.52006326
44.19265414
43.96520791
43.88083215
42.84087868
42.98400554
43.39702134
42.01677655
42.51187247
42.38675068
42.76598384
42.63828191
42.12809337
40.94443798
41.03246538
41.51962736
40.11192597
40.56204406
40.48217842
40.72373892
40.64256334
40.18576309
39.21409621
39.2775857
39.68367844
38.52959883
38.89318812
38.83331638
39.01426256
38.95350585
38.58683117
37.80840385
37.86045292
38.18573321
37.26119411
37.55263651
37.50253713
37.65337452
37.60291704
37.30966636
39.2640056
39.55240129
42.21830252
42.45267676
41.39241196
42.9369621
42.87754638
42.67032726
43.30209322
43.08804215
43.1213872
42.28314051
42.42044247
42.74850179
41.5817293
42.01869104
41.89833912
42.26286691
42.14018963
41.68901402
40.59931318
40.68457842
41.13245634
39.82225486
40.24625364
40.16879188
40.40293427
40.32429622
39.89386266
38.96475058
39.02642298
39.4152271
38.3044571
38.65622841
38.59801555
38.77387085
38.71484344
38.36018564
37.60290961
37.65386736
37.97057585
37.06876647
37.35353833
37.30433154
37.45265302
37.40297415
37.11660217
38.15692396
38.4268506
41.311726
41.53386144
40.36571872
42.2206175
42.06637834
41.87042701
42.46617393
42.26490111
42.39653738
41.74713812
41.87923685
42.12737196
41.16181437
41.54385108
41.42777249
41.7791007
41.66094616
41.26545644
40.26462629
40.34737759
40.75789501
39.54085849
39.93973951
39.86445533
40.09189292
40.01554481
39.61047866
38.72216947
38.78222467
39.15432591
38.08512321
38.4256738
38.36896147
38.54019042
38.48274485
38.13943427
37.40192388
37.45174958
37.76057516
36.87940323
37.15820606
37.10999345
37.25537673
37.20665991
36.92641372
37.12043166
37.37325612
40.4519727
40.66284786
39.39359966
41.53711523
41.29746815
41.1109668
41.67705173
41.48602946
41.70513171
41.23077422
41.35812713
41.53128691
40.75555907
41.08548723
40.97328539
41.31270908
41.19862025
40.85591401
39.93947203
40.01991728
40.39478544
39.26694294
39.64166726
39.56838483
39.78969295
39.71543254
39.3347566
38.48569886
38.54427647
38.90020339
37.8711897
38.2009317
38.14559775
38.31260772
38.25659898
37.92418921
37.20544183
37.25415048
37.55554876
36.69355453
36.96690541
36.91971344
37.06204633
37.0143444
36.73966499
36.14928407
36.38618792
39.63307198
39.83415873
38.47553551
40.88652539
40.56333322
40.38475336
40.92643163
40.74388205
41.04614708
40.73216456
40.8552414
40.95765454
40.36166215
40.64202482
40.53332019
40.86198851
40.75157388
40.4590453
39.62297001
39.70132973
40.04206892
38.99985548
39.35130235
39.2798341
39.49556923
39.42321031
39.06602306
38.25478014
38.31201711
38.65225572
37.66224845
37.98150167
37.92742185
38.09058477
38.03588691
37.71403966
37.01327262
37.06092454
37.35521079
36.51135916
36.77963533
36.73343143
36.87277573
36.82607854
36.55655772
35.23857321
35.46084484
38.85225161
39.04394809
37.60836506
40.26543834
39.86068638
39.68973959
40.20813226
40.03343708
40.41822584
40.24988259
40.36897938
40.40532791
39.97894819
40.21206946
40.10656487
40.42542624
40.31835015
40.07363077
39.31432385
39.39078566
39.69875939
38.73897787
39.06793765
38.99812253
39.20878219
39.13815429
38.80364423
38.02892765
38.08493809
38.40992693
37.4578947
37.76692188
37.71399236
37.87362947
37.82013214
37.50857253
36.82516777
36.87182598
37.15922895
36.33276888
36.59624618
36.55098582
36.68746513
36.64173491
36.37707466
34.3833291
34.592123
38.10872462
38.29122927
36.78798114
39.66908976
39.18729306
39.02319414
39.52053943
39.35306251
39.81613603
39.78271351
39.89817742
39.87359937
39.60648074
39.794565
39.69201973
40.00182389
39.89782848
39.69868321
39.01287181
39.08759437
39.36405041
38.48378872
38.79097757
38.72267696
38.92869489
38.85964749
38.54708116
37.80773343
37.86261731
38.17275167
37.25778348
37.55680794
37.50493716
37.66133235
37.60893781
37.30743362
36.64088396
36.68661169
36.96730458
36.15767772
36.41655955
36.37219236
36.50595504
36.46114324
36.20112412
33.57946644
33.77564297
37.40022792
37.57421654
36.01123836
39.09407643
38.54084635
38.38330238
38.86077448
38.69996589
39.23585251
39.32975913
39.44166877
39.36237907
39.2434695
39.38857298
39.28880908
39.59017889
39.489023
39.33336763
38.7180414
38.79115165
39.03725283
38.23381422
38.51988975
38.45299053
38.65473305
38.58713238
38.29583965
37.59082155
37.6446641
37.94030247
37.06158522
37.3508003
37.29990929
37.45331486
37.40193187
37.11028326
36.46016805
36.50502395
36.77914107
35.98592766
36.24036396
36.19684112
36.32804133
36.28409252
36.02855276
32.824013
33.00812857
36.72470313
36.8906627
35.27569736
38.53969213
37.92067558
37.76966928
38.22745069
38.07322426
38.67643669
38.89070066
38.99917613
38.8689921
38.88936306
38.99355535
38.89645063
39.18972141
39.09130092
38.97707934
38.42941772