/*--------------------------------*- C++ -*----------------------------------*\
| =========                 |                                                 |
| \\      /  F ield         | OpenFOAM: The Open Source CFD Toolbox           |
|  \\    /   O peration     | Version:  v2012                                 |
|   \\  /    A nd           | Website:  www.openfoam.com                      |
|    \\/     M anipulation  |                                                 |
\*---------------------------------------------------------------------------*/
FoamFile
{
    version     2.0;
    format      ascii;
    class       volVectorField;
    location    "0.46";
    object      U;
}
// * * * * * * * * * * * * * * * * * * * * * * * * * * * * * * * * * * * * * //

dimensions      [0 1 -1 0 0 0 0];


internalField   nonuniform List<vector> 
3019
(
(104.1662656 -27.87723878 -5.421234316e-20)
(107.4544332 -17.58323085 0)
(107.126316 -12.1374803 -3.543692811e-19)
(105.7491614 -8.505134137 -7.801595019e-20)
(104.2091261 -6.079272341 -2.144136439e-19)
(102.8380133 -4.425928936 -2.39011455e-21)
(101.5251768 -3.186761322 -6.314405378e-20)
(100.8359453 -2.359784533 0)
(100.0210759 -1.628280715 0)
(99.66708967 -1.105139181 1.123069151e-20)
(99.44771807 -0.6449457703 2.070015324e-21)
(99.33497716 -0.212517902 -6.708155606e-21)
(97.16504686 -17.9875072 0)
(102.5364744 -14.49756109 -2.770456904e-20)
(103.5819728 -11.12716481 -2.020031299e-19)
(103.2425484 -8.371015413 -1.047426645e-19)
(102.433917 -6.285260322 -5.765303113e-20)
(101.5511711 -4.724513059 -5.453633597e-20)
(100.6150574 -3.452001338 -8.752245041e-20)
(100.1240411 -2.592644306 -3.292875081e-20)
(99.46841581 -1.778728279 -1.828165294e-20)
(99.18130234 -1.210738721 1.801003906e-20)
(99.0003456 -0.7084756624 0)
(98.90652582 -0.2334582754 1.79793563e-20)
(98.53166084 -11.46693932 1.077282646e-20)
(100.5096142 -11.09636516 2.559126579e-20)
(101.3255461 -9.460803476 0)
(101.323362 -7.650496525 0)
(100.9106601 -6.044859362 4.535893707e-20)
(100.3627459 -4.719148269 -2.320181434e-20)
(99.71925699 -3.523993042 0)
(99.40120792 -2.696836454 0)
(98.8898369 -1.847677285 -3.396418594e-20)
(98.66511619 -1.266967515 1.676059216e-20)
(98.52202694 -0.743651157 7.018987929e-22)
(98.44700912 -0.2451085053 -1.238089672e-20)
(99.30185376 -8.719993856 -1.415645414e-20)
(99.80042347 -8.681040071 -9.844470407e-21)
(100.0399674 -7.87908756 1.199670113e-20)
(99.97272299 -6.740288846 -2.839600095e-20)
(99.69755906 -5.565264177 1.687619512e-20)
(99.33651984 -4.500531593 0)
(98.90513933 -3.453073272 -2.847903063e-20)
(98.7054786 -2.688782174 4.343833042e-20)
(98.31303709 -1.848903851 1.055184562e-20)
(98.14213674 -1.279558884 1.800513926e-20)
(98.03223842 -0.7531276091 -2.045009123e-20)
(97.97380757 -0.2482829942 0)
(99.72783007 -7.01311926 6.042642728e-21)
(99.50561283 -7.020750761 1.183196887e-20)
(99.29510606 -6.577084617 -1.35599836e-20)
(99.0534868 -5.844947622 0)
(98.77275112 -5.00397395 4.240141742e-22)
(98.4951739 -4.173593141 0)
(98.18589156 -3.281061496 0)
(98.06100621 -2.597365129 0)
(97.75971704 -1.798031378 3.644409984e-20)
(97.63118325 -1.256494021 -3.409060237e-20)
(97.5473363 -0.7410256973 -2.305590442e-21)
(97.5020399 -0.2446640355 2.313144246e-21)
(99.95529977 -5.820117336 -1.490974711e-21)
(99.34395561 -5.82207067 8.847932382e-21)
(98.8287973 -5.545100157 -2.241760009e-20)
(98.41782882 -5.051944698 0)
(98.07918892 -4.441263919 0)
(97.81656872 -3.795922107 0)
(97.56454449 -3.047054362 0)
(97.47953736 -2.448534965 0)
(97.24199618 -1.708524048 0)
(97.14402073 -1.204791689 0)
(97.0795868 -0.7129684214 0)
(97.04394909 -0.2363740034 0)
(100.0778377 -4.922884422 -7.886533248e-21)
(99.23459334 -4.913678799 8.163234103e-22)
(98.51531431 -4.722273251 0)
(97.96472185 -4.372426141 0)
(97.55374929 -3.917386629 0)
(97.27063941 -3.409987217 0)
(97.03658713 -2.78538336 0)
(96.96570888 -2.268927145 0)
(96.766914 -1.596020036 0)
(96.6884148 -1.134602328 0)
(96.63644811 -0.6732531584 0)
(96.60811821 -0.2237733831 0)
(100.1474447 -4.216602404 0)
(99.15502183 -4.199631328 0)
(98.29132143 -4.056569638 0)
(97.6298515 -3.79612702 0)
(97.14815032 -3.44738133 0)
(96.82871449 -3.042300347 0)
(96.58982549 -2.519979237 0)
(96.51574222 -2.076819527 0)
(96.33689326 -1.472294005 0)
(96.26876982 -1.053961574 0)
(96.22348089 -0.6268661646 0)
(96.19952561 -0.2087965292 0)
(100.1847642 -3.64532276 -4.100740585e-35)
(99.08972846 -3.623484923 0)
(98.12153304 -3.510079675 0)
(97.37335563 -3.308061469 0)
(96.82844784 -3.033534703 0)
(96.4682093 -2.706008713 0)
(96.21051735 -2.265998084 0)
(96.12302297 -1.885013194 0)
(95.95097217 -1.34568754 0)
(95.88618568 -0.969067788 0)
(95.84306485 -0.5775313828 0)
(95.8212924 -0.1927768154 0)
(100.2010308 -3.174760217 0)
(99.03312407 -3.149704776 0)
(97.98691782 -3.055953986 0)
(97.17061692 -2.893849061 0)
(96.57123449 -2.672448127 0)
(96.17098139 -2.403379439 0)
(95.88692798 -2.030308325 0)
(95.78035946 -1.701370932 0)
(95.60624927 -1.222003643 0)
(95.53976744 -0.8844397943 0)
(95.49557287 -0.527985805 0)
(95.4743056 -0.1766229207 0)
(100.2035412 -2.781836246 -5.283747542e-35)
(98.98256385 -2.754861905 0)
(97.87646078 -2.675026351 0)
(97.00601719 -2.541331118 0)
(96.36028151 -2.358938009 0)
(95.92262302 -2.134489303 0)
(95.6095794 -1.815816873 0)
(95.48084103 -1.530442809 0)
(95.29897642 -1.105025577 0)
(95.22745062 -0.8031324543 0)
(95.18000797 -0.4801136037 0)
(95.15803167 -0.1609554344 0)
(100.1967562 -2.450766921 0)
(98.93661462 -2.422756412 0)
(97.78342447 -2.353303634 0)
(96.86932094 -2.240591362 0)
(96.18425409 -2.087555793 0)
(95.71247712 -1.897707816 0)
(95.37022777 -1.62344614 0)
(95.21822443 -1.374529525 0)
(95.02518961 -0.9969862392 0)
(94.9465423 -0.7270751645 0)
(94.89448388 -0.4351380749 0)
(94.870958 -0.1461817933 0)
(100.1835148 -2.170302233 1.761279741e-35)
(98.89440405 -2.141816874 0)
(97.70347642 -2.080424893 0)
(96.75364664 -1.983701124 0)
(96.03513374 -1.853258314 0)
(95.53264054 -1.690659236 0)
(95.16219486 -1.452854476 0)
(94.98704805 -1.234473319 0)
(94.78099064 -0.8990143308 0)
(94.69405971 -0.6573832185 0)
(94.63660879 -0.3937948089 0)
(94.61098203 -0.1325523829 0)
(100.1657024 -1.932061178 0)
(98.85532934 -1.903450618 0)
(97.6336704 -1.848500118 0)
(96.6541952 -1.764266038 0)
(95.90709074 -1.651542379 0)
(95.3771126 -1.510687988 0)
(94.98005707 -1.302992284 0)
(94.78258652 -1.110209019 0)
(94.56268723 -0.8114977752 0)
(94.46694615 -0.5945933591 0)
(94.40374786 -0.356463804 0)
(94.37568695 -0.1202022417 0)
(100.1446277 -1.729696727 0)
(98.81893447 -1.701163974 0)
(97.57191597 -1.651454697 0)
(96.56752113 -1.577154815 0)
(95.79580666 -1.478530539 0)
(95.24127843 -1.355202766 0)
(94.81942554 -1.172498684 0)
(94.60080761 -1.001171925 0)
(94.36685715 -0.7343576048 0)
(94.26219816 -0.5388476848 0)
(94.19318124 -0.323274892 0)
(94.16250917 -0.1091841885 0)
(100.121219 -1.55826814 0)
(98.7848278 -1.529903122 0)
(97.51664476 -1.484491952 0)
(96.49104323 -1.418184522 0)
(95.69797401 -1.330887971 0)
(95.12148693 -1.221778037 0)
(94.67665721 -1.059876995 0)
(94.4382085 -0.9065079775 0)
(94.19036038 -0.6672302319 0)
(94.07693412 -0.4900329741 0)
(94.00220264 -0.29419333 0)
(93.96884753 -0.09949616774 0)
(100.0961392 -1.41388452 0)
(98.75265268 -1.385700518 0)
(97.46663828 -1.343811484 0)
(96.42277502 -1.283965373 0)
(95.61100954 -1.205807039 0)
(95.01481107 -1.108249359 0)
(94.54872241 -0.9636635851 0)
(94.29176645 -0.8252623128 0)
(94.0303619 -0.6096176904 0)
(93.90846308 -0.4478927491 0)
(93.82821914 -0.2690895555 0)
(93.79217726 -0.09110402949 0)
(100.0698743 -1.293395411 0)
(98.72207403 -1.265370661 0)
(97.42090574 -1.226347865 0)
(96.36112563 -1.171717965 0)
(95.53282269 -1.100921403 0)
(94.91881529 -1.012702933 0)
(94.43306029 -0.8824989968 0)
(94.15883753 -0.756480219 0)
(93.88424126 -0.5609574728 0)
(93.75423501 -0.4120964791 0)
(93.66872178 -0.2477812339 0)
(93.63002464 -0.08395447008 0)
(100.0428004 -1.194262222 -2.720329082e-36)
(98.69278314 -1.166357902 0)
(97.37862024 -1.129631671 0)
(96.3047913 -1.079175848 0)
(95.46169786 -1.014275197 0)
(94.83142572 -0.9336604024 0)
(94.32744987 -0.8152580671 0)
(94.03707995 -0.6992501696 0)
(93.7497701 -0.5207385591 0)
(93.61203843 -0.3822902117 0)
(93.52151217 -0.2300759628 0)
(93.48022323 -0.07799187913 0)
(100.0152196 -1.114470547 0)
(98.66449176 -1.086629561 0)
(97.33907139 -1.051684659 0)
(96.25267659 -1.004497589 0)
(95.39622397 -0.9442377874 0)
(94.75113629 -0.8698635242 0)
(94.2297891 -0.7610191683 0)
(93.92439688 -0.652792003 0)
(93.62434326 -0.4883351427 0)
(93.47924544 -0.3581277073 0)
(93.38390988 -0.2157610678 0)
(93.34004821 -0.07314547874 0)
(99.98736344 -1.052429599 0)
(98.63691372 -1.024572356 0)
(97.30161645 -0.990924175 0)
(96.20380861 -0.9461856419 0)
(95.33513072 -0.8894162701 0)
(94.67646518 -0.8196202378 0)
(94.13838299 -0.7185777847 0)
(93.81879738 -0.6161559905 0)
(93.50773724 -0.4637580952 0)
(93.35566388 -0.3393152566 0)
(93.255772 -0.2047368378 0)
(93.20950241 -0.0694056328 0)
(99.9594106 -1.006921888 0)
(98.60976502 -0.9789499563 0)
(97.26566094 -0.9461277117 0)
(96.15730452 -0.903076331 0)
(95.2772298 -0.8487568966 0)
(94.60561898 -0.7820931937 0)
(94.0519407 -0.6870417322 0)
(93.71870903 -0.5895130459 0)
(93.39199014 -0.4446123362 0)
(93.23237034 -0.3254915276 0)
(93.12779958 -0.1966352075 0)
(93.07876031 -0.06658690208 0)
(99.93149378 -0.9770533382 0)
(98.58275033 -0.9488453137 0)
(97.23062934 -0.9163739233 0)
(96.112348 -0.8742849965 0)
(95.22149068 -0.8214737897 0)
(94.53756118 -0.7567978256 0)
(93.96907921 -0.6660113024 0)
(93.62294508 -0.5719286043 0)
(93.30001883 -0.4359249374 0)
(93.13575102 -0.3173754718 0)
(93.02763515 -0.1921499574 0)
(92.97692413 -0.0651423077 0)
(99.90374875 -0.9622466008 0)
(98.55559433 -0.9336452447 0)
(97.19598133 -0.9010104957 0)
(96.06820378 -0.859161597 0)
(95.1670034 -0.806965663 0)
(94.47119421 -0.743329723 0)
(93.89218543 -0.6552816114 0)
(93.53501597 -0.5632250424 0)
(93.13014718 -0.4247551084 0)
(92.95266344 -0.3113200657 0)
(92.83768756 -0.188497202 0)
(92.78330619 -0.06354615478 0)
(104.0433423 -28.63201829 -1.566205034e-19)
(104.8639526 -28.20724003 8.631395998e-20)
(108.5751008 -19.3713947 3.172661653e-19)
(95.89815675 -19.10398816 2.125558239e-20)
(103.6899809 -28.5182113 1.922132557e-20)
(97.34547003 -19.32860205 1.926995137e-20)
(102.826956 -16.52108331 2.637963902e-19)
(107.6462539 -19.17853787 3.164125212e-19)
(97.4916064 -11.84393946 2.628220825e-21)
(95.88447061 -18.35379036 -6.741311259e-20)
(107.8228447 -23.8813691 -7.141414602e-20)
(98.19668517 -24.39799783 -1.386885677e-20)
(98.73503909 -25.07074239 1.382000313e-20)
(99.69130253 -24.53195889 1.565151006e-20)
(103.450224 -21.46017545 -4.070794825e-20)
(106.6287442 -23.39425325 -2.609985273e-19)
(106.2941125 -29.52057292 6.239689742e-20)
(101.2253813 -27.3139052 -5.943729989e-20)
(106.5527002 -29.60722246 1.970507967e-19)
(107.2356074 -29.29774824 -3.277353537e-20)
(109.2797669 -27.00017537 -3.171538003e-19)
(100.5588109 -26.82793575 2.99895064e-20)
(98.26759505 -12.46672138 3.155830991e-21)
(100.3572661 -12.22271141 0)
(101.881219 -15.37817057 -1.346758258e-20)
(106.5568275 -26.12185063 1.429125643e-20)
(108.5866649 -26.82088763 -3.014720933e-19)
(106.922379 -29.20962369 0)
(100.5995322 -18.06450582 6.51203711e-20)
(102.5771628 -20.6592421 0)
(99.15677783 -23.91368312 0)
(96.37870865 -14.55956832 2.577901432e-20)
(97.60085723 -28.6245723 0)
(107.3597768 -29.74829358 -7.523240545e-20)
(92.4575122 -22.95606631 -1.182802662e-19)
(96.88473645 -22.20939253 -4.565495236e-20)
(99.69941391 -29.34080705 -1.392141637e-19)
(101.10782 -29.63962879 -2.998712741e-20)
(105.374828 -29.20656168 2.146546149e-19)
(97.27326056 -29.04775299 -2.558643038e-19)
(95.49195216 -28.66471187 0)
(98.92508717 -29.38433204 -9.128695539e-20)
(97.64205351 -29.1704164 0)
(87.32742562 -27.46408853 -1.978883207e-18)
(99.33479553 -29.08616127 -2.244705708e-19)
(99.19753075 -29.40975179 0)
(98.57012515 -28.28197486 0)
(99.21298671 -28.9241781 0)
(88.4322574 -27.54481178 1.668805163e-18)
(94.71405284 -28.47976447 -8.817734646e-18)
(107.2426809 -29.74226578 3.71482047e-19)
(98.11320754 -28.82327535 -5.69045515e-18)
(98.55286786 -29.07590178 4.105159853e-18)
(108.6682518 -18.45751073 -4.002941336e-19)
(108.5632375 -13.41310626 8.33420093e-20)
(105.0445461 -29.12557639 2.580432557e-20)
(101.2538427 -29.69001912 0)
(101.343351 -29.46727632 0)
(104.6589206 -29.44063131 -7.148446503e-19)
(107.486315 -29.7414353 1.01867517e-18)
(108.4534642 -29.53246856 1.134734171e-19)
(109.7686939 -28.50286343 -1.847557605e-20)
(90.20174966 -27.96785921 0)
(89.41517941 -27.82191072 0)
(86.90235635 -27.34171089 0)
(91.09768059 -28.07219092 -2.115923986e-18)
(89.92437673 -27.93876151 2.642605238e-18)
(97.50772766 -27.12426429 2.959829505e-20)
(98.29868423 -28.07005935 0)
(100.6252319 -28.76446264 -1.392928567e-18)
(101.2320603 -29.08253775 2.61798185e-19)
(100.2199473 -28.86546715 1.334863824e-18)
(96.25736262 -28.81714161 2.001348359e-19)
(92.40985323 -28.17351947 1.423559972e-17)
(92.94999162 -28.31665169 1.552721012e-18)
(95.21832131 -28.68994678 0)
(98.44557045 -29.319925 0)
(93.55718936 -28.49830341 -2.650262925e-18)
(94.83348927 -28.76440924 9.679913387e-20)
(92.84465212 -28.31105397 -1.363588397e-19)
(92.36772168 -28.318463 1.933222396e-18)
(97.95843746 -29.30396881 -2.046502062e-19)
(93.13159596 -28.53480344 -6.752631761e-20)
(92.38809315 -28.33118346 8.045695331e-20)
(87.64555138 -27.49508444 1.210699869e-18)
(89.5142938 -27.72004663 -8.507602041e-20)
(94.15558126 -28.53042694 -2.406711215e-19)
(93.70178258 -28.51838969 0)
(97.95635467 -28.86812196 -1.278470973e-18)
(102.347035 -29.54458639 0)
(102.1047857 -29.37631233 1.007697488e-18)
(102.9290054 -29.72272989 -5.228738824e-19)
(102.5579311 -29.6962815 2.801647888e-19)
(97.45557974 -28.90146548 8.343911033e-19)
(108.1939187 -12.17329342 4.133920686e-20)
(106.9024831 -9.190725256 3.633303256e-20)
(106.4441427 -8.394366023 -8.525621694e-20)
(105.0959801 -6.45662557 -3.763634644e-19)
(104.6715209 -5.933920119 1.455970977e-19)
(103.5070433 -4.6431484 -6.799312723e-20)
(102.1162512 -26.7010487 -3.552463194e-19)
(104.001555 -24.734665 1.057557541e-20)
(105.895274 -25.81995185 -2.30343218e-19)
(103.4622992 -15.40066488 -5.093883892e-19)
(104.3194109 -12.37081882 -5.664714671e-20)
(107.370762 -13.30949639 3.035315723e-19)
(104.343796 -11.47458894 2.260310594e-19)
(104.0137593 -9.141884758 0)
(106.1299402 -9.278675935 -1.928896949e-19)
(103.8184762 -8.476623731 6.222099042e-20)
(103.1119893 -6.767538251 4.780529757e-19)
(104.5852963 -6.599140028 2.175169798e-19)
(102.8591488 -6.283509807 -2.11931719e-21)
(102.1095936 -5.03849148 -2.986465534e-20)
(103.158262 -4.782756691 1.32001701e-19)
(97.38942747 -14.7813327 -1.920396186e-20)
(99.39734193 -14.8030219 2.949261303e-21)
(100.1800086 -17.17837005 -3.095403694e-21)
(100.8286262 -11.85711727 -1.505815147e-20)
(101.6649245 -10.41194998 0)
(103.5083453 -11.92417497 -2.178764776e-20)
(101.7800746 -9.885453895 9.11677352e-21)
(101.8134781 -8.346600046 -4.447355317e-22)
(103.3939869 -8.992867055 1.095823592e-19)
(101.7460115 -7.862107199 1.058276917e-20)
(101.4054874 -6.535751733 -1.14544688e-20)
(102.6531202 -6.750834971 -2.249236045e-19)
(101.2635432 -6.135769504 -6.94079527e-20)
(100.8020204 -5.064642004 0)
(101.7685854 -5.074885306 -5.526860302e-20)
(98.68262896 -8.869849641 1.649994515e-21)
(97.59758634 -10.88988664 3.260311249e-20)
(99.14335865 -9.27729535 0)
(99.74849976 -9.31690235 3.010312211e-22)
(100.1225433 -11.36749925 -1.471424323e-20)
(99.91909214 -9.19968504 8.241343734e-21)
(100.2469855 -8.53849941 0)
(101.2185445 -9.914316793 -1.270281886e-20)
(100.2958496 -8.251960554 5.993005848e-21)
(100.3021021 -7.299985318 -1.535506312e-20)
(101.3765345 -8.091515584 0)
(100.2641589 -6.970527702 -8.574919567e-22)
(100.0606783 -6.004741575 8.802772589e-21)
(101.0345201 -6.420761323 5.35129841e-21)
(99.97213677 -5.697245703 -3.324396612e-20)
(99.67519277 -4.833727679 0)
(100.5014287 -5.024854547 0)
(99.44932006 -7.147988472 1.176141261e-20)
(98.92772391 -8.368626948 4.215512161e-20)
(99.644815 -7.378814769 -1.405141902e-20)
(99.57806405 -7.429093158 -1.104057332e-21)
(99.68693851 -8.771462767 -4.920416906e-23)
(99.56104348 -7.383483912 2.620906235e-21)
(99.48410078 -7.040416433 -1.388390878e-20)
(100.0126266 -8.126959914 -9.560941507e-21)
(99.44792354 -6.874991045 1.466085443e-20)
(99.30908396 -6.280235138 0)
(100.0135513 -7.03697129 2.657012914e-20)
(99.25182089 -6.060603509 0)
(99.0528494 -5.376520206 0)
(99.779163 -5.851946013 -1.633805514e-20)
(98.97993399 -5.146858345 0)
(98.75824483 -4.474930512 0)
(99.42590278 -4.751275277 0)
(99.85371553 -5.946350377 4.135890175e-21)
(99.57436458 -6.811308408 9.854257043e-21)
(99.91103719 -6.084855632 -3.233650199e-21)
(99.50412896 -6.113774893 3.391613953e-22)
(99.55554707 -7.05850187 -1.338210123e-21)
(99.37794023 -6.089494439 0)
(99.0320088 -5.884715594 -2.895257239e-20)
(99.35023334 -6.723054899 1.128465358e-20)
(98.92770634 -5.781142657 1.09773385e-20)
(98.64381339 -5.390170783 -7.901089685e-22)
(99.11802382 -6.044268809 1.003544388e-20)
(98.55644194 -5.239404466 8.9544559e-21)
(98.31083104 -4.749957343 0)
(98.84532356 -5.21694015 6.065240383e-21)
(98.23458058 -4.579316842 0)
(98.02983154 -4.061778793 0)
(98.55965585 -4.374504569 0)
(100.0779006 -5.038966101 4.091904842e-22)
(99.92256027 -5.697040911 -1.773161658e-21)
(100.0536416 -5.126305722 0)
(99.45143377 -5.136771397 0)
(99.48983569 -5.843828113 -3.31438996e-22)
(99.25851071 -5.119699235 0)
(98.73676812 -4.98181087 -5.981760764e-23)
(98.94699008 -5.638441416 1.873965347e-20)
(98.58333921 -4.911501164 6.062187641e-22)
(98.1815178 -4.639677858 0)
(98.51276524 -5.189973846 0)
(98.06490732 -4.532098238 0)
(97.75982493 -4.172545874 0)
(98.15778773 -4.600066363 0)
(97.67226998 -4.043612796 0)
(97.45361061 -3.641421463 0)
(97.87303004 -3.955695804 0)
(100.2027706 -4.324549148 0)
(100.1162889 -4.844958744 -1.304720604e-21)
(100.1336325 -4.37895006 0)
(99.41007299 -4.377500887 0)
(99.44003579 -4.929767271 6.979708332e-22)
(99.17324253 -4.363456722 0)
(98.53068845 -4.261711455 0)
(98.67882955 -4.78682272 5.984982165e-23)
(98.34123428 -4.210557869 0)
(97.84678953 -4.011274223 0)
(98.08805784 -4.471940523 0)
(97.70498785 -3.931332831 0)
(97.34175868 -3.659118026 0)
(97.6446643 -4.03798919 0)
(97.24038467 -3.559571959 0)
(96.99401382 -3.242326411 0)
(97.32899635 -3.538594607 0)
(100.2767815 -3.744652004 0)
(100.2248169 -4.168538003 0)
(100.1777876 -3.77757274 0)
(99.37270753 -3.769266738 0)
(99.40056497 -4.213190612 0)
(99.10509022 -3.75679074 0)
(98.37607628 -3.676517115 0)
(98.48816317 -4.104255331 0)
(98.16011544 -3.637146797 0)
(97.59417644 -3.484249563 0)
(97.77723536 -3.870790713 0)
(97.43166782 -3.422624494 0)
(97.01681609 -3.210460438 0)
(97.25302158 -3.541024103 0)
(96.90174152 -3.13186628 0)
(96.62324495 -2.877558632 0)
(96.89390233 -3.147218728 0)
(100.3193066 -3.265147882 3.467167203e-35)
(100.2898951 -3.616404255 4.110565946e-35)
(100.1984775 -3.284372001 -3.459109449e-35)
(99.33653945 -3.271511354 0)
(99.36357691 -3.635687556 0)
(99.04663319 -3.259982652 0)
(98.25385849 -3.193617928 0)
(98.34299953 -3.547223482 0)
(98.01796904 -3.161975878 0)
(97.3965255 -3.040209941 0)
(97.54039997 -3.366102167 0)
(97.21722761 -2.991181432 0)
(96.75826673 -2.82143934 0)
(96.94678213 -3.107872366 0)
(96.63066455 -2.7580437 0)
(96.32049266 -2.550648462 0)
(96.5419083 -2.791894243 0)
(100.3403472 -2.863532389 0)
(100.3262779 -3.158142636 0)
(100.2039247 -2.873745172 0)
(99.30128583 -2.857970211 0)
(99.32763958 -3.161041504 0)
(98.99472838 -2.847152519 0)
(98.15347978 -2.790500206 0)
(98.22701429 -3.086076614 0)
(97.90223005 -2.764233049 0)
(97.23712757 -2.664314508 0)
(97.35358689 -2.940354968 0)
(97.04422067 -2.624255564 0)
(96.54806254 -2.485305177 0)
(96.70174594 -2.732717411 0)
(96.4093694 -2.433157269 0)
(96.0696892 -2.261224341 0)
(96.25345315 -2.474524088 0)
(100.3464525 -2.524263746 -4.534344169e-35)
(100.3430733 -2.773367925 5.295576192e-35)
(100.1991485 -2.528406792 4.524417764e-35)
(99.26702591 -2.510799303 0)
(99.29262273 -2.765520049 0)
(98.94772309 -2.500592314 0)
(98.06867956 -2.451138086 0)
(98.13100294 -2.700200601 0)
(97.80531604 -2.428797729 0)
(97.10531034 -2.344844515 0)
(97.20191125 -2.579554817 0)
(96.90129762 -2.311383106 0)
(96.37384339 -2.195377838 0)
(96.5015229 -2.408739581 0)
(96.22546838 -2.151734946 0)
(95.85902381 -2.007065692 0)
(96.01365126 -2.194205569 0)
(100.3420025 -2.236174387 0)
(100.3461927 -2.447811174 0)
(100.1873153 -2.236172089 0)
(99.23387733 -2.21741878 0)
(99.25863095 -2.432820426 0)
(98.90464235 -2.207765907 0)
(97.99552249 -2.163889231 0)
(98.04941884 -2.374823956 0)
(97.72241517 -2.14453197 0)
(96.99405282 -2.072651224 0)
(97.07578658 -2.272676317 0)
(96.78088432 -2.044185894 0)
(96.22702186 -1.945694533 0)
(96.33484396 -2.129400792 0)
(96.07024008 -1.90861281 0)
(95.67983013 -1.785251446 0)
(95.81156449 -1.948454415 0)
(100.3300336 -1.990888601 -1.524875162e-35)
(100.339618 -2.171119577 -1.765034784e-35)
(100.1705049 -1.988036605 1.521679199e-35)
(99.2019047 -1.968576925 0)
(99.22577279 -2.151338339 0)
(98.86483031 -1.95943326 0)
(97.93137602 -1.920019481 0)
(97.97872402 -2.0991461 0)
(97.65029585 -1.902997833 0)
(96.89854631 -1.840499201 0)
(96.96885213 -2.01110665 0)
(96.67774267 -1.815910894 0)
(96.10146171 -1.731068857 0)
(96.19383737 -1.888936717 0)
(95.93738121 -1.699137702 0)
(95.5256356 -1.592672767 0)
(95.63915645 -1.734270017 0)
(100.3127415 -1.782023783 0)
(100.3261378 -1.935473872 0)
(100.1501461 -1.777214983 0)
(99.17111366 -1.757330439 0)
(99.19409743 -1.912473926 0)
(98.82780409 -1.748650457 0)
(97.87439402 -1.712880943 0)
(97.91651908 -1.865016215 0)
(97.5866925 -1.697727294 0)
(96.81538832 -1.642668672 0)
(96.87670997 -1.788021216 0)
(96.58814473 -1.621145634 0)
(95.99268781 -1.547116021 0)
(96.07284233 -1.682361429 0)
(95.82225158 -1.519284199 0)
(95.39154031 -1.426370954 0)
(95.49039588 -1.548556726 0)
(100.2917471 -1.604598184 0)
(100.307787 -1.734888829 0)
(100.1272507 -1.598455799 0)
(99.14144445 -1.578313142 0)
(99.16359476 -1.70973591 0)
(98.79316059 -1.570045392 0)
(97.82320096 -1.537278369 0)
(97.86109904 -1.666200163 0)
(97.52992721 -1.523637904 0)
(96.74206218 -1.474557738 0)
(96.79621846 -1.598013126 0)
(96.50932506 -1.455489197 0)
(95.89732408 -1.390122588 0)
(95.96770253 -1.505471092 0)
(95.72132433 -1.365585086 0)
(95.27372731 -1.283626349 0)
(95.36069282 -1.388411706 0)
(100.2682446 -1.454666978 0)
(100.286067 -1.564669784 0)
(100.102537 -1.447628611 0)
(99.11278173 -1.427312423 0)
(99.13418912 -1.538076409 0)
(98.76053421 -1.419400605 0)
(97.77672334 -1.389105211 0)
(97.81117517 -1.497800335 0)
(97.47870381 -1.376696587 0)
(96.67664161 -1.332451475 0)
(96.72502947 -1.436717977 0)
(96.43916511 -1.315361409 0)
(95.81275639 -1.256976593 0)
(95.87525684 -1.354706385 0)
(95.63185327 -1.235099078 0)
(95.1691648 -1.162024685 0)
(95.2464485 -1.251185589 0)
(100.2431207 -1.329048333 0)
(100.2620866 -1.421094315 0)
(100.0765295 -1.321425683 0)
(99.08497719 -1.300978979 0)
(99.10575645 -1.393532627 0)
(98.72958628 -1.293364192 0)
(97.73409297 -1.265088683 0)
(97.76573571 -1.355949842 0)
(97.43198563 -1.253681049 0)
(96.61760569 -1.21334607 0)
(96.66133691 -1.300623641 0)
(96.37599274 -1.197851551 0)
(95.73690716 -1.14509426 0)
(95.79304908 -1.227103796 0)
(95.55164592 -1.125362868 0)
(95.07538737 -1.059475062 0)
(95.14479846 -1.1345538 0)
(100.2170395 -1.22513822 0)
(100.2366681 -1.301125781 0)
(100.0496268 -1.217160931 0)
(99.05786741 -1.196607585 0)
(99.07814103 -1.27292039 0)
(98.70000088 -1.189230994 0)
(97.69457814 -1.162582313 0)
(97.72394834 -1.237536864 0)
(97.38890854 -1.151980581 0)
(96.56370686 -1.114785629 0)
(96.60369326 -1.186865164 0)
(96.31843886 -1.100570422 0)
(95.66807209 -1.052326652 0)
(95.71910043 -1.120185464 0)
(95.47889764 -1.034319337 0)
(94.99031198 -0.9742192033 0)
(95.05337804 -1.036493937 0)
(100.1905162 -1.140857071 0)
(100.2104329 -1.202299121 2.72563917e-36)
(100.0221485 -1.132698934 0)
(99.03129038 -1.112045862 0)
(99.05117972 -1.173684083 0)
(98.67148657 -1.104848751 0)
(97.65755085 -1.079471583 0)
(97.68511116 -1.140059364 0)
(97.34873811 -1.069504793 0)
(96.51390332 -1.034785942 0)
(96.5509096 -1.093114792 0)
(96.26536449 -1.021580096 0)
(95.60484951 -0.9769069302 0)
(95.65179024 -1.031908288 0)
(95.41213324 -0.9602707069 0)
(94.91231638 -0.9048184057 0)
(94.9702076 -0.95536435 0)
(100.1639501 -1.074557246 0)
(100.1838657 -1.122652176 0)
(99.99434251 -1.06634753 0)
(99.00507307 -1.045581457 0)
(99.02470937 -1.093791242 0)
(98.64375667 -1.038502916 0)
(97.62244231 -1.014062876 0)
(97.64861511 -1.061517519 0)
(97.31081669 -1.004575032 0)
(96.46727882 -0.9717355787 0)
(96.50198296 -1.017489636 0)
(96.21577049 -0.9592978239 0)
(95.54601185 -0.9173474507 0)
(95.5897749 -0.9605821039 0)
(95.35006037 -0.9017593091 0)
(94.83999019 -0.8498620803 0)
(94.89376045 -0.8897405621 0)
(100.1376525 -1.024968697 1.065154181e-35)
(100.1573407 -1.060636152 0)
(99.96639979 -1.016803101 -1.063130674e-35)
(98.97903154 -0.9958933848 0)
(98.99855372 -1.031631027 0)
(98.61652793 -0.988870149 0)
(97.58872529 -0.9650415238 0)
(97.6139028 -1.000315525 0)
(97.27454091 -0.9558854462 0)
(96.42300565 -0.9243720932 0)
(96.45602116 -0.9584667076 0)
(96.16875458 -0.9124811085 0)
(95.4904274 -0.8724776318 0)
(95.53185298 -0.9047911022 0)
(95.29146389 -0.8576397984 0)
(94.77175145 -0.8082776373 0)
(94.8226042 -0.8381940499 0)
(100.1118653 -0.9911413137 -3.56835373e-36)
(100.1311506 -1.015064424 0)
(99.93846311 -0.9830904584 3.561629826e-36)
(98.95296415 -0.9619899149 0)
(98.97252524 -0.9859696854 0)
(98.58950809 -0.9549547912 0)
(97.55588658 -0.9314095737 0)
(97.58045321 -0.9552233038 0)
(97.23933144 -0.922441648 0)
(96.3803133 -0.8917288158 0)
(96.41221342 -0.9148631428 0)
(96.12348412 -0.8801793499 0)
(95.43708355 -0.8414227137 0)
(95.47691844 -0.8634482435 0)
(95.23527511 -0.8270762444 0)
(94.70641055 -0.7794191707 0)
(94.75518839 -0.7998708067 0)
(100.0867568 -0.9724515569 0)
(100.1055238 -0.9850674678 0)
(99.91061616 -0.9645569877 0)
(98.92663993 -0.9431931741 0)
(98.94641801 -0.9558947672 0)
(98.56237915 -0.9360712073 0)
(97.52340415 -0.9124586021 0)
(97.54775463 -0.9253175637 0)
(97.20460963 -0.903530249 0)
(96.33846862 -0.8730955882 0)
(96.36980194 -0.8857800914 0)
(96.07917738 -0.8616900035 0)
(95.3850605 -0.8235195408 0)
(95.42398962 -0.835735804 0)
(95.18053072 -0.8094222231 0)
(94.64287695 -0.7626781976 0)
(94.69039556 -0.7740875404 0)
(100.0597143 -0.9684735433 -6.522030025e-38)
(100.0806606 -0.9701137675 0)
(99.87967016 -0.9610228859 6.51324444e-38)
(98.89649995 -0.9393880217 0)
(98.92004875 -0.9408015711 0)
(98.53137263 -0.9320288928 0)
(97.48671677 -0.9077586184 0)
(97.51532224 -0.9099541927 0)
(97.16552865 -0.8986603415 0)
(96.29173752 -0.8678714527 0)
(96.32809782 -0.8705616714 0)
(96.02979228 -0.8563937336 0)
(95.32733386 -0.8181122453 0)
(95.37219861 -0.8210372621 0)
(95.11985708 -0.8040018701 0)
(94.57265618 -0.757165565 0)
(94.62718022 -0.7603156359 0)
(104.374577 -28.83770739 0)
(103.7861522 -29.15496534 -1.882156632e-19)
(103.4741342 -28.99517799 3.566230249e-19)
(105.5456608 -27.51063138 2.370684785e-19)
(106.2463078 -27.79417812 0)
(105.5658889 -28.50042466 -3.085457826e-20)
(111.5569608 -19.90570293 4.171903276e-19)
(111.7192979 -23.52020065 -1.051596793e-19)
(108.1296118 -22.68589739 -3.000069441e-19)
(96.57069485 -21.41429683 1.74834772e-19)
(92.34868493 -21.8950341 3.586638613e-19)
(101.2644696 -29.36801991 -2.044246356e-20)
(100.6718029 -28.89882322 2.913957358e-19)
(102.5997433 -28.19524227 -1.217957432e-20)
(98.6933779 -18.99985005 -8.936785471e-21)
(99.1973894 -20.1883496 4.692363112e-21)
(97.5236256 -21.19462759 0)
(104.5166012 -17.53350303 2.416608547e-20)
(103.2236458 -19.8052268 3.263637237e-19)
(101.27633 -17.55756564 1.909535886e-20)
(107.0127534 -22.2538339 2.953625146e-19)
(104.053872 -20.50727604 -3.736207581e-20)
(105.233472 -17.90862789 -2.415271563e-20)
(96.68859996 -13.73654172 2.33455273e-20)
(95.72698583 -16.64101806 -4.858751783e-20)
(109.0607238 -24.28573289 -8.315104304e-20)
(108.9090815 -26.12526794 6.010813701e-19)
(106.9138452 -25.44120643 3.024108752e-21)
(109.5863213 -26.28740582 3.182341176e-19)
(110.0652705 -24.16095907 0)
(108.9519229 -29.60196563 -8.239526214e-20)
(109.6903897 -29.31443896 -6.376337591e-19)
(97.05135043 -24.86943412 0)
(96.55690496 -24.11417491 0)
(97.70373644 -23.70336887 0)
(99.31232643 -25.70439323 3.599771036e-20)
(98.16775275 -26.24329396 -1.27254873e-20)
(97.59137069 -25.57851879 3.031280043e-20)
(101.7113559 -22.94688058 0)
(103.3975789 -24.38699539 2.851954187e-19)
(101.4713964 -26.22064432 3.186791934e-20)
(104.4227017 -22.19448296 4.081582372e-20)
(103.7525866 -23.24957624 -1.397822847e-19)
(102.6986007 -22.42517627 -2.282254979e-20)
(106.2858487 -25.16767097 9.055141771e-22)
(104.9096966 -23.99568217 4.521261882e-20)
(105.487514 -22.84039574 2.23780103e-19)
(105.2587526 -29.76615165 -6.165435342e-20)
(105.1106458 -29.70788725 6.220605783e-20)
(106.0117293 -29.43371626 -7.353129362e-21)
(94.53535158 -28.39722044 0)
(94.38883693 -28.51461492 4.0988927e-19)
(89.88455417 -27.76135313 -4.427652997e-19)
(101.9105282 -27.77614432 3.287481222e-21)
(100.4190542 -28.72048955 -3.008032232e-20)
(99.53224688 -28.05409338 0)
(106.810151 -29.68541367 -1.328914448e-19)
(105.3865304 -29.88508379 0)
(105.3327735 -29.82029064 -6.511084315e-20)
(108.3681086 -28.45537172 -2.048915845e-19)
(109.073239 -28.60913745 -4.252441715e-20)
(108.1805984 -29.49867042 -3.280958438e-19)
(109.980667 -27.14956743 -5.206307756e-21)
(109.5976078 -27.88542083 0)
(108.8872065 -27.72419764 3.063815675e-19)
(110.3026485 -28.02403612 9.422897075e-20)
(110.6819592 -27.27665018 5.894254848e-21)
(99.41733469 -27.44932374 0)
(98.77882316 -26.87199427 -1.420516932e-19)
(99.92017381 -26.29423494 1.19209518e-19)
(94.85715975 -28.01323857 -6.546108424e-21)
(94.70900711 -28.2014497 7.105598131e-20)
(96.08475902 -26.09049504 -2.882031981e-20)