/*--------------------------------*- C++ -*----------------------------------*\
| =========                 |                                                 |
| \\      /  F ield         | OpenFOAM: The Open Source CFD Toolbox           |
|  \\    /   O peration     | Version:  v2012                                 |
|   \\  /    A nd           | Website:  www.openfoam.com                      |
|    \\/     M anipulation  |                                                 |
\*---------------------------------------------------------------------------*/
FoamFile
{
    version     2.0;
    format      ascii;
    class       volScalarField;
    location    "0.91";
    object      p;
}
// * * * * * * * * * * * * * * * * * * * * * * * * * * * * * * * * * * * * * //

dimensions      [0 2 -2 0 0 0 0];


internalField   nonuniform List<scalar> 
3259
(
114.4574982
-54.1730197
-215.5120676
-356.9143123
-472.0886957
-560.6476232
-625.5918518
-670.8974542
-708.5979877
-725.6212892
-735.4173923
-739.9136283
141.6539235
-35.13609478
-205.9871135
-354.5193722
-473.7900174
-564.1572
-636.1452105
-678.5155021
-715.4392277
-730.273193
-738.8616919
-742.7991707
153.0342817
-47.08082382
-235.0692073
-392.3394341
-511.5511328
-596.3051853
-665.1450918
-700.0553684
-731.1660619
-741.3649829
-747.2681828
-749.8764322
173.3438216
-79.21703116
-301.6904689
-467.5125343
-581.6369298
-655.2665977
-710.1736815
-732.6371826
-753.6657891
-757.6451913
-759.4886327
-760.136955
212.712035
-151.2408746
-431.7655264
-602.186382
-692.8550354
-738.2853566
-769.2411116
-774.1773951
-779.8205641
-776.1153488
-773.0330061
-771.3457709
300.8272132
-332.2717069
-685.7640378
-814.0962019
-845.9805975
-844.6255318
-838.0162655
-819.7840171
-806.3274907
-793.9411019
-785.370185
-781.1876102
606.741983
-898.4569512
-1144.998723
-1110.05425
-1033.646604
-962.1939554
-907.9809619
-863.3636049
-829.5407132
-807.8136433
-793.9523951
-787.4149939
-2484.703816
-1817.620068
-1445.2968
-1219.067483
-1070.740164
-965.7050334
-897.1745884
-843.3004162
-814.2091698
-796.2444492
-787.7538317
-3909.246553
-2327.217881
-1687.454066
-1346.802159
-1141.570223
-997.6432798
-912.7733278
-843.8636228
-810.3187064
-789.9689689
-780.2944718
-3696.877847
-2350.094182
-1722.775759
-1369.38939
-1152.567646
-994.0838488
-904.9303085
-828.8421402
-794.5401674
-773.8097616
-763.9119565
-2811.355489
-2003.561681
-1562.846135
-1284.241533
-1100.216037
-953.7819879
-872.8403777
-797.9679305
-766.665407
-747.5825892
-738.4043557
-1860.067331
-1509.902421
-1290.846171
-1124.115749
-998.5710765
-883.3231228
-819.9530424
-753.1720707
-728.0402501
-712.1941026
-704.4965336
-4169.296423
-2619.095094
-4022.43536
-4239.229439
-3056.091363
-3926.906841
-2024.255548
-2923.782471
-1900.297979
804.4144362
-2280.610406
-715.0067708
-5390.499505
-3234.608879
-3837.305839
-2476.798242
-1951.42083
-5690.153006
-5920.976962
-3776.80456
-2631.442206
-2577.40932
-4241.119486
-5012.436308
-2931.361794
-2280.048959
-2578.898656
-2828.064738
-3428.83388
-1623.628158
-1565.729174
-2104.949767
-5923.777055
-5456.331585
-3738.028401
-5224.454123
-5768.160164
-5057.970223
-5661.319756
-4172.351008
-5534.253518
-4969.547324
-5768.014963
-5560.824895
-4197.514024
-3517.531832
-4185.266813
-3447.869066
-4083.989522
-3446.984764
-4924.809989
-4183.936625
-3574.977027
-2183.603841
-2745.135806
-1582.418004
-1622.752155
-1489.76702
-1575.387682
-6506.777281
-3864.067865
-3376.889441
-1975.94081
-1720.891803
-2149.966754
-2013.8413
-1950.187084
-2232.856635
-3099.509024
-5071.630532
-3512.277639
-2279.00609
-2583.871674
-2404.247527
-2702.050122
-2156.99864
-3361.778016
-2782.332213
-2533.107011
1301.491769
-2794.100409
-703.9524519
1050.894591
-6632.02324
-4756.297851
-6451.994529
-3714.724092
-6286.898291
-4430.639845
-5809.069652
-5827.12471
-4608.279857
-4660.596063
-2994.363401
-3313.253374
-3080.606178
-3289.950197
-2967.132686
-3687.788349
-3338.175165
-3166.414445
-1602.275607
-1863.526986
-1940.783067
-5821.386002
-5797.529328
-5345.105188
-5382.025163
-5286.246935
-4710.734772
-4841.822259
-4477.701788
-4658.26024
-5249.592926
-5702.964735
-4952.613815
-4931.504732
-4875.340493
-4943.121166
-5685.90879
-3792.19851
-3725.062335
-3841.202761
-2919.232265
-2606.33989
-2501.253965
-2627.136457
-2942.050293
-1949.562439
-1515.740381
-4669.074521
-2153.297332
-2300.246537
4359.075629
-2334.23597
-2493.009633
2089.429863
-3303.463338
-685.6594675
1376.316179
-5750.721054
-6408.944543
-6332.328751
-5892.694682
-4397.342977
-4590.224364
-4400.817464
-5273.950358
-5117.384035
-4868.387362
-5895.651795
-6381.325113
-6439.153141
-5630.393789
-4687.009221
-4372.710196
-4905.579688
-4760.535702
-5647.971373
-5188.072618
-5461.470439
-5325.258181
-5554.042754
-4341.915955
-4174.005586
-4034.952819
-3800.364404
-3558.445843
-3797.081873
-4589.872255
-4191.954992
-4410.302014
-3877.150414
-4114.963954
-4539.69746
-2421.387254
-2563.349735
-2271.176972
-1756.243441
-5839.461608
-4544.16104
-5484.776648
-3505.954488
-3565.385615
-1973.30369
-2108.112259
-2126.252478
3630.217373
4051.141936
3427.73857
-2658.685269
-2498.856685
-2450.590341
-2507.117791
-2678.529582
-6762.850741
-5926.083967
-5456.07018
-6305.657155
-6044.290843
-5268.485658
-4567.006515
-5465.931429
-6170.247937
-6096.631607
-5763.843602
-5878.668076
-6297.57643
-6201.688921
-4821.778723
-4649.982104
-4450.860818
-4705.408705
-4889.96529
-4458.244217
-4650.265555
-4941.891607
-4817.493045
-5066.555834
-4877.422808
-3131.365264
-3187.93737
-3156.174321
-3070.761026
-3203.257907
-3539.892411
-3433.743052
-3574.982417
-3247.698022
-3387.000004
-3487.259665
-1815.815719
-1788.1319
-1925.482799
-6388.761646
-6374.077527
-5880.879561
-6520.448576
-6569.251324
-6498.792595
-6473.801246
-6380.662467
-6591.533027
-6484.959594
-5685.532304
-6277.508405
-6385.981573
-5625.865799
-5505.452147
-5229.190995
-5508.87687
-5797.949013
-5658.277712
-3809.303696
-3959.09702
-3622.673944
-3763.296383
-3862.608954
-4223.582044
-4394.724509
-4008.982717
-4171.012205
-2688.882808
-2763.373469
-2830.123437
-2676.618989
-2877.578115
-2806.082924
-1834.300122
-2206.144261
-1730.07422
-1130.669996
-2288.621101
-2341.487491
-1573.773931
-2352.078854
-2080.651034
-1585.751062
-1535.970605
2610.199576
3422.847714
4244.076841
-3501.613061
-615.7939624
1803.284047
-1414.399212
-1006.003271
-2730.954711
-5100.12758
-5765.19092
-6040.478184
-1605.249585
-1741.925809
-1758.731049
-2185.371846
-1929.273272
-1870.341969
-6116.638809
-6247.649621
-5649.213614
-1596.841002
-1689.036418
-1702.069321
-1611.067394
-1558.179992
-6381.602453
-3412.120936
-1994.760743
-2058.561326
-2066.756547
-2281.307306
-2141.756896
-2103.029685
-4232.912447
-3703.877471
-4419.572101
-2407.78822
-2465.535453
-2323.568106
-1650.38911
-1060.062398
-3245.009146
-6606.274754
-6284.195206
-6127.017051
-6742.723969
-6706.705381
-3039.63992
-3070.721452
-3023.543577
-3329.664004
-3319.544029
-3291.163864
-2892.81741
-3024.438395
-3104.780354
-3651.822226
-3601.800351
-3649.449368
-1931.097648
-1907.839249
-1941.470253
-3974.376383
-4032.704237
-3695.8284
-3749.275044
-3775.995851
-4088.838679
-4113.21313
-3983.056707
-4121.723577
-3966.488662
-1946.2923
-2190.436696
-2231.859269
-2325.5681
-2279.371821
-2257.240314
4325.453478
4756.105553
4095.78718
-2386.420191
-2412.503876
-2340.021277
-2511.542916
-2460.291767
-2446.342689
-1900.549576
-1065.442689
-3414.823287
-6001.159719
-5999.928365
-5947.135629
-5979.695353
-6381.856705
-6231.312758
-6251.682347
-6189.176378
-6211.37544
-6358.760156
-5226.003402
-5145.650744
-5194.682737
-5040.022886
-5095.301246
-5175.268301
-6431.392196
-6256.499259
-6230.587778
-6268.800709
-6272.228241
-6453.033107
-5415.39675
-5332.71948
-5376.472368
-5242.706934
-5288.350645
-5372.072936
-5892.216059
-5919.55454
-5803.049561
-5850.642343
-1607.765594
-1764.448924
-1755.08316
-1742.584022
-1612.452304
-6086.49534
-6394.049092
-6149.991258
-5349.321532
-5087.96804
-4287.604291
-5872.513153
-5538.214476
-3454.038612
-3595.444634
-2121.222972
-2107.269531
-2118.937664
3822.875283
-2577.460745
-2519.744218
-2625.216897
-6539.74872
-6419.845934
-6687.859364
-6223.597771
-6490.128668
-6559.683558
-6683.193756
-6647.66712
-6136.505665
-6033.268095
-6056.634768
-6007.330589
-6015.720034
-6108.284661
-6261.645513
-6135.340484
-6163.393761
-6082.42705
-6108.010145
-6230.006714
-4767.618554
-4693.674955
-4747.6816
-4763.532197
-4831.003621
-4514.769216
-4541.429468
-4502.206479
-4593.070131
-4999.363754
-5044.497466
-5004.982006
-4919.909874
-4981.183342
-4803.026416
-4861.216204
-4939.837426
-3168.249187
-3092.569785
-3078.08776
-3106.138083
-3039.422257
-3091.582024
-3245.361561
-3273.576266
-3217.626103
-3501.804983
-3547.212503
-3577.351926
-6383.526811
-6195.869761
-6189.55656
-6209.803933
-6200.728789
-6380.052333
-6548.207353
-6555.06566
-6461.821004
-6688.906753
-6662.751742
-6646.96071
-6681.962077
-6436.781609
-6583.321173
-6668.426766
-6689.715566
-6524.331363
-5589.017897
-5500.417263
-5536.696444
-5418.801973
-5460.316375
-5546.831934
-5745.491943
-5665.549137
-5743.267384
-5571.188056
-5610.354919
-5696.278273
-3894.721441
-3928.648925
-3834.495431
-3802.516443
-3838.916353
-4274.552098
-4307.483704
-4261.693402
-4434.776098
-4364.487674
-4330.829581
-4056.321041
-4093.011262
-4054.836183
-4213.10137
-4163.168261
-4114.186425
-2780.26039
-2761.190396
-2815.946701
-2663.797055
-2711.006203
-2744.701468
-2943.249774
-2984.705396
-2859.45894
-2874.902257
-2886.139978
-1890.669184
196.4412796
183.7083621
149.3123
5.709568099
7.64948489
-42.76139075
-181.2282302
-165.6908136
-225.1567995
-344.1645854
-320.0487087
-379.9269736
-472.350508
-446.4273028
-499.1918383
-566.5366554
-543.4343371
224.2319678
201.8349816
167.1045508
-10.19102189
3.092064811
-68.53629725
-231.4891403
-190.3197966
-280.3769227
-407.8663151
-356.2865803
-444.0837824
-535.3938437
-485.1011206
-560.5316247
-621.899776
-577.815117
279.094108
234.496586
199.9975287
-48.11791432
-16.95518617
-127.4050151
-334.2952108
-251.0266116
-391.0197021
-525.9636437
-431.4129453
-561.1146689
-641.6458725
-557.048092
-661.3259072
-704.6651934
-640.2435009
401.8501693
300.6565452
271.0711839
-145.2214128
-63.95628273
-268.259395
-542.6475706
-373.030324
-605.7409587
-729.8391175
-567.7738692
-753.6622272
-796.23967
-675.7886962
-803.8276116
-815.0629107
-729.7005886
719.6145177
455.0567777
558.4847916
-489.2667412
-193.0449673
-685.414258
-974.0798902
-623.2266887
-1007.617217
-1033.39597
-795.3449609
-1028.558456
-997.884818
-842.6077059
-985.0995944
-945.7342494
-846.4760313
817.968008
-437.4968042
-61.10665447
-1264.373571
-1284.015469
-1026.578192
-1643.131552
-1423.782422
-1126.225021
-1364.039394
-1216.153716
-1053.08656
-1175.607576
-1074.291146
-979.0654932
-3235.306894
-2653.411222
-2167.858227
-2241.860719
-1757.269413
-1520.464132
-1643.772855
-1388.187878
-1266.56984
-1323.395107
-1169.824483
-1102.755747
-3974.645517
-3251.234992
-3147.61042
-2388.117511
-1860.848626
-1808.700472
-1733.942968
-1447.266913
-1415.431363
-1374.548384
-1201.859943
-1184.640536
-3395.420664
-2925.328568
-3111.288108
-2111.719449
-1718.208246
-1845.81104
-1617.064638
-1377.432416
-1441.366534
-1314.216013
-1160.475588
-1198.214591
-2449.693277
-2217.962897
-2495.321026
-1637.5324
-1424.396182
-1654.345879
-1364.373331
-1211.768614
-1343.032646
-1168.767319
-1058.714856
-1139.82845
-1517.102325
-1517.306574
-1705.870709
-1340.390883
-1161.435028
-1026.732879
-4064.384726
-4529.696082
-4684.345587
-2760.989967
-3172.415564
-2947.821827
-4105.24608
-4497.839322
-4334.78929
-4711.709132
-4749.062707
-4278.586833
-3187.534583
-3404.980213
-3181.140795
-4272.442908
-4071.985259
-3816.835792
-2149.37349
-2207.820694
-2074.771046
-3043.427911
-2899.478715
-2792.602661
-1942.80671
-1811.862919
-1777.140283
3241.923736
4082.349572
4716.303916
1223.855887
-154.4189008
1661.21357
-1959.647902
-1969.421887
-2349.248601
-263.1422261
-720.2179008
-1189.445992
-5288.340449
-5488.60566
-5581.435624
-3390.329148
-3918.859855
-3665.914939
-3094.760345
-2778.520011
-3434.302908
-2335.421595
-2597.202375
-2770.758342
-2104.661861
-2372.014963
-2157.662734
-5716.197088
-5857.182042
-5827.328735
-6082.099896
-6068.781426
-5913.987616
-3169.436081
-3239.113571
-3949.675133
-2652.059682
-2959.558418
-2923.796988
-2888.362066
-2949.98505
-2635.36991
-4289.904755
-4348.325329
-4293.121499
-5100.197575
-5052.124182
-4965.60275
-2591.076162
-2840.761139
-3283.556585
-2397.894544
-2616.196096
-2470.920136
-2849.590812
-2744.616971
-2499.232474
-2911.673457
-2962.267426
-2875.5438
-3539.013696
-3400.221517
-3340.683929
-1617.843928
-1667.097445
-1677.539178
-1795.31181
-1844.621932
-1590.780005
-2130.425642
-2049.518758
-2026.575473
-5919.838855
-6088.952552
-6090.49303
-5658.704111
-5728.31948
-5536.355908
-4148.406369
-4457.933765
-3921.297644
-5348.043688
-5028.721405
-4902.641331
-5405.166314
-5378.180416
-5736.089439
-5102.383571
-5191.948899
-5146.84335
-5796.757896
-5765.643263
-5630.590026
-4661.887577
-4544.961072
-4123.566448
-5437.47014
-5140.505392
-5194.881801
-4782.86816
-4859.7846
-5096.196073
-5754.229593
-5423.650317
-5420.174473
-5224.357725
-5257.492229
-5622.059712
-4184.797603
-4741.820553
-4689.532022
-3607.799108
-3724.935917
-3585.504315
-4238.729914
-4184.731068
-4136.048036
-3704.40004
-3479.392477
-3318.304001
-3987.341272
-3895.99857
-3986.208143
-3246.116069
-3479.986669
-3709.787702
-4786.280695
-4619.079668
-4702.494394
-4077.896931
-4170.734038
-4337.548022
-3698.365632
-4000.38138
-3779.435923
-2262.504901
-2293.128706
-2211.6322
-2789.608537
-2704.88913
-2663.034819
-1506.894831
-1569.136726
-4049.400349
-4804.675704
-4447.192462
-1903.597059
-2120.161419
-2329.804805
-1867.438886
-1979.741389
-1808.586307
-2313.80297
-2148.994961
-2011.339299
-2037.959563
-2095.908469
-1960.21345
-2247.421807
-2203.309768
-2191.600507
-4131.750168
-3503.652639
-2805.10745
-4753.215592
-4577.141906
-4883.129329
-3245.449467
-3541.935984
-4016.884122
-2321.058085
-2337.396528
-2291.788036
-2605.762721
-2562.105296
-2540.307236
-2480.309559
-2342.843732
-2276.437239
-2465.849233
-2412.61556
-2577.102285
-2123.904859
-2266.70151
-2388.389813
-3109.545092
-2947.014442
-3170.704412
-2651.711128
-2870.171509
-3026.904887
-2662.675873
-2758.686586
-2618.976722
1813.999323
-2377.277132
-2349.355347
-2848.325776
-127.0348043
-688.9465092
-1347.863414
1292.062848
-333.1460707
105.7331803
-5195.254035
-5652.637571
-5031.331512
-5054.614624
-4309.15032
-3557.422713
-5928.66949
-5690.866703
-6087.717122
-4070.825146
-4402.728277
-5025.789619
-5931.749093
-5913.542065
-5792.001116
-5845.050875
-5974.239278
-5952.641056
-4678.267921
-4624.775445
-4556.156174
-4713.121978
-4787.256017
-4732.434232
-3138.225141
-3049.828347
-2995.825558
-3252.553554
-3219.863739
-3263.17068
-2940.764697
-2985.943611
-3012.381283
-3307.794646
-3353.81274
-3385.309079
-3253.248324
-3354.806906
-3219.337245
-1689.089147
-1703.607399
-1614.010348
-1913.842992
-1779.210821
-1775.981018
-6002.116851
-6017.008809
-5845.156772
-5773.451666
-5953.506405
-5981.594503
-5438.663955
-5401.387288
-5307.961808
-5421.06957
-5514.698255
-5475.09203
-5064.991957
-5124.980696
-5399.41584
-4759.170575
-4935.488886
-4882.460164
-5034.446573
-4988.283801
-4803.207388
-4541.924213
-4697.139117
-4626.88863
-4825.587392
-4763.53616
-4602.168634
-5136.964989
-4933.038452
-5001.902547
-5402.739096
-5417.311248
-5743.016966
-4954.256203
-5178.131611
-5170.544703
-5166.59459
-5177.156937
-4947.618786
-4903.403089
-5104.156037
-5074.643237
-5155.196046
-5132.514003
-4926.301853
-5639.828595
-5353.779828
-5380.992198
-3917.279055
-3771.365945
-3660.136353
-3886.338935
-3930.677265
-3881.907616
-2782.859916
-2748.76247
-2847.583521
-2577.244895
-2662.396207
-2739.778828
-2581.523249
-2621.483422
-2538.920602
-2671.347753
-2690.63695
-2647.259836
-2965.849356
-2912.742019
-2892.283245
-1525.179255
-2204.276856
-2220.345757
-2165.886417
2493.854697
3155.746785
2360.044378
3164.547227
2674.068565
3988.970117
3393.312764
-2768.809528
-2735.710187
-3352.137863
-170.2450972
-637.7632327
-1202.904532
1759.063815
-223.4194432
544.216025
-5882.304107
-5875.519469
-5736.151053
-5904.30542
-6053.889993
-6037.110047
-4460.216013
-4404.407989
-4343.069267
-4526.675505
-4463.66532
-4522.313591
-4346.882199
-4404.419836
-4459.622777
-4917.761061
-5002.858497
-4951.103669
-6060.792516
-6077.12535
-5909.531838
-5218.203536
-5133.316528
-5448.734199
-4598.500602
-4852.346665
-4940.482306
-4621.282663
-4746.34978
-4494.548082
-4868.673011
-5112.580385
-5145.173972
-5012.421269
-5068.777989
-4820.98561
-5722.063929
-5340.250718
-5288.857015
-5279.140681
-5236.100795
-5145.769266
-5595.353048
-5726.446173
-5676.813904
-4282.847046
-4234.72836
-4290.698875
-4127.883282
-4180.37407
-4226.893695
-4082.399269
-4132.158996
-4080.552199
-3719.035679
-3806.902282
-3892.906011
-3637.542626
-3722.207948
-3638.741976
-3891.640786
-3806.544245
-3717.044965
-4444.770792
-4533.055766
-4737.817754
-4267.188961
-4397.648834
-4316.274361
-4553.27574
-4476.697975
-4339.953226
-3957.145354
-4062.877004
-3977.231261
-4232.971053
-4148.282211
-4036.431138
-4388.606359
-4263.17584
-4354.631803
-2456.657463
-2374.686389
-2341.772394
-2433.378237
-2408.002826
-2492.513072
-2240.98613
-2324.43907
-2357.638301
-5012.085637
-5355.30508
-5764.455893
-2021.619238
-2038.082704
-1984.309892
-2117.829729
-2083.050776
-2065.932945
3996.765247
-2609.987509
-2584.444183
-2628.953899
-2486.292191
-2533.073022
-2550.230609
-2495.503226
-2515.390155
-2469.443272
-5788.712466
-6103.315925
-6246.171378
-5755.45581
-5939.047193
-5631.894169
-6352.956585
-6433.222638
-6142.611251
-5059.714218
-5333.440714
-5559.038289
-4802.786052
-5083.257209
-4835.790783
-5828.629899
-5406.272688
-5091.483693
-5776.683294
-5900.452967
-5891.330814
-6017.775475
-5996.268573
-5862.576214
-4580.230819
-4637.743349
-4709.081159
-4503.86676
-4570.738195
-4515.714555
-4897.007177
-4842.105295
-4765.491545
-3127.27505
-3175.229201
-3208.079023
-3114.641328
-3144.275991
-3097.812889
-3233.577942
-3188.732044
-3160.329511
-3481.03342
-3515.444651
-3467.807737
-3610.312758
-3563.352928
-3528.079853
-3293.720005
-3324.655496
-3278.726292
-3420.384756
-3372.130011
-3340.246814
-3433.216911
-3402.423568
-3453.40535
-1807.260736
-1863.050216
-1882.485211
-1835.033373
-1848.312582
-1798.830246
-1935.555097
-1892.788202
-1880.136924
-5864.638479
-6029.827723
-6043.960428
-5876.727557
-5919.980335
-5742.974651
-6323.235066
-6115.639475
-6074.152903
-6177.226932
-6151.928198
-6365.52492
-5269.318378
-5361.894649
-5320.908922
-5619.865261
-5563.235453
-5463.735032
-3856.518362
-3895.826637
-3848.643812
-4002.311677
-3946.123606
-3906.681983
-3670.973861
-3709.138797
-3658.508585
-3800.09551
-3757.363929
-3717.738962
-2788.480504
-2738.447038
-2717.352657
-2847.580948
-2864.663306
-2830.703191
-2003.115554
-1585.681467
-1467.157854
-1513.025701
-1553.327254
-1820.889806
-1096.184406
-1307.915959
-1310.550944
-1639.6207
-1474.835725
-1428.579445
-1852.24393
-1843.239101
-1982.721059
-1570.658278
-1706.247841
-1730.502092
3107.707642
3547.984728
2929.095324
3703.7491
3724.986182
3346.795732
4504.549088
4097.660122
4006.339839
-2129.930048
-1792.870348
-2963.705684
38.79169679
-544.3825585
-1226.871694
1816.435267
558.7360286
888.3379054
-1400.37532
-1543.791245
-1201.115888
-2562.368589
-1961.444431
-1741.561695
-5323.374824
-5408.176077
-5203.264804
-5866.898382
-5623.192158
-5526.617894
-5800.663165
-5714.383679
-5957.15922
-1650.338996
-1657.335954
-1609.874213
-1749.450443
-1702.675666
-1697.661019
-1722.981133
-1711.928349
-1755.908092
-2099.184776
-2074.267927
-2157.654331
-1908.034566
-1991.118607
-2014.155411
-6177.839523
-5941.228147
-5877.134603
-6034.350703
-5991.890605
-6218.474071
-5583.7895
-5782.58578
-5834.504297
-1562.968193
-2237.932275
-2219.74775
-2263.766909
-2127.346818
-2173.860975
-2189.963669
-2145.212016
-2158.717106
-2114.331664
-4073.781799
-4309.549073
-4476.069774
-4670.026473
-4373.874128
-4142.850804
-2425.559693
-2382.137298
-2367.110469
-2422.630428
-2401.826625
-2444.51786
-2308.362415
-2355.042211
-2371.079916
-1524.385673
-1906.648949
-1996.436536
-1559.214229
-1768.03021
-1331.874732
-2888.157157
-2290.067567
-2208.35924
-2935.318771
-2960.500562
-2915.723166
-3051.489918
-3005.256468
-2980.996839
-3057.089117
-3031.657491
-3078.753636
-4030.106254
-3979.920434
-3936.760475
-4068.825102
-4025.146577
-4076.463192
-3924.24006
-3974.227538
-4016.571526
-1661.913588
-2167.497675
-2288.878151
-1647.248091
-1961.541486
-1411.658768
-3375.436852
-2622.15875
-2403.73388
115.8329031
30.38814703
30.23459541
-55.21507297
-138.7383408
-136.6763483
-218.3994784
-292.7242527
-289.2552031
-360.7209375
-421.8433239
-417.9210797
-475.9394326
-523.2000253
-519.5464284
-564.1021053
-599.2576292
-595.9340866
-628.5006462
-652.7994428
-650.331702
143.8105344
98.33846552
96.55860885
-36.8537246
-82.38249632
-80.43960395
-210.5895525
-251.2063601
-245.9974453
-360.5230821
-393.5873857
-386.9793564
-479.8003496
-504.9409722
-498.4448711
-585.5627288
-621.9242977
-607.965252
-648.5527671
-670.1237869
-659.3983974
-687.7379043
-701.4821825
-694.3311994
157.1214436
104.9721844
103.4409092
-52.71000506
-103.8372477
-96.02987765
-247.4048269
-290.8423037
-277.5258999
-406.8006261
-440.333957
-425.6002923
-525.7737418
-549.4140228
-535.5686881
-638.2342138
-664.8077149
-640.9078239
-685.7411687
-702.1302323
-684.4867711
-715.0025209
-724.4052717
-712.5121663
180.7092224
112.5188865
110.3590099
-92.22682271
-156.5176171
-139.3894934
-326.8230964
-375.0130053
-348.6121498
-494.4503271
-526.621324
-500.2713836
-605.5896639
-626.4055988
-603.5925831
-715.0480641
-726.8658077
-693.492402
-738.1796619
-746.5655485
-722.8984265
-752.5825973
-756.3854902
-739.9320289
228.2101103
124.1999845
120.8554979
-180.9976788
-269.8221119
-232.4771253
-480.1472627
-532.3588006
-483.2356593
-648.2793642
-674.3069911
-631.3380712
-727.1267957
-738.935873
-707.2343034
-816.535394
-804.1440736
-763.9119121
-802.8264529
-800.3500566
-772.6040374
-796.965247
-793.7622762
-774.7715724
338.4853751
132.8388195
133.8811264
-416.2385217
-543.1528693
-449.2114818
-779.3609428
-820.4049885
-734.088027
-880.1892359
-887.5729498
-827.4910596
-890.4747805
-887.6272845
-847.5035254
-933.0349567
-891.1157409
-846.9694864
-873.5677183
-857.1013847
-828.8553476
-842.3745794
-830.0859638
-812.202258
670.0942614
394.4648092
383.8904863
-1298.891057
-1278.29752
-1146.279763
-1194.602561
-1165.028218
-1091.924761
-1082.068711
-1057.188939
-1014.693653
-1046.384244
-976.3505416
-935.1963981
-939.3403182
-908.0531286
-883.9091495
-882.4113193
-861.5769984
-845.3640987
-2755.325802
-2594.130274
-2365.797864
-1981.580296
-1836.801901
-1703.674822
-1521.161764
-1442.830754
-1378.730632
-1259.165904
-1210.927384
-1176.36009
-1129.318095
-1037.783564
-1011.134698
-985.5624589
-942.6888334
-928.0499892
-907.7666471
-880.4836878
-871.2654156
-3953.106709
-3671.736957
-3623.985837
-2379.537496
-2167.920934
-2121.965637
-1717.388648
-1609.267128
-1583.506977
-1363.227634
-1300.365369
-1286.245915
-1156.373189
-1060.425035
-1054.692629
-1000.555057
-951.7249625
-950.8512397
-912.1955886
-880.9829275
-881.2974804
-3604.203399
-3408.369324
-3487.322803
-2288.715096
-2106.973658
-2154.751656
-1698.566783
-1596.12218
-1616.077679
-1357.287222
-1295.115319
-1305.631952
-1118.906975
-1035.893223
-1054.05759
-978.287913
-930.9224389
-945.0464136
-891.9135777
-861.0672196
-871.8570292
-2690.759282
-2591.230874
-2701.957508
-1886.647329
-1774.26265
-1872.999024
-1501.814149
-1428.633173
-1481.264495
-1249.449215
-1200.59244
-1231.231481
-1027.415832
-968.8707222
-1006.986541
-921.6508608
-882.0428899
-909.6684714
-848.6637999
-821.8992583
-842.2157623
-1744.033535
-1720.779234
-1822.688319
-1383.151062
-1339.048514
-1449.830892
-1215.750561
-1178.325315
-1244.554844
-1077.668316
-1047.814672
-1089.366468
-923.3879609
-849.1424091
-795.383495
910.8501251
-3552.905701
-3456.003065
-3735.234905
-3555.878513
-3613.17792
-3844.936345
-2811.46835
-2919.550785
-3050.513357
-1641.70119
-1650.540422
-1571.194545
-5624.752964
-5607.021517
-5760.596081
-5505.02618
-5386.795853
-5414.110824
-4887.82848
-4924.195359
-5012.503858
-5767.555409
-5629.742957
-5619.33525
-5438.130496
-5458.864664
-5583.953644
-3380.020772
-3463.269508
-3533.202573
-4879.762306
-4801.118624
-4839.562948
-1494.167991
-1936.071441
-2038.367102
-2092.809161
-3464.014087
-3302.566091
-2989.64275
-2622.554901
-2581.966358
-2659.836447
-2136.601288
-2206.560355
-2233.831974
-3277.119153
-3215.861516
-3297.398176
-2737.739217
-2816.147815
-2863.316623
1531.950656
1693.659258
1433.823752
1120.608613
735.7187375
720.2502028
-4176.223219
-3971.727755
-3598.915981
-5194.922011
-5223.247356
-5322.718101
-5213.896005
-5124.886682
-5153.866366
-5583.817598
-5587.740922
-5716.852723
-5671.106108
-5555.566675
-5561.665315
-3834.357134
-3787.153047
-3748.315675
-2871.791995
-2848.527177
-2894.731032
-2589.064478
-2630.531208
-2650.512748
-5465.281199
-5428.498846
-5612.865706
-5679.14317
-5530.889235
-5488.96328
-4523.855696
-4566.991438
-4639.450819
-4489.670834
-4427.470454
-4471.57169
-2520.078208
-2503.425037
-2544.281416
-2133.071473
-1902.037502
-1934.821659
-2004.342924
-1989.40188
-2058.409625
-1655.568908
-1682.28044
-1553.97569
-1330.380098
-1626.060218
-1670.125635
-2672.097512
-2357.177397
-2373.994632
-1948.401423
-1968.928658
-1888.809342
-3906.276961
-4119.018387
-3897.596133
-3190.256511
-2844.519202
-2779.011025
191.7249469
187.1414307
101.9783161
100.5429751
146.0154025
7.463214533
53.46305272
53.57556164
53.65552838
53.67897562
7.691871104
-89.76427659
-85.01919553
-39.59873332
-174.1253291
-130.6527175
-136.5062519
-122.6211819
-125.8291293
-169.4411958
-266.5972532
-257.699709
-217.2757854
-333.852827
-297.2729529
-306.8261682
-283.6729605
-289.1628387
-326.1678035
-412.7412609
-401.8181972
-369.329071
-461.4555057
-433.0989141
-443.9593631
-417.9372104
-424.0955163
-453.1420461
-523.4062489
-512.962503
-488.5764677
-556.8050085
-536.1376501
-546.1632639
-522.3174096
-527.8985336
-549.3307553
215.535932
208.1430954
108.4286636
106.6390689
161.7528348
-4.739158331
50.98839408
49.12426237
53.35592254
52.28715081
-0.3926625676
-125.1903625
-113.4592282
-59.7960309
-215.1177187
-165.4381552
-179.7025023
-144.0993168
-153.6714444
-201.5107307
-326.0600952
-306.9201793
-262.4086281
-387.6688611
-348.7425823
-368.5899121
-318.1867587
-332.0236533
-370.5811209
-477.2657977
-457.3742805
-423.9163087
-516.446835
-488.2895737
-507.6956037
-456.6825062
-471.4037045
-499.7358754
-583.1112875
-565.1737895
-542.0547776
-605.2966029
-586.2391662
-603.543523
-557.7801837
-571.0567441
-590.6048824
261.3929562
246.737481
117.7623399
114.9820936
189.4776687
-35.46129665
39.36553065
34.21179857
46.57305443
43.37525997
-25.25418434
-202.1213002
-177.1638541
-108.0579152
-301.7186759
-241.9173399
-271.2867184
-196.853274
-217.3806332
-274.2281317
-441.568527
-405.7872747
-356.3589109
-489.9168517
-450.2112583
-486.3463727
-391.8522874
-418.9075552
-458.6240578
-591.7723142
-556.7867292
-525.3332248
-610.1894696
-585.0212582
-618.4083014
-530.0285575
-555.6514636
-581.9431197
-677.9880975
-651.1483637
-632.2693385
-681.4763229
-667.4049664
-692.335647
-623.0283825
-644.3940162
-660.0773158
360.1943688
327.1857841
130.9735275
127.6046871
247.2803905
-110.1850923
6.68975959
-10.1222812
27.50737719
18.65804918
-84.05829781
-375.5790744
-316.6312563
-218.951946
-475.7213926
-402.2369482
-466.574856
-306.613459
-349.5477193
-419.5529223
-657.4130018
-590.3472372
-537.8490141
-670.1929571
-634.2855584
-698.4737344
-528.2333958
-577.3464967
-615.883088
-771.8826172
-720.8983189
-698.6333946
-752.9159403
-738.6699479
-785.8028101
-655.4184443
-695.3405906
-712.7747778
-809.1952088
-772.9672791
-764.1582184
-785.0087249
-779.7836282
-812.7789949
-719.4154525
-748.6221378
-756.5509373
615.8190527
524.7901117
-3.098256519
124.3013071
384.8628795
-352.0755129
-129.9099101
-224.7838974
-34.8690003
-72.20299058
-258.8103018
-823.7789523
-665.7088027
-529.5463688
-838.2156263
-766.6509313
-916.7910159
-545.1315994
-643.3676232
-721.1241728
-1025.675983
-917.1718438
-886.311858
-947.0917961
-936.3018428
-1033.254053
-769.6111794
-848.5265054
-867.6590613
-1020.308392
-951.9030959
-951.7935245
-943.7693596
-948.9510544
-1009.802074
-836.6897837
-891.1251803
-891.8527603
-971.9190752
-929.348204
-937.0542757
-912.2655368
-921.0046235
-958.7251992
-847.4572761
-883.7262395
-879.0766559
355.153884
396.1904894
743.7067922
-260.5735126
47.40492529
-75.31010066
153.2442706
113.9522514
-143.3038985
-1562.530494
-1418.901708
-1467.187515
-1324.152071
-1370.778042
-1489.772431
-1138.942351
-1252.474037
-1224.118855
-1309.863442
-1238.093789
-1279.809489
-1163.110296
-1199.22535
-1260.765172
-1072.696814
-1136.169762
-1108.4177
-1138.701879
-1098.76761
-1129.683815
-1043.8306
-1070.206445
-1105.018128
-996.4762646
-1033.834099
-1011.987298
-3007.492849
-2809.346252
-3007.144904
-2491.504592
-2640.773564
-2816.282905
-2050.083386
-1954.23841
-2125.514187
-1690.922618
-1811.535576
-1890.940333
-1605.942324
-1715.160985
-1611.026216
-1546.302716
-1499.141216
-1587.991194
-1353.950711
-1421.799839
-1461.886369
-1319.519032
-1374.051096
-1313.231788
-1266.123303
-1240.883136
-1294.034467
-1150.985157
-1193.474442
-1215.244578
-1137.766642
-1167.583157
-1128.565884
-3701.544396
-3696.870947
-3971.942487
-3225.385549
-3449.158739
-3461.539693
-3372.575874
-3423.205935
-3207.231373
-2182.663582
-2187.726285
-2399.080365
-1860.807091
-2010.557158
-2008.991856
-1951.618587
-1991.648773
-1843.385428
-1624.951333
-1623.165128
-1733.11921
-1445.135845
-1528.051767
-1530.229847
-1493.679554
-1515.848593
-1434.503713
-1310.048788
-1308.311593
-1372.470123
-1200.813834
-1251.400691
-1252.844461
-1232.534454
-1244.635234
-1195.036006
-3227.061316
-3320.970456
-3502.729432
-2989.23472
-3150.444448
-3069.14351
-3292.730149
-3226.527254
-3062.917596
-1963.219529
-2042.164053
-2207.947084