/*--------------------------------*- C++ -*----------------------------------*\
| =========                 |                                                 |
| \\      /  F ield         | OpenFOAM: The Open Source CFD Toolbox           |
|  \\    /   O peration     | Version:  v2012                                 |
|   \\  /    A nd           | Website:  www.openfoam.com                      |
|    \\/     M anipulation  |                                                 |
\*---------------------------------------------------------------------------*/
FoamFile
{
    version     2.0;
    format      ascii;
    class       surfaceScalarField;
    location    "2.64";
    object      phi;
}
// * * * * * * * * * * * * * * * * * * * * * * * * * * * * * * * * * * * * * //

dimensions      [0 3 -1 0 0 0 0];
oriented        oriented;


internalField   nonuniform List<scalar> 
6430
(
-0.006737751357
0.930029698
-0.01364189836
0.9296939233
-0.02062668293
0.9288989476
-0.006303187089
0.927668177
-0.02170427005
-0.4593471998
0.4602578318
-0.00721381905
-0.457787889
0.008202426455
0.4588978101
-0.009312347419
-0.4669399747
0.01039868464
0.4703832994
-0.007163887514
-0.006688748534
-0.2600951167
0.009699182125
0.2612162542
-0.01083543761
-0.2706952242
0.009676498676
0.2701924775
-0.009192508311
-0.2501648498
0.007495426213
0.2514806403
-0.008822758209
-0.2170027655
0.009229064091
0.2179229491
-0.005043057974
-0.005106189748
-0.05278838908
0.003247597402
0.05284474343
-0.003303951743
-0.003175393598
0.9332050916
-0.006434250267
0.93295278
-0.00986476499
0.9323294623
-0.006703603423
0.9313708688
-0.006863853382
-0.4631802205
0.4641385935
-0.007661976325
-0.4618074922
0.008727900214
0.4629464793
-0.009866887302
-0.4738542641
0.01109787589
0.4725814961
-0.005174933643
-0.004661511375
-0.2628216328
0.00434523825
0.2623604498
-0.003899428577
-0.2706957852
0.002905015652
0.2706178107
-0.002846891107
-0.2498376279
0.004122200619
0.2508790255
-0.005175285248
-0.2213344558
0.01035256905
0.2223948729
-0.005696013458
-0.005716972663
-0.05461578481
0.007755487432
0.1096368965
-0.05455863302
-0.004095817012
-0.004122149075
-0.003330662259
0.9365357539
-0.006744791796
0.9363669095
-0.0103281124
0.935912783
-0.007025688249
0.935210218
-0.007141773328
-0.4651833276
0.4662126187
-0.008054979341
-0.4641080578
0.009166189933
0.4652834319
-0.01034156402
-0.4696563478
0.01160385703
0.4666485646
-0.004170979506
-0.004427853222
-0.2588140026
0.0005471692997
0.2569510617
0.00130321766
-0.2693372133
-0.005906704345
0.2684330564
0.006793198072
-0.2553231507
-0.006325865244
0.2567406957
0.004896365266
-0.2296833951
0.003792768506
0.2340075057
-0.008118994267
-0.1127257356
0.01472701786
0.2246391578
-0.01437523319
-0.1122652068
-0.003406901253
0.9399426552
-0.006890934119
0.9398509424
-0.0105292338
0.9395510826
-0.007172646303
0.9390843433
-0.007230712758
-0.4672601597
0.4683079209
-0.008220407515
-0.4664565873
0.009332220066
0.467621313
-0.01049694579
-0.4655777221
0.0117371417
0.4668450198
-0.006475246168
-0.006529168198
-0.2496218537
0.001323576469
0.2467038926
0.001586988472
-0.2637568306
-0.00983986202
0.2615152213
0.0120675983
-0.259016055
-0.01589115326
0.2588663671
0.01602945743
-0.24348855
-0.0130873723
0.245318154
0.01125343475
-0.2275871954
-0.005493699023
0.2291180308
0.003963976902
-0.003410728381
0.9433533836
-0.006888939351
0.9433291534
-0.01049866379
0.9431608071
-0.007161779808
0.9428945652
-0.007147105948
-0.4693334803
0.4703604297
-0.008188729149
-0.4687636473
0.009266051402
0.4698806015
-0.0103830057
-0.4681347049
0.01155897533
0.4693776234
-0.006423540142
-0.006378353675
-0.2372299127
0.00703424198
0.2347178215
-0.00452302132
-0.2530118505
-0.005652087975
0.2497477408
0.008908017317
-0.2555076863
-0.01702383502
0.253544487
0.01897830442
-0.2471803993
-0.02235052884
0.246787202
0.02273978137
-0.2327328242
-0.02259297888
0.233536342
0.02179186939
-0.003353908779
0.9467072923
-0.006763618821
0.9467388634
-0.01027783597
0.9466750242
-0.007013378956
0.9465670333
-0.006936925074
-0.4713495127
0.472329481
-0.007993347239
-0.4709619063
0.009012365986
0.4720074135
-0.01005787323
-0.4705679192
0.01114480143
0.4717008123
-0.006175694859
-0.00610199966
-0.2351101965
0.006771870356
0.235415532
-0.007077205804
-0.2396314548
0.006314692844
0.2364184752
-0.003103158222
-0.2460762247
-0.006171696294
0.243338538
0.008905046402
-0.2435579885
-0.0153729107
0.2420475679
0.01688073483
-0.234587955
-0.01947585125
0.2345421137
0.01952341156
-0.003248326978
0.9499556193
-0.006539730847
0.9500302673
-0.009907084017
0.9500423774
-0.006755040859
0.950048326
-0.006633335874
-0.4732653482
0.4741845407
-0.007674233297
-0.473009592
0.008621279692
0.4739707369
-0.009582424639
-0.4727740497
0.01056901755
0.473787123
-0.005837052688
-0.005745038177
-0.2362692201
0.006362107691
0.2365339294
-0.006626816939
-0.235995585
0.007424851129
0.2362615009
-0.007690766991
-0.235630296
0.008481127094
0.2356274624
-0.008478412886
-0.2371959925
0.003811685287
0.2356731652
-0.00228943056
-0.2336563048
-0.0006084370877
0.2331767742
0.00108846518
-0.003106322485
0.9530619418
-0.006243207371
0.9531671522
-0.009429085243
0.9532282553
-0.006419874878
0.9533069025
-0.006267786875
-0.4750566031
0.475907371
-0.007270642781
-0.4748856125
0.008139539883
0.4757580873
-0.009012014634
-0.4747414729
0.009896813349
0.4756386176
-0.005445468097
-0.005348489944
-0.2372693905
0.005903043592
0.2374965301
-0.006130183161
-0.2369854601
0.00680124751
0.2372041464
-0.00701993385
-0.2363127762
0.00765376195
0.2365146635
-0.007855649261
-0.2352221688
0.008423410497
0.2353963198
-0.008597561432
-0.2320621165
0.009006989072
0.2318696361
-0.008814508671
-0.002939932171
0.956001874
-0.005899086518
0.9561263065
-0.008883294356
0.9562124631
-0.006036792288
0.9563277933
-0.005867392871
-0.4767107145
0.4774912506
-0.006817328458
-0.4765845755
0.007607587711
0.4773700516
-0.008393063789
-0.4764793534
0.009180173718
0.4772665548
-0.005027177861
-0.004940197232
-0.2381263936
0.005429388002
0.2383208288
-0.005623823272
-0.2377998087
0.006187734152
0.2379800143
-0.006367939712
-0.2370531281
0.006879627767
0.2372128316
-0.007039331283
-0.2358552605
0.007481761219
0.2359897453
-0.007616246096
-0.2313170834
0.007860279123
0.2311426478
-0.007685843531
-0.002759156212
0.9587610302
-0.005527767668
0.958894918
-0.008301305996
0.9589860014
-0.00562678289
0.9591071848
-0.005453914607
-0.4782249568
0.4789378206
-0.006339646656
-0.478111941
0.007054478432
0.4788156738
-0.007758211264
-0.4780031144
0.008456132617
0.4786921228
-0.004609958558
-0.004535182385
-0.2388597543
0.004963286818
0.2390261951
-0.005129727569
-0.2384720773
0.005604761816
0.2386213372
-0.00575402165
-0.2376417159
0.006170807623
0.237769823
-0.006298914775
-0.2363464388
0.006650518319
0.236451398
-0.006755477433
-0.2306513223
0.006888001101
0.2304985649
-0.006735243719
-0.002573245304
0.9613342755
-0.005147874216
0.9614695469
-0.007711660769
0.961549788
-0.005213648438
0.9616527336
-0.005043561118
-0.4796041292
0.480252536
-0.005862055243
-0.4794794669
0.006506671035
0.4801086656
-0.007135869831
-0.479336788
0.007754191364
0.479940111
-0.004210807507
-0.00414670688
-0.2394879884
0.004521368482
0.2396308701
-0.004664250238
-0.2390303797
0.005066416708
0.2391549264
-0.005190963432
-0.2381165654
0.005534199902
0.238220989
-0.00563862347
-0.2367303847
0.005923067539
0.2368125706
-0.006005253471
-0.2300737666
0.00606318345
0.2299433521
-0.005932768966
-0.002388944367
0.9637232199
-0.004772824007
0.9638534266
-0.007134026116
0.9639109901
-0.004810579776
0.9639776414
-0.004648354187
-0.4808559164
0.4814444535
-0.00539911682
-0.4807019251
0.005979790871
0.4812643988
-0.006542264547
-0.4805050451
0.007090475799
0.481034029
-0.003838204386
-0.003781255314
-0.2400279439
0.004111479998
0.2401511359
-0.004234671916
-0.2394976047
0.004577266574
0.239602417
-0.004682078852
-0.2385059403
0.004968209902
0.2385924957
-0.00505476533
-0.2370311055
0.005288151569
0.2370955016
-0.00535254768
-0.229584979
0.005360535855
0.2294762584
-0.005251815245
-0.002211582444
0.9659348023
-0.004413102583
0.9660549467
-0.006583446639
0.9660813341
-0.004427561177
0.9660988239
-0.004277067965
-0.4819902997
0.4825242321
-0.004961493606
-0.4817950052
0.0054848469
0.482298545
-0.005988386691
-0.4815306268
0.006475800391
0.4819971416
-0.003497134614
-0.00344518054
-0.2404940179
0.003735993117
0.2406006635
-0.003842638681
-0.2398919798
0.004136343451
0.239980973
-0.00422533666
-0.2388304441
0.004466862111
0.2389032716
-0.004539689564
-0.2372665944
0.00473318541
0.2373169596
-0.004783550562
-0.2291807373
0.004758429305
0.2290919376
-0.004669629566
-0.002044518372
0.9679793207
-0.004075214201
0.9680856425
-0.006068917665
0.9680750376
-0.004071198852
0.9680347291
-0.003933623987
-0.4830183685
0.4835031695
-0.004555999915
-0.4827740954
0.005028504989
0.483225972
-0.005480381552
-0.4824359173
0.005914889405
0.4828489357
-0.003186586335
-0.003141321472
-0.2408983975
0.003396389316
0.2409912883
-0.003489280124
-0.240228067
0.003742995583
0.2403043881
-0.003819316735
-0.2391048245
0.004025789251
0.2391668892
-0.00408785393
-0.2374505551
0.004249633788
0.2374897879
-0.004288866587
-0.228852778
0.004242030363
0.2287817051
-0.004170957489
-0.001890703663
0.9698700244
-0.003764838097
0.969959777
-0.005598233124
0.9699084326
-0.003745594484
0.9698049114
-0.003622820994
-0.4839512083
0.4843923932
-0.004186779424
-0.4836533629
0.004614614132
0.4840603342
-0.005021585365
-0.4832382849
0.005410551689
0.4836057649
-0.002909061681
-0.002868970048
-0.2412515588
0.003094383496
0.241333068
-0.003175892686
-0.2405175037
0.003397052795
0.2405837084
-0.003463257513
-0.2393396991
0.003642047608
0.2393932203
-0.003695568862
-0.2375936206
0.00383194515
0.2376240175
-0.003862342119
-0.2285925745
0.003801466057
0.2285371544
-0.003746045924
-0.001751652663
0.971621677
-0.003484787157
0.9716929115
-0.005174973345
0.9715986188
-0.003453041142
0.9714288609
-0.003345881713
-0.4847999198
0.4852028704
-0.00385599184
-0.4844460811
0.004244979329
0.4848143358
-0.004613234021
-0.4839531448
0.004963260808
0.4842819113
-0.002664132013
-0.002627895252
-0.2415623351
0.002828905543
0.2416344593
-0.002901029799
-0.2407696455
0.003095749245
0.2408277678
-0.00315387162
-0.2395430542
0.003310628338
0.2395897257
-0.003357299788
-0.237704151
0.003473173844
0.237727501
-0.003496523866
-0.2283919939
0.003426811538
0.2283502592
-0.003385076884
-0.001628335448
0.9732500125
-0.003236798716
0.9733013747
-0.004801208994
0.9731630291
-0.003194583617
0.9729256848
-0.003103449213
-0.4855751321
0.4859450183
-0.003564469916
-0.4851643561
0.003920066533
0.4854995864
-0.004255296769
-0.4845935092
0.004572461971
0.4848896119
-0.002450517198
-0.002418047527
-0.2418381552
0.002597382266
0.2419025148
-0.00266174191
-0.2409919292
0.002834946964
0.241043564
-0.002886581712
-0.2397210422
0.003025649358
0.2397621743
-0.003066781457
-0.2377886704
0.003165989262
0.2378063668
-0.003183685688
-0.2282435776
0.003108705139
0.2282138428
-0.003078970274
-0.00152129933
0.9747713118
-0.003021806864
0.9748018823
-0.004477863357
0.9746190855
-0.002970862551
0.9743141897
-0.002895505701
-0.4862869732
0.4866286481
-0.00331253743
-0.4858193221
0.003639845167
0.4861267616
-0.003947284681
-0.4851716314
0.004237034525
0.4854408783
-0.002268103719
-0.002238177726
-0.2420851394
0.002399007318
0.2421431163
-0.002456984144
-0.2411902946
0.002612791519
0.2412367402
-0.002659237169
-0.2398785426
0.002784129376
0.2399152023
-0.002820789028
-0.2378523241
0.002906460156
0.2378654762
-0.002919612316
-0.2281407561
0.002841854641
0.2281214475
-0.002822546084
-0.001430492807
0.9762018046
-0.002839495163
0.9762108846
-0.004204023796
0.9759836142
-0.002779916233
0.9756114624
-0.002721380313
-0.4869448056
0.4872630889
-0.003098199521
-0.4864211618
0.003401926648
0.4867054912
-0.003686256118
-0.4856985922
0.003953384713
0.4859460753
-0.00211449549
-0.002086372347
-0.2423085624
0.002231570958
0.2423613367
-0.002284345262
-0.2413695868
0.002426198424
0.2414119078
-0.002468519436
-0.2400195347
0.002582106213
0.2400525955
-0.002615167014
-0.2378991902
0.002689849487
0.2379086779
-0.002699337094
-0.2280774766
0.002620606239
0.2280671996
-0.002610329224
-0.001355945771
0.9775577504
-0.002690018821
0.9775449577
-0.003979470619
0.977273066
-0.002622848622
0.9768359265
-0.002581086093
-0.4875577936
0.4878567958
-0.002921850829
-0.4869790602
0.003206272127
0.4872445767
-0.003471788624
-0.4861850577
0.003720365987
0.4864156273
-0.001987727268
-0.001963208334
-0.2425129138
0.002094319709
0.2425616126
-0.002143018561
-0.2415338291
0.002274023355
0.2415729562
-0.002313150515
-0.2401473091
0.002417920916
0.2401775245
-0.002448136328
-0.2379325208
0.002513989107
0.2379390602
-0.002520528563
-0.2280484298
0.002442073159
0.2280459582
-0.002439601561
-0.001298177522
0.9788559279
-0.00257360803
0.9788203882
-0.003804519337
0.9785039773
-0.002493377463
0.9779958957
-0.00247111112
-0.4881330876
0.4884205853
-0.00278087515
-0.4875014198
0.00305103999
0.4877522169
-0.003301837079
-0.4866384383
0.003535732218
0.4868546377
-0.001885300434
-0.001866631215
-0.2427026469
0.001985627858
0.2427482999
-0.002031280827
-0.2416865304
0.002154165244
0.2417232667
-0.002190901522
-0.2402646952
0.002289003173
0.2402927164
-0.002317024372
-0.2379549897
0.002375905008
0.2379591825
-0.002380097768
-0.2280489309
0.002302734153
0.2280531843
-0.002306987499
-0.001254901301
0.9801108292
-0.002487660173
0.980053147
-0.003676242754
0.9796925598
-0.002406638165
0.9791220282
-0.002395737077
-0.4886851992
0.4889584325
-0.00267987153
-0.4879960406
0.002936730518
0.4882351733
-0.003175863242
-0.4870651294
0.003398762725
0.4872707129
-0.001808481569
-0.0017958647
-0.2428813398
0.001903705774
0.2429247037
-0.001947069695
-0.2418306678
0.002063994158
0.2418656727
-0.002098998988
-0.2403741481
0.002192240226
0.2404005347
-0.002218626823
-0.2379688678
0.002272143508
0.2379712391
-0.002274514854
-0.2280749437
0.00219881584
0.2280850152
-0.002208887319
-0.001233636943
0.9813444661
-0.002439415124
0.9812589252
-0.00360336583
0.9808565105
-0.002357791624
0.9802197127
-0.002343258686
-0.4892130146
0.489466084
-0.002610861102
-0.4884695373
0.002860547954
0.4887011682
-0.003092178938
-0.487472489
0.003307522866
0.4876705364
-0.001755600261
-0.001749970037
-0.2430519827
0.001847508567
0.2430937665
-0.001889292316
-0.2419687787
0.002002148324
0.2420026177
-0.002035987366
-0.2404778563
0.002125951719
0.2405031199
-0.002151215285
-0.2379762208
0.002200914226
0.2379772781
-0.002201971544
-0.2281229594
0.002128520442
0.2281380278
-0.00214358888
-0.001210402887
-0.002405944741
-0.003557045459
-0.00233471289
-0.002287773954
-0.4897245028
0.4899760243
-0.002586234458
-0.4889282931
0.002824970506
0.4891542986
-0.003050975982
-0.4878673135
0.00326154627
0.4880598575
-0.001730275613
-0.001723814626
-0.2432172089
0.001817158408
0.2432580367
-0.001857986229
-0.2421029721
0.001968340714
0.2421360987
-0.002001467324
-0.2405778304
0.002089476746
0.2406024595
-0.002114105918
-0.2379791788
0.002161794435
0.2379795817
-0.002162197328
-0.2281899206
0.002091689027
0.2282093981
-0.002111166517
0.003200864768
-0.003266062536
-0.05272319131
0.003816641404
-0.003924129176
-0.05450829703
0.008869735793
-0.2161222218
-0.004813825498
-0.004936453963
0.1059852692
-0.003178015504
-0.1057075599
0.006101170945
0.02600605023
-0.2200800358
-0.02165692024
-0.005603549937
0.1094160276
-0.003786030342
-0.109031152
0.007217796134
-0.003270264394
0.006266757843
0.1062363731
0.05332434447
0.003476797243
-0.003550551772
-0.05325058994
0.02615980243
-0.0003536707804
-0.0267219357
0.0009158040507
-0.02783341433
-0.0008654607615
0.001263836752
0.02743503834
0.007706657385
-0.007951763365
-0.1124806296
-0.001401210165
-0.02807355033
0.001641346161
0.02724504766
-0.0008895817238
-0.0277566761
-0.003415518653
0.04545338845
0.004506325036
-0.02485690756
-0.02168728729
-0.0002797569713
0.0007300676329
0.02570949177
0.00351045211
0.05339732046
-0.003583428108
-0.02227736111
0.02209888943
-0.0001012852857
0.02843982283
-0.005894297423
-0.01299309647
-0.01296794759
0.02675307123
-0.0003734843302
-0.02267238682
4.13549215e-05
0.005705808346
0.02612813345
-0.02420986344
-0.001254732076
0.00169001106
0.02377458445
-0.05208610332
0.003648679449
0.05216470036
-0.003727276477
0.05235445659
0.003745263177
-0.05231584252
-0.001914295044
-0.001869582213
-0.05205708374
0.003450299333
0.0520658471
-0.003459062696
0.003590942583
-0.003612058845
-0.05206498705
-0.0008167852205
-0.02468177071
0.001288692498
-0.02510764391
-0.001174653157
0.001448828416
0.02483346865
-0.05181916141
0.003267233865
0.05185988339
-0.003307955847
0.003424222982
-0.003474704388
-0.05200660234
0.00321272174
-0.003239796891
-0.05179208625
-0.0009893105205
-0.02543182605
0.001313492655
0.0247855693
-0.0005519128031
-0.02522296701
0.02434632479
-0.0007354086534
0.003772273121
0.05236721295
-0.001905320012
-0.00187970947
0.05261828985
0.01427825272
-0.05249078761
-0.005453118368
-0.008952636593
-0.01218664567
0.02494465917
-0.0243036768
0.0115456633
0.01186508752
-0.01537940265
-0.00867233053
0.02424502995
-0.02421346858
0.005246050719
-0.02483623474
-0.006038302586
0.00605591211
0.02481862522
0.02371685569
-0.0002825539666
-0.02425108694
0.02981999742
-0.02371950296
-0.0003946861148
-0.006176743642
-0.02491390187
0.006254410776
-0.007165566597
0.01424159865
0.02274396536
0.02298538576
-0.000523262152
0.025887293
0.02536915759
-0.02552557283
0.007115605397
-0.01122802728
-0.2255719569
0.2254316925
0.01388818994
-0.007771415106
-0.111909809
-0.1119320009
0.007343058889
0.1098284562
0.1111460505
0.007923338457
-0.008442034976
-0.110627354
-0.008395277619
0.09303635452
-0.09318257579
0.008541498885
-0.003368403965
0.004576201344
0.04424559108
-0.004790973945
-0.02629047311
0.003732908471
0.02734853859
-0.0263221342
0.002091524304
0.02662711601
-0.002396506109
0.02656474835
0.001806153596
-0.001650614159
-0.02672028779
0.03071827208
-0.005646853216
0.08926097266
-0.01165879397
-0.08599745631
0.02649252144
0.000930186909
-0.0005335144773
-0.02688919387
-0.02481798496
0.004300122806
0.02670395943
-0.006186097271
-0.03113816858
0.0233783028
0.03270452499
0.02432499433
0.05387748631
-0.01906960517
-0.006514585613
0.00426224234
0.05410368481
-0.004374635494
-0.05399129165
0.001764961631
0.02636324699
-0.001563460269
0.02576622043
0.001892360941
-0.001732046924
-0.02592653444
-0.0005090247943
0.02425636297
-0.02474420917
0.0009968709887
0.02517996829
0.0213156496
-0.02160315447
-0.0002215199152
0.02331083429
-0.004527522488
-0.01787952989
-0.0009037819178
-0.009144737105
0.05094502814
-0.05062420159
0.008823910556
0.002760162722
0.02424988806
-0.01927308105
0.02544814592
0.0005366008569
-0.0001396527113
-0.02584509407
-0.03066911519
0.02584327933
3.48619101e-05
-0.02554045311
0.001871038896
0.0255541001
-0.001884685883
0.002059744441
-0.002454006262
-0.02592787238
-0.00602698626
-0.0245209291
0.004257442252
-0.0005653955806
-0.02604144329
0.001017711312
0.02558912756
-0.02590327864
0.001725719638
0.0257829628
-0.001605403801
0.00180564105
-0.001737767666
-0.02560832649
0.0008975222611
0.02607928287
-0.0004842836951
0.003676529723
-0.004654695895
-0.02383981879
-0.001273495902
0.001715881485
0.02381397739
0.002224946496
0.02569918559
-0.002157911657
0.02653927244
0.009450837136
-0.009921282879
-0.0260688267
-0.00237325883
0.02859175615
-0.02271803048
-0.003500466845
-0.005160886377
0.009993544165
0.01847817651
0.02044368878
-0.0004015350865
-0.0190664672
0.02493038077
-0.005160177304
-0.0007037362689
0.02129739066
-0.005199973305
-0.02062493984
0.02448728855
-0.005448538496
-0.02464873706
0.005609987002
0.02506200089
-0.0001792505452
0.01515910575
-0.0008108568914
-0.02458287186
-0.006683361
0.006514612259
0.0247516206
-0.004801515002
-0.01357899195
-0.000685960245
-0.006932054352
-0.02455207681
0.006901259299
-0.01470784791
-0.02198825354
-0.02625762291
0.001766898685
0.02615574051
-0.001665016286
0.001664474901
-0.001589148251
-0.02597860529
-0.02650022271
0.0009953802706
-0.02579488623
0.003092294533
0.0270027145
-0.02586557431
0.001844837968
0.026008423
-0.001987686646
0.001685768963
-0.001734951865
-0.02620844001
-0.0239394473
0.02309360305
-4.373747659e-05
0.002368419127
-0.02628964847
-1.821795522e-05
-0.02782280969
0.002434552713
0.0218649434
0.0001830466987
5.089932439e-05
-0.000140794054
0.02628360009
0.0006102651906
-0.02278291528
0.02253462456
0.0001074966699
-6.279656236e-05
-0.02355912961
0.0008808456063
5.897189199e-06
-0.02563522876
0.001641443157
0.02562742762
-0.001633642021
0.001788737269
-0.001935000878
-0.0257193107
-0.02493088723
0.002812530726
-0.02644442696
0.00123147728
0.02611047195
-0.02578707779
0.001586306163
0.02574165889
-0.001540887262
0.001617732792
-0.001589327447
-0.0256636341
-0.02483145356
0.02441994331
-0.0001404025448
0.0004833863564
-0.000102645823
-0.0252121941
0.0009144755478
-0.02565405621
-0.001211330837
0.02394773896
0.001609916667
-0.02391576899
0.02322030408
-0.0005158659256
-0.0002312343373
0.00688958975
-0.007371226764
-0.02382203978
0.02528257848
-0.02481594565
0.006422956926
0.02619803478
0.01063020701
0.000229540619
0.005691855245
-0.00592139587
-0.01837193091
-0.004378698507
0.005469208058
0.02440158613
0.02152921753
-0.005392713252
0.02277190224
-0.002608986677
-0.0225361744
-0.0216675083
0.02138094221
4.012128067e-06
0.0002441627464
-0.02184522952
-6.644152777e-05
-0.02466988586
0.0006629616705
-0.01983121483
-0.0004126271802
0.01519424593
-0.0009526472696
-0.005614795614
0.02136972485
-0.000560683313
0.02397599553
-0.006846825786
-0.001506768681
0.02213666148
0.002355492961
-0.02080982089
0.01931791751
-1.486530221e-05
4.785916724e-05
0.0259449781
-0.02609385569
0.02266874027
0.0002251593197
-4.029134631e-05
0.02253772404
0.0001874579805
-5.644175228e-05
0.01505685122
-0.01504053026
-1.632095809e-05
-0.004840778725
0.003721928469
-0.03111902145
-1.140573943e-05
-0.0222482675
0.02000300159
0.02721530534
-0.02067903446
0.02672403354
0.001897989493
-0.001795195528
-0.0268268275
-0.0004561464163
0.0220911363
-0.02289785435
0.001262864473
0.000715909087
-0.0002249880926
-0.02523513016
0.0254681794
-0.02595554634
0.001203276026
0.02502850008
0.001436550306
3.680083661e-05
-0.01274708914
-0.004135186047
-0.0009972547027
-0.01138260757
-0.001364481569
0.01213064319
-0.002096163691
-0.01049062591
0.01979312486
-0.004980158828
-0.01967374454
0.004860778509
0.003221506554
0.004340359756
0.02102988983
-0.0223295502
0.02217263149
1.726599762e-05
8.994768747e-05
0.0001151266751
0.0005284537112
0.002427306862
-0.0001431571374
0.02206826146
-0.02222174503
5.08377424e-05
0.02189544613
3.241279237e-05
0.02238169437
0.0001222146779
3.381499294e-05
9.151865917e-05
6.843068291e-05
-0.02238247755
-0.004520485844
0.002350860244
-0.001513033715
0.002458780419
0.01957392775
-0.02109747537
1.05139073e-05
1.291164887e-05
0.02163765704
2.655475151e-05
2.431574187e-05
0.02474227023
0.002002111335
-0.00353118892
0.003457513501
-0.003539251313
0.00109237639
-0.01928215898
-0.004528247887
0.01980928615
-0.0160053291
-0.002711580661
0.01653835992
0.01172557072
-0.001732026557
-0.002713032203
-0.001566726178
-0.003517014675
-0.001467493436
-0.005754816369
0.01930258957
-0.02224540193
-0.005977431163
0.02246801673
-0.0216296019
-0.005775977331
-0.0002087820834
0.0006008971063
-0.02201353196
-4.047963774e-05
-2.015102078e-05
-0.0004898223997
-0.02022475566
0.02648773641
-0.005595184068
-0.0006677966785
-0.01436087851
-0.005203789198
-0.0006600879551
-0.02036883224
-0.006062284661
0.01249498542
-0.006376081252
-0.001084006534
-0.0134136522
-0.0009472263131
0.006069110878
-0.006645192153
0.02795539297
-0.0005165572426
0.02144300007
-0.01492084657
0.0002129986654
0.004433398274
-3.632733061e-05
0.004581806221
0.005971664661
-0.005620082102
-0.2604579117
-0.007200233841
0.273890827
-0.2709804611
0.004273972268
-0.007356435032
-0.2705554328
-0.007891484565
0.257773899
-0.2575897594
0.007694403076
-0.008117858401
-0.2499490754
0.2216013642
-0.2213272872
0.008594292341
0.02275200166
-0.02310930013
-0.262479717
-0.02358260926
0.2715507459
-0.2714824787
0.0234942744
0.01274702337
0.2708000064
-0.02362285437
-0.2706755315
-0.02383144836
0.2573038283
-0.2571947254
0.02370744351
0.007997389917
0.2572582599
-0.02406585155
-0.2496150521
0.2235023889
-0.2225482477
0.02505122515
0.008919748547
0.2219093981
0.2188819914
0.009506201135
-0.005209946875
-0.005255296476
0.1086415475
-0.005792244247
-0.1083749169
0.005525613613
-0.1076191485
-0.005506613765
0.005260875848
0.1078648864
0.05304430248
0.003347796327
-0.003422877078
-0.05296922172
0.05240699052
-0.05235922978
0.003543181853
-0.05224568838
0.003410439896
0.05228554781
0.001161395914
0.0003568401798
-0.2603457342
0.00401967697
0.2691081138
-0.2701073391
-0.003038707616
0.00313012151
0.2713056768
0.004640413722
-0.2699762793
0.00355541877
0.2607294983
-0.2598190148
-0.004480202545
0.003411830468
0.2579994762
0.001999177085
-0.2537787649
0.2358429078
-0.2320251195
0.003294409308
0.008508265582
0.2253459287
-0.01155473375
0.2234859603
0.01046364453
0.2229364461
-0.006395797819
-0.1109209201
-0.1107954733
-0.006378988608
-0.1101527544
-0.006276388251
0.005967500794
0.1104616419
0.1101235027
0.007863448701
-0.004166954686
-0.004183100232
0.05494824572
-0.004561654799
-0.05473725575
0.004350664816
-0.05429891606
-0.004341271308
0.004212958356
0.05442722902
0.0005986955152
0.0020983086
-0.2523277254
0.009513463652
0.2619935198
-0.2642592202
-0.007262157416
-0.00463066662
0.2678146004
0.01140313412
-0.2656615
0.01398826253
0.2617528205
-0.26204736
-0.01370696226
-0.007070980923
0.2614604508
0.01363951051
-0.2586790145
0.008958107002
0.2475250274
-0.2454182766
-0.01107083334
0.000156651441
0.2394746864
0.006452713317
-0.2409872836
-0.001267456755
0.2340691356
-0.2317431526
-0.001058679476
0.0134762676
0.2266824428
-0.002787464118
-0.2260665737
0.005646740514
-0.002430425887
-0.2404487248
0.007533073496
0.250196303
-0.2534734844
-0.004264498191
-0.007278463309
0.2594189998
0.01061205071
-0.2561005886
0.01786773759
0.2561472057
-0.2581778598
-0.01584737102
-0.01516081502
0.2610097814
0.01943496439
-0.2570844976
0.02145663636
0.2498604862
-0.2501243404
-0.0211985334
-0.01456935116
0.249000877
0.0213821161
-0.2471100371
0.02010837079
0.2384488295
-0.2379364406
-0.02062004427
-0.007219839042
0.2357953069
0.01909029766
-0.2317124715
0.006863994867
-0.007179225034
-0.2347949664
-0.002818993217
0.2366070079
-0.2399276404
0.006137949589
-0.002261375271
0.246798672
0.0005258921249
-0.2429794649
0.009883541181
0.245371169
-0.2483084452
-0.006951732885
-0.01466357711
0.2537777181
0.01254886587
-0.2487470991
0.01861191341
0.2448694377
-0.2465541567
-0.01693118756
-0.02162380648
0.2491283403
0.01995201424
-0.2449011008
0.02211594839
0.2378906163
-0.2383262553
-0.02167963269
-0.02279589723
0.2386525688
0.0219836842
-0.2344536762
0.006471329959
-0.00674559284
-0.2359949572
-0.007578348983
0.2360950221
-0.2358163877
0.007299714575
0.007700774628
0.2352204916
-0.007857484044
-0.23571645
-0.007117260306
0.235563953
-0.2367581655
0.008310927339
-0.003217473841
0.2424128611
-0.004757291155
-0.2379909712
0.00154425599
0.2372893928
-0.2391669038
0.0003319840394
-0.01353317413
0.2430263244
0.003150112172
-0.2388029449
0.006163850879
0.2353109254
-0.2360089536
-0.005465622566
-0.0189178188
0.2373331273
0.006555983286
-0.234047658
0.006019207839
-0.006254849578
-0.2370337488
-0.006955741613
0.2370905352
-0.2368585869
0.006723793314
0.007158566233
0.236361307
-0.007185332623
-0.2367558691
-0.007854642778
0.2365237434
-0.2363044861
0.007635385484
0.008219533662
0.2358255464
-0.00806911179
-0.2360983072
-0.008675281598
0.2355231391
-0.2353282358
0.00848037834
0.005573093636
0.2355274151
-0.00886168683
-0.2350357636
-0.009320712325
0.2340785971
-0.2339627729
0.009204888083
6.832927421e-05
0.2346342844
-0.009125555619
-0.2322572732
0.005546816864
-0.005748472775
-0.2379247376
-0.006337287491
0.237918564
-0.2377256172
0.006144340743
0.006579711251
0.2373120714
-0.006526304634
-0.2376107916
-0.007065574458
0.2372856959
-0.237110994
0.006890872581
0.007446755766
0.2367307496
-0.007234663029
-0.2368840396
-0.007704566083
0.2361858398
-0.2360357424
0.00755446868
0.008241237081
0.2357053125
-0.007847786997
-0.2357120396
-0.008127305687
0.2343123016
-0.2342818633
0.008096867401
0.008917234172
0.234168352
-0.007947851439
-0.2314965376
0.005079391392
-0.005251946255
-0.2386871994
-0.005747737496
0.238608621
-0.2384475566
0.005586673097
0.006003347807
0.2381029503
-0.005904126021
-0.2383156888
-0.006342501941
0.2378968108
-0.2377560469
0.006201738089
0.006714261662
0.237451062
-0.006477698779
-0.237506519
-0.006849495868
0.2367034459
-0.2365851828
0.006731232711
0.007340600841
0.2363270002
-0.006961133776
-0.2362348009
-0.007117498422
0.2343118143
-0.2343267864
0.007132470505
0.007843940455
0.2343286402
-0.006959161647
-0.2308096591
0.004630692102
-0.004778629496
-0.239340051
-0.005197811868
0.2391863347
-0.2390511793
0.00506265656
0.00545072912
0.2387626537
-0.005328057335
-0.2389001342
-0.005688059843
0.2383927924
-0.2382779626
0.005573230056
0.00603722732
0.2380303911
-0.005797813543
-0.2380068117
-0.006097372844
0.2371155016
-0.2370207941
0.006002665382
0.006538809618
0.2368151546
-0.006184752986
-0.2366430046
-0.006258655155
0.2341862683
-0.2342256024
0.006297989199
0.006910554813
0.2342892606
-0.006122641101
-0.2302097807
0.00421046264
-0.004337759293
-0.2399006473
-0.004694126078
0.2396730889
-0.2395589322
0.004579969409
0.004936955126
0.2393157962
-0.004803447969
-0.2393882828
-0.005102492822
0.2388008254
-0.2387058532
0.005007520629
0.005424861054
0.2385021312
-0.005193053222
-0.2384153799
-0.005437958
0.2374476731
-0.2373710648
0.005361349704
0.005833337996
0.2372052311
-0.005506393887
-0.2369626696
-0.005525039463
0.2339947326
-0.2340466337
0.005576940557
0.006106522542
0.2341429293
-0.005411028618
-0.2296989899
0.003825946021
-0.003935998138
-0.2403839658
-0.004240985485
0.2400861944
-0.2399890219
0.00414381293
0.004467668089
0.2397826874
-0.004333587419