/*--------------------------------*- C++ -*----------------------------------*\
| =========                 |                                                 |
| \\      /  F ield         | OpenFOAM: The Open Source CFD Toolbox           |
|  \\    /   O peration     | Version:  v2012                                 |
|   \\  /    A nd           | Website:  www.openfoam.com                      |
|    \\/     M anipulation  |                                                 |
\*---------------------------------------------------------------------------*/
FoamFile
{
    version     2.0;
    format      ascii;
    class       volVectorField;
    location    "2.29";
    object      U;
}
// * * * * * * * * * * * * * * * * * * * * * * * * * * * * * * * * * * * * * //

dimensions      [0 1 -1 0 0 0 0];


internalField   nonuniform List<vector> 
3259
(
(101.3815219 -0.1963059516 6.871686623e-21)
(101.3239588 -0.5933692563 1.085247845e-19)
(101.2130146 -1.005097109 -2.186486969e-19)
(101.0312597 -1.463598437 -5.54337331e-22)
(100.7019507 -1.79771799 -1.731273531e-21)
(100.3148598 -2.320343108 0)
(99.82167939 -2.977522507 0)
(99.16609077 -3.629286272 -4.752292783e-19)
(98.16760459 -4.616279372 -1.020842987e-18)
(96.79185477 -5.896035389 0)
(95.04250264 -7.566706738 0)
(93.09049575 -9.330557069 5.001475114e-19)
(101.7689801 -0.2111752281 0)
(101.722688 -0.6394721329 0)
(101.6340878 -1.081749489 0)
(101.4882026 -1.571967627 0)
(101.2023761 -1.956087771 0)
(100.8882362 -2.527531038 0)
(100.509984 -3.238120108 -1.114993612e-19)
(100.0013075 -3.93699368 2.680369107e-20)
(99.23502185 -4.974630694 2.248171687e-19)
(98.19375131 -6.314505345 0)
(96.92493657 -8.134867218 -4.770542308e-19)
(95.66605523 -10.64769766 2.889512938e-19)
(102.1794691 -0.2201514824 0)
(102.1452441 -0.6675437162 0)
(102.0811365 -1.127967584 0)
(101.972817 -1.630110835 0)
(101.7303435 -2.041887708 0)
(101.4988677 -2.632133334 0)
(101.2322579 -3.33936588 -1.889627258e-22)
(100.8737951 -4.050205767 -3.718219782e-19)
(100.3415054 -5.049692041 0)
(99.63063968 -6.306398915 -3.769454078e-19)
(98.91386197 -7.94090967 -3.610085097e-19)
(98.5908995 -10.24779277 3.486367753e-19)
(102.6020172 -0.2235003661 0)
(102.5792296 -0.6779176192 0)
(102.5383391 -1.144370383 0)
(102.4654052 -1.643793414 0)
(102.2642452 -2.06728145 0)
(102.1058525 -2.650731835 0)
(101.9349959 -3.326039449 3.494930052e-22)
(101.6934108 -4.016796914 1.675227173e-19)
(101.3574601 -4.91236718 9.944590579e-21)
(100.887174 -5.984862151 3.477720878e-20)
(100.4734257 -7.246909846 7.406477483e-20)
(98.25830836 -8.466042378 1.083107386e-19)
(103.0262909 -0.2219338828 0)
(103.0134727 -0.6727907015 0)
(102.9923145 -1.134571352 0)
(102.9496169 -1.619589745 0)
(102.7856633 -2.041418141 0)
(102.6875 -2.59912091 0)
(102.5908264 -3.222666299 0)
(102.4327492 -3.865587056 -3.194060711e-20)
(102.2230041 -4.639609275 0)
(101.8859762 -5.497902773 0)
(101.5333041 -6.399097659 0)
(97.55733812 -6.941426223 1.9559608e-20)
(103.4432971 -0.2163340366 0)
(103.438699 -0.6550166029 0)
(103.4331989 -1.103396625 0)
(103.4144868 -1.564871008 0)
(103.2820698 -1.973909621 0)
(103.2290403 -2.493854144 0)
(103.1837246 -3.056442833 0)
(103.0757316 -3.633434969 0)
(102.9267846 -4.283840951 -2.063284488e-20)
(102.6298672 -4.955689802 5.005827199e-20)
(102.2567051 -5.606184138 7.276603393e-20)
(96.68704035 -5.776425706 0)
(103.8459575 -0.2075919239 0)
(103.8477732 -0.6274721889 0)
(103.8538766 -1.055836775 0)
(103.8527657 -1.487761948 0)
(103.7449672 -1.87594856 0)
(103.7224733 -2.352008609 0)
(103.7073607 -2.851592697 0)
(103.6245426 -3.358324484 0)
(103.4891123 -3.896079032 0)
(103.181219 -4.421546964 1.294456192e-21)
(102.7528178 -4.902277159 -4.084490699e-21)
(96.21134464 -4.936877814 0)
(104.2290602 -0.1965853436 0)
(104.2355062 -0.5929659796 0)
(104.2493539 -0.9967375701 0)
(104.2598582 -1.395968662 0)
(104.1700024 -1.758277697 0)
(104.1653676 -2.188360946 0)
(104.1640505 -2.629193309 0)
(104.0874288 -3.067104951 0)
(103.9411326 -3.510096709 0)
(103.6005543 -3.923577266 0)
(103.0992211 -4.28492616 0)
(96.27092704 -4.295301301 0)
(104.5890965 -0.1841363845 0)
(104.5985296 -0.5541038226 0)
(104.6166632 -0.9304879432 0)
(104.6335378 -1.296108231 0)
(104.5558743 -1.629936983 0)
(104.558888 -2.014973228 0)
(104.5584223 -2.403271676 0)
(104.4765376 -2.777807938 0)
(104.3059069 -3.143361272 0)
(103.9258697 -3.472176936 0)
(103.3435923 -3.748057125 0)
(96.4627923 -3.753009252 0)
(104.9240383 -0.1709532029 0)
(104.9350561 -0.5131312325 0)
(104.9545987 -0.8608508761 0)
(104.9734842 -1.193374747 0)
(104.9035806 -1.49802966 0)
(104.906452 -1.840873111 0)
(104.8977015 -2.182213795 0)
(104.8036789 -2.501370591 0)
(104.6022489 -2.804337116 0)
(104.1824203 -3.068978113 0)
(103.5184603 -3.283353928 0)
(96.69478605 -3.292812978 0)
(105.2331246 -0.1576031917 0)
(105.2445941 -0.4718376313 0)
(105.2633214 -0.7908448401 0)
(105.2808152 -1.091715875 0)
(105.2151972 -1.367821785 0)
(105.2124367 -1.672192202 0)
(105.1893431 -1.971313512 0)
(105.0794005 -2.243921386 0)
(104.844954 -2.496390783 0)
(104.3880822 -2.711990584 0)
(103.6447359 -2.88097797 0)
(96.94078222 -2.899892083 0)
(105.5166026 -0.1445202052 0)
(105.5276398 -0.4315640178 0)
(105.5439297 -0.7227243432 0)
(105.5575472 -0.9939979529 0)
(105.4935485 -1.243000811 0)
(105.4815353 -1.512839065 0)
(105.440787 -1.774012355 0)
(105.3124888 -2.008335629 0)
(105.0454608 -2.2199876 0)
(104.5554883 -2.397738949 0)
(103.7366126 -2.532436324 0)
(97.18750123 -2.562014159 0)
(105.7754383 -0.1320243063 0)
(105.7853736 -0.3932727832 0)
(105.7980966 -0.6580838174 0)
(105.8061308 -0.9021946033 0)
(105.7417658 -1.126008499 0)
(105.7182277 -1.365087693 0)
(105.6584051 -1.593193828 0)
(105.5104271 -1.795434657 0)
(105.2125853 -1.974110027 0)
(104.6934669 -2.122316521 0)
(103.8038224 -2.230600688 0)
(97.42824053 -2.270134851 0)
(106.011086 -0.1203418826 0)
(106.0194298 -0.3576257393 0)
(106.0278402 -0.5979956652 0)
(106.0291894 -0.8175753391 0)
(105.9630293 -1.018335335 0)
(105.9266653 -1.230286196 0)
(105.8472454 -1.429962107 0)
(105.6794482 -1.605106789 0)
(105.3531876 -1.757032517 0)
(104.8083311 -1.881881808 0)
(103.8532285 -1.969607101 0)
(97.66032873 -2.017621492 0)
(106.2253344 -0.1096226839 0)
(106.2317434 -0.3250478512 0)
(106.2353873 -0.5431324828 0)
(106.2294024 -0.7408774795 0)
(106.1604125 -0.9208204913 0)
(106.1106093 -1.109051453 0)
(106.0117113 -1.284434269 0)
(105.8246111 -1.436630964 0)
(105.4725737 -1.566780955 0)
(104.9047602 -1.672933384 0)
(103.8897775 -1.744550459 0)
(97.88361883 -1.79929478 0)
(106.420195 -0.0999564308 0)
(106.4244388 -0.295782368 0)
(106.4230768 -0.4938662732 0)
(106.4094336 -0.6724492791 0)
(106.3368765 -0.8338014905 0)
(106.2734737 -1.001461045 0)
(106.1556062 -1.15617508 0)
(105.9500742 -1.288933813 0)
(105.5748709 -1.401297536 0)
(104.9863289 -1.4923044 0)
(103.9171247 -1.551236085 0)
(98.09878149 -1.610887103 0)
(106.5977682 -0.09139011715 0)
(106.5997011 -0.2699442628 0)
(106.5932447 -0.4503605335 0)
(106.5718437 -0.6123897169 0)
(106.4951863 -0.7573114969 0)
(106.4183081 -0.9072894566 0)
(106.2821549 -1.044460445 0)
(106.0592704 -1.160830962 0)
(105.6632871 -1.258648216 0)
(105.0557944 -1.337278027 0)
(103.9379858 -1.386159964 0)
(98.30637718 -1.448997314 0)
(106.7602507 -0.08393941712 0)
(106.7597815 -0.2475574633 0)
(106.7482375 -0.4126342733 0)
(106.7191307 -0.5606221322 0)
(106.6379221 -0.691193661 0)
(106.5478689 -0.8261519956 0)
(106.394056 -0.9482185925 0)
(106.1550771 -1.051202793 0)
(105.7403839 -1.137104123 0)
(105.1153511 -1.20560599 0)
(103.9541906 -1.246433864 0)
(98.50771866 -1.310875898 0)
(106.909637 -0.07760592535 0)
(106.9067261 -0.2285992217 0)
(106.8901647 -0.3806154772 0)
(106.8535048 -0.5170321907 0)
(106.7674694 -0.6351714169 0)
(106.6646668 -0.7575222628 0)
(106.4939892 -0.8665722624 0)
(106.2398432 -0.958938436 0)
(105.8082816 -1.035166562 0)
(105.1668462 -1.095493523 0)
(103.9668589 -1.129938709 0)
(98.70463 -1.194684119 0)
(107.0486125 -0.07236460233 0)
(107.0431948 -0.2129917131 0)
(107.0216695 -0.354171155 0)
(106.9776244 -0.4812917309 0)
(106.8860893 -0.5889252427 0)
(106.7709692 -0.7008151037 0)
(106.5844701 -0.799226362 0)
(106.3156277 -0.8829612813 0)
(105.8688251 -0.9515065894 0)
(105.2119443 -1.005408285 0)
(103.9770399 -1.035070948 0)
(98.89656014 -1.099232428 0)
(107.1771126 -0.06824207027 0)
(107.1692816 -0.20074987 0)
(107.1429421 -0.3332096198 0)
(107.0917675 -0.4536423687 0)
(106.9958755 -0.5520303203 0)
(106.8688306 -0.6554926271 0)
(106.667545 -0.746429408 0)
(106.3844243 -0.8221660427 0)
(105.9236621 -0.8849262644 0)
(105.252113 -0.933903797 0)
(103.9859222 -0.9601421471 0)
(99.08072067 -1.023125811 0)
(107.30516 -0.06507985418 0)
(107.2945221 -0.1915707924 0)
(107.2631518 -0.3174725813 0)
(107.2041234 -0.431844354 0)
(107.099388 -0.5243489014 0)
(106.9600735 -0.6214991676 0)
(106.7444007 -0.7071042525 0)
(106.4480075 -0.7760287516 0)
(105.9741973 -0.8344605576 0)
(105.2885349 -0.8797522605 0)
(103.9943796 -0.9035653792 0)
(99.25552678 -0.9649762627 0)
(107.4037893 -0.06334842426 0)
(107.3913598 -0.1862577312 0)
(107.3561165 -0.3079217011 0)
(107.2921775 -0.4212560742 0)
(107.19608 -0.5051877854 0)
(107.0462528 -0.5981603185 0)
(106.8167381 -0.6805179204 0)
(106.5077698 -0.7439071104 0)
(106.0216236 -0.7993371247 0)
(105.3222137 -0.8420495685 0)
(104.0029112 -0.8643202053 0)
(99.42093504 -0.9237365288 0)
(107.5912081 -0.06150035093 0)
(107.5748955 -0.1817849393 0)
(107.5321488 -0.3002960653 0)
(107.4545671 -0.4081201669 0)
(107.285928 -0.4953762104 0)
(107.1248965 -0.5856983378 0)
(106.8830721 -0.6669012158 0)
(106.5649771 -0.7253088949 0)
(106.0669719 -0.7789452716 0)
(105.3540979 -0.8200912083 0)
(104.0119754 -0.8418247668 0)
(99.57654735 -0.8991126207 0)
(92.96092054 -9.23857994 -2.496818523e-19)
(95.40459256 -10.4561042 4.165236689e-19)
(94.60603379 -7.356853258 2.275982744e-19)
(93.06264633 -9.002387229 -3.773110115e-19)
(96.43357166 -8.06236902 2.444550357e-19)
(95.4335212 -10.16520997 1.784549995e-19)
(93.32062985 -9.158098731 -2.183629943e-19)
(94.09138668 -9.869040848 2.598886958e-21)
(91.40885148 -10.95634985 4.787057363e-19)
(91.1292739 -10.20402205 0)
(98.63819116 -10.32847043 1.709738432e-19)
(91.09000969 -10.15051162 2.401446354e-19)
(90.36988789 -10.15740616 -5.032626148e-19)
(82.05411633 -10.17706897 2.692542839e-19)
(91.45731393 -11.01881082 -9.634508152e-19)
(94.24769527 -9.952845023 2.284315211e-19)
(90.05499632 -10.94993138 2.846209927e-19)
(44.74834517 -8.047026894 -5.342605255e-20)
(90.39410749 -10.20750769 5.16126189e-19)
(90.01432591 -10.88670557 0)
(86.16459797 -28.77226358 1.604731739e-19)
(91.49312226 -10.5902014 0)
(93.04285508 -10.24928665 -1.422712385e-22)
(93.4951561 -10.52934089 6.473262144e-20)
(92.50531327 -9.871897071 3.455834899e-22)
(92.90334876 -10.15389098 -2.716914124e-19)
(91.45677571 -10.52431211 2.648955948e-19)
(90.94150577 -9.852779379 -5.368398985e-19)
(92.01110895 -9.504000583 -2.295635782e-21)
(92.37928672 -9.778606542 -2.814245242e-19)
(91.89029263 -9.41165367 2.914847036e-19)
(90.88389486 -9.809050746 -2.687637549e-19)
(90.48335165 -9.848706735 -5.627833304e-19)
(90.54117839 -9.888984828 2.817603589e-19)
(93.65955657 -10.6184113 -1.886566513e-19)
(94.16880277 -10.85519261 2.044171895e-21)
(92.66742088 -11.84969051 6.309192519e-20)
(92.54404994 -12.08395238 7.930735681e-18)
(88.87153649 -24.29891774 -2.339429355e-19)
(87.50618263 -26.97147127 -7.006200758e-20)
(90.70836017 -10.49979948 -1.392243019e-18)
(78.40077507 -27.09081009 -3.096273392e-19)
(86.9820986 -27.19371799 -1.494847126e-20)
(79.9017547 -27.23545077 0)
(90.73832579 -10.5734632 0)
(87.04686393 -28.75153431 0)
(90.71325314 -27.69625548 -3.422324418e-20)
(98.44438773 -8.053411952 1.784975651e-19)
(98.20849429 -9.815934241 -3.073004973e-19)
(95.80369353 -10.23860332 0)
(96.9532343 -10.65992825 2.015455262e-19)
(81.82863152 -9.24339432 2.009258173e-19)
(79.65206677 -9.853359398 -5.22021432e-19)
(91.37518178 -10.82481474 2.339499044e-19)
(92.7473447 -10.66625954 1.596581221e-19)
(92.95703415 -10.83302852 8.479674718e-19)
(48.54598554 -8.299324281 -2.320544717e-19)
(73.25917538 -12.00280411 -2.019603308e-19)
(90.27079622 -9.619698554 1.613910841e-18)
(90.53147161 -10.01712045 -5.126885975e-19)
(91.67361344 -10.98684933 -4.380589311e-18)
(94.21127814 -10.97979631 -1.923864375e-18)
(94.64664315 -11.30612663 -2.301794857e-19)
(93.03416642 -10.88727114 -2.129210247e-19)
(93.30003439 -11.03767912 4.232014067e-19)
(91.70726546 -11.25805671 0)
(90.87317623 -27.37988566 1.235485702e-19)
(90.30747321 -11.21432145 1.419555368e-19)
(62.12400757 -20.91000698 2.011779636e-19)
(86.88447358 -19.7933441 0)
(88.8413896 -23.80185513 2.969524169e-20)
(87.48056555 -11.5861662 0)
(90.57564928 -10.36374224 0)
(90.07409435 -10.83777455 1.591587128e-21)
(92.49125388 -10.464692 -4.583545073e-19)
(92.67835515 -10.61440801 0)
(91.44785961 -10.766028 1.198591476e-18)
(91.35006009 -10.38779802 -2.533371846e-19)
(92.2529769 -10.26357333 0)
(92.43124299 -10.40410872 2.288528357e-19)
(90.31111038 -9.681777068 -8.162851836e-19)
(90.63717354 -10.01496729 0)
(91.78578418 -11.34617423 0)
(93.39772566 -11.07529626 0)
(93.61153666 -11.11197403 5.323933378e-19)
(65.59524066 -20.54230459 -1.210553703e-18)
(63.85611016 -20.92217183 -2.059242101e-19)
(90.3587474 -11.34275175 -1.452109949e-19)
(66.99584741 -22.82469148 -1.161486363e-18)
(71.65973156 -23.0213251 0)
(88.50320994 -26.00129882 3.267949069e-20)
(90.63951479 -10.37815757 -1.066936754e-18)
(78.85385101 -27.4494637 0)
(84.82368761 -27.60556428 4.288093241e-21)
(67.48328371 -23.16155242 -2.430316035e-19)
(83.77617164 -27.6035945 5.686986545e-21)
(90.22409233 -10.79262749 0)
(92.01295033 -10.06860651 1.121460064e-21)
(92.19267439 -10.20846346 0)
(91.29456974 -10.35518501 -5.017054946e-19)
(91.07642592 -10.00359826 9.918839983e-19)
(91.79683821 -9.87549271 4.648891854e-19)
(91.95688816 -10.01219841 0)
(89.0506035 -10.05932916 6.007967951e-19)
(89.07788038 -10.02191051 -5.743590277e-19)
(90.37372662 -10.1078004 3.084206502e-20)
(90.11882271 -11.02832732 1.147912693e-18)
(90.43487032 -10.26868615 5.202279708e-19)
(89.09896576 -10.21330168 0)
(89.05940793 -10.12014282 0)
(89.99970357 -10.8211812 -1.110465344e-18)
(91.57027361 -9.695613632 -2.375248954e-19)
(91.74292064 -9.824365396 -5.852578782e-19)
(91.06691361 -9.975415983 -2.584412261e-19)
(90.7149918 -9.649844055 2.607801331e-19)
(91.33769878 -9.500136549 0)
(91.51140156 -9.642561926 2.379898757e-19)
(89.81761008 -9.861431851 1.168958959e-18)
(89.74296621 -9.816443883 0)
(90.42069997 -9.801718266 -2.780571192e-19)
(90.5906632 -9.928059879 -1.138425007e-18)
(89.93028678 -9.928548185 5.991878567e-19)
(89.88033656 -9.896113532 0)
(91.64190293 -11.49122019 -1.835695539e-18)
(92.75584803 -11.28785385 1.446386541e-18)
(92.80841394 -11.44992839 -3.334666867e-19)
(37.38290675 -13.97825863 0)
(89.97629993 -11.74535164 0)
(88.66290142 -25.6740648 1.553495635e-19)
(72.92517365 -22.82582986 1.219833938e-19)
(75.29645883 -22.36300553 -9.054012751e-19)
(89.42058719 -10.41655039 1.255595197e-18)
(89.41761435 -10.34790238 -3.118013618e-19)
(90.69081481 -10.43875329 2.729624207e-19)
(78.98775346 -27.26494375 3.792663873e-19)
(74.51762771 -26.18542178 0)
(75.2625634 -26.19612238 -2.015675954e-19)
(81.66648437 -27.4895669 -4.207172286e-20)
(90.74262532 -10.65085788 -5.73633431e-19)
(89.47416648 -10.56605887 4.929567919e-19)
(89.45330824 -10.49523507 1.435164299e-18)
(89.30306875 -28.65735007 -3.039940878e-20)
(88.34975117 -9.477122611 6.592061404e-19)
(88.35472096 -9.538461982 -1.663990845e-18)
(88.36817153 -9.905050259 1.780421689e-17)
(90.43377657 -10.05317234 -9.917332108e-19)
(89.21116234 -10.00074416 3.128121683e-18)
(89.41818771 -9.981713606 -7.297777653e-18)
(93.50868429 -11.12392243 4.792686977e-18)
(93.2175519 -11.37677653 -8.767951711e-19)
(81.36936073 -10.29031205 0)
(91.60396623 -11.17289535 2.467993599e-19)
(92.42152654 -11.1468028 2.316629438e-19)
(92.52138277 -11.21462623 -2.297108079e-19)
(90.20204963 -11.12761772 -2.877572796e-19)
(62.86818538 -21.32724097 2.179090657e-19)
(62.190219 -21.42596402 4.873230558e-18)
(45.95400694 -3.574491268 0)
(61.14247751 -16.64531732 -2.842105412e-20)
(65.63877607 -20.02469984 2.724892723e-19)
(89.31359686 -10.31439396 3.066078797e-19)
(89.19274993 -10.29338286 2.475294045e-18)
(90.49856645 -10.3286479 -1.583712523e-18)
(90.00720797 -10.81543271 -6.589183243e-20)
(88.53905065 -9.790251879 3.316034918e-19)
(88.64014905 -9.829195377 -3.339830438e-19)
(88.37799799 -9.628240266 1.006908564e-18)
(88.44137503 -9.722613547 1.674911543e-18)
(89.94717744 -9.999695484 -1.352623154e-18)
(89.93439073 -9.963519702 1.519262949e-19)
(90.61751505 -9.965026254 2.8405578e-19)
(88.79317811 -9.901708224 -2.184859966e-20)
(88.79562785 -9.90275416 2.448540223e-18)
(88.71856106 -9.856821686 3.323421603e-19)
(88.77842763 -9.879689796 -3.377603829e-19)
(92.62151684 -11.27144609 -2.291254979e-19)
(92.7648271 -11.34503809 4.469496879e-19)
(91.9888434 -11.47170736 0)
(66.53545149 -20.9458227 -1.322902903e-19)
(55.52323316 -18.4806855 2.404225352e-18)
(52.29758977 -17.32269936 -2.735306854e-18)
(56.62167473 -19.36724995 0)
(56.91188441 -19.11060067 -1.083595467e-18)
(65.44484239 -20.93459276 1.259032945e-18)
(90.56926665 -11.49709344 0)
(68.57307776 -22.82401827 1.019370844e-18)
(76.84960326 -24.62121468 -3.810729704e-20)
(75.70481968 -24.76593008 0)
(90.67407026 -10.39852269 2.157304881e-18)
(89.42149364 -10.31055038 -6.167850808e-19)
(89.3974962 -10.30380506 6.139911995e-19)
(79.25806337 -27.4704539 -4.305688935e-21)
(71.07022757 -24.50516766 0)
(71.5467896 -24.78663568 0)
(74.48528316 -24.66355533 1.85120864e-19)
(72.57899489 -24.5134594 5.555492545e-19)
(66.68496001 -23.22578732 -1.364239541e-18)
(70.78351997 -24.80717178 3.085516739e-19)
(82.7466837 -27.6623612 4.088407078e-20)
(74.85246068 -25.95354802 1.541549768e-19)
(76.32936051 -25.99207028 -4.687940716e-21)
(89.05780316 -10.71810543 0)
(89.48252773 -10.60423113 0)
(90.76188416 -10.719069 0)
(98.96321404 -3.530002223 3.039652489e-20)
(98.20862095 -4.228812026 1.293338125e-19)
(97.90557482 -4.493690835 7.849293704e-19)
(96.85053124 -5.400927221 2.800093241e-19)
(96.4499906 -5.745008419 4.089438062e-20)
(95.102045 -6.91291639 -8.764017349e-21)
(99.79072641 -3.878035131 -1.342912852e-18)
(99.20309746 -4.628883472 -4.600221679e-19)
(98.453732 -4.345419088 -6.240838986e-20)
(98.96708808 -4.911608486 0)
(98.14885593 -5.879863912 3.61490173e-19)
(97.17074162 -5.54391674 -6.601859647e-20)
(97.84035386 -6.249230739 0)
(96.80985644 -7.532455911 -5.058677878e-19)
(95.51331983 -7.096955004 -2.968874097e-19)
(95.4999341 -7.748249859 0)
(95.03291242 -8.413031101 2.654266996e-19)
(94.28539168 -8.106178289 -2.836278496e-19)
(93.49961327 -9.562809275 -1.296632285e-21)
(93.09498848 -10.01019665 -5.263997313e-19)
(92.68853672 -9.738185888 0)
(100.6586834 -4.037355031 -4.898875981e-20)
(100.2389244 -4.778242887 9.916956037e-20)
(99.4544246 -4.691178348 1.103823118e-19)
(100.0706198 -5.054512893 -9.930655487e-20)
(99.49439795 -5.989671208 -1.996454206e-19)
(98.47738167 -5.944377199 5.883027946e-20)
(99.28359248 -6.343381842 2.114441763e-19)
(98.64149308 -7.569315452 0)
(97.25928474 -7.60707792 0)
(97.43950288 -8.153538178 1.568727745e-20)
(97.18305659 -8.702480469 2.230834321e-19)
(96.37906237 -8.823702259 0)
(96.07798016 -10.70549772 -2.286556758e-19)
(95.94518484 -11.42673716 3.988505819e-19)
(95.16675775 -11.19301551 2.134951618e-19)
(101.4954472 -4.037424977 3.377784072e-21)
(101.2290007 -4.713853816 5.084915895e-19)
(100.4950167 -4.779225941 -3.734567861e-19)
(101.1150176 -4.96317016 4.166165141e-20)
(100.731208 -5.784919399 -7.92763652e-20)
(99.81912803 -5.963601817 9.175730941e-20)
(100.59597 -6.085999532 1.183019595e-19)
(100.2237817 -7.082644719 7.720062201e-20)
(99.07247537 -7.483418429 1.852608019e-19)
(100.1359492 -7.448066857 -1.391601879e-19)
(100.1696924 -8.570990536 1.081261402e-20)
(98.88038581 -9.557306505 1.510394605e-20)
(98.37152766 -8.910800295 2.255308836e-19)
(102.2567359 -3.912665084 1.069326109e-19)
(102.0957199 -4.506755575 1.391728418e-19)
(101.4595226 -4.672272792 -1.646829165e-19)
(102.0218058 -4.717583214 0)
(101.7576759 -5.391316411 0)
(101.009361 -5.699274669 7.909827557e-20)
(101.6618281 -5.628644615 0)
(101.38162 -6.363091244 0)
(100.5558001 -6.917451285 7.088706041e-20)
(101.3049423 -6.60891822 5.626656567e-20)
(100.9244964 -7.298367087 9.499518809e-20)
(100.4485597 -8.236424528 -2.164182118e-19)
(97.76692895 -7.288369134 -2.640952037e-21)
(102.9239952 -3.696927278 0)
(102.8195423 -4.203386239 -2.234625785e-20)
(102.2902624 -4.438127785 -2.060816518e-19)
(102.7653747 -4.377518619 0)
(102.5505771 -4.911995824 0)
(101.977182 -5.276341798 0)
(102.4646255 -5.092092505 1.010033621e-19)
(102.1831949 -5.624745792 1.084966906e-20)
(101.6104653 -6.174788353 0)
(102.1006984 -5.796410677 1.276780734e-21)
(100.8806671 -6.208153417 2.544239731e-20)
(100.9798753 -7.009331879 -1.944216946e-20)
(96.8882883 -6.03462805 3.21057519e-20)
(103.4958169 -3.429589563 0)
(103.4090544 -3.852294371 0)
(102.9784812 -4.118310904 7.625050487e-21)
(103.3598722 -3.99383086 0)
(103.1486392 -4.415085933 5.161533509e-21)
(102.7161439 -4.787543671 -5.005073005e-20)
(103.0576809 -4.552469686 8.513991659e-21)
(102.7437171 -4.946584759 -4.84632519e-21)
(102.3420554 -5.448590603 -1.086780126e-20)
(102.6455416 -5.069799904 4.075362772e-21)
(100.3989196 -5.286770448 4.793954767e-20)
(100.7783808 -5.961559019 -6.407423609e-20)
(96.27233073 -5.121530677 -4.812699055e-20)
(103.9791012 -3.140460549 0)
(103.8893431 -3.490703025 0)
(103.5385446 -3.761835387 0)
(103.8371337 -3.605277823 0)
(103.6067862 -3.937998983 0)
(103.274403 -4.292993689 0)
(103.5057115 -4.043900863 0)
(103.1504479 -4.341442111 0)
(102.8571473 -4.788385463 -5.407647564e-21)
(103.0237239 -4.431651618 0)
(100.100215 -4.541976864 0)
(100.2865787 -5.084627086 -2.539122688e-20)
(96.23384095 -4.444962685 0)
(104.385514 -2.849467576 0)
(104.280761 -3.139607915 0)
(103.9947822 -3.401377703 0)
(104.2217929 -3.232666829 0)
(103.964177 -3.497655559 0)
(103.7044239 -3.824128724 0)
(103.8518302 -3.580481872 0)
(103.4521597 -3.808895659 0)
(103.2343917 -4.201568997 0)
(103.2900174 -3.875088261 0)
(99.96213829 -3.93197835 0)
(100.0603287 -4.378454268 0)
(96.40956532 -3.880315596 0)
(104.7270992 -2.569139883 0)
(104.6010672 -2.810192026 0)
(104.3668798 -3.054938143 0)
(104.5337082 -2.886246963 0)
(104.2468357 -3.099538474 0)
(104.0410028 -3.394096431 0)
(104.1236502 -3.165330058 0)
(103.6793794 -3.344013297 0)
(103.5149827 -3.686632158 0)
(103.479981 -3.39332268 0)
(99.88109613 -3.422942532 0)
(99.93682657 -3.796272305 0)
(96.63474403 -3.401003722 0)
(105.0147832 -2.306570253 0)
(104.8647896 -2.507778044 0)
(104.6718033 -2.731940274 0)
(104.78863 -2.570404049 0)
(104.4736163 -2.744021288 0)
(104.3081596 -3.006718227 0)
(104.3406717 -2.797081709 0)
(103.8529409 -2.939145179 0)
(103.7271597 -3.237471095 0)
(103.6168553 -2.976215996 0)
(99.8502214 -2.992768519 0)
(99.86896814 -3.3087004 0)
(96.8788412 -2.992541609 0)
(105.2577879 -2.065372236 0)
(105.0834562 -2.234193429 0)
(104.9232894 -2.436661347 0)
(104.998772 -2.286168864 0)
(104.6581813 -2.429085858 0)
(104.5232731 -2.661590923 0)
(104.5166895 -2.47250526 0)
(103.9869131 -2.586876245 0)
(103.889702 -2.846420667 0)
(103.7162774 -2.614935555 0)
(99.86148466 -2.626050661 0)
(99.84942245 -2.895632285 0)
(97.12620186 -2.64186454 0)
(105.4638767 -1.846752917 0)
(105.2661072 -1.98930627 0)
(105.1321858 -2.170314533 0)
(105.1735293 -2.0328053 0)
(104.8103957 -2.151762516 0)
(104.6989489 -2.356356417 0)
(104.6613529 -2.18774677 0)
(104.0911347 -2.280672346 0)
(104.0154417 -2.506241219 0)
(103.7889187 -2.302020318 0)
(99.90632328 -2.311753168 0)
(99.86987366 -2.542924358 0)
(97.36881816 -2.339186773 0)
(105.6396124 -1.650807054 0)
(105.4199031 -1.771983951 0)
(105.3070177 -1.932448531 0)
(105.3202115 -1.808706059 0)
(104.9373975 -1.908774592 0)
(104.8442783 -2.087924817 0)
(104.7815051 -1.938906019 0)
(104.1727309 -2.014990409 0)
(104.1134209 -2.210648865 0)
(103.8422492 -2.031305538 0)
(99.97682958 -2.041622152 0)
(99.92182744 -2.240356863 0)
(97.6031551 -2.077357596 0)
(105.790317 -1.476938007 0)
(105.5504649 -1.580666397 0)
(105.4545297 -1.721784241 0)
(105.4444729 -1.611942207 0)
(105.0444026 -1.696948729 0)
(104.9658514 -1.853017908 0)
(104.8821698 -1.722398657 0)
(104.2370136 -1.785150495 0)
(104.1902485 -1.95434002 0)
(103.8816281 -1.797687383 0)
(100.0661656 -1.80929962 0)
(99.99764501 -1.980213185 0)
(97.82858317 -1.850920879 0)
(105.9203558 -1.324138402 0)
(105.6622401 -1.413587386 0)
(105.5800187 -1.536694264 0)
(105.5507082 -1.440458779 0)
(105.1353309 -1.51330892 0)
(105.0685116 -1.648505889 0)
(104.967166 -1.534967004 0)
(104.288009 -1.587084422 0)
(104.2508736 -1.732800134 0)
(103.9109868 -1.596794681 0)
(100.1683458 -1.609850028 0)
(100.0907235 -1.756519801 0)
(98.04571977 -1.655384975 0)
(106.0333301 -1.191226183 0)
(105.7587495 -1.268979993 0)
(105.6876807 -1.375391737 0)
(105.6423351 -1.292268958 0)
(105.2131819 -1.355208721 0)
(105.1559206 -1.471480112 0)
(105.0394349 -1.373766031 0)
(104.3288068 -1.417343697 0)
(104.2990623 -1.542110619 0)
(103.9332629 -1.424951667 0)
(100.2782834 -1.439406579 0)
(100.1952791 -1.564652216 0)
(98.25513967 -1.487147237 0)
(106.1322487 -1.077051396 0)
(105.8428068 -1.145228955 0)
(105.7808335 -1.236146413 0)
(105.7220495 -1.1655966 0)
(105.2803103 -1.220425985 0)
(105.2308875 -1.31940505 0)
(105.1012861 -1.23643883 0)
(104.3617191 -1.273107714 0)
(104.3376997 -1.378990516 0)
(103.9505079 -1.27911792 0)
(100.3920915 -1.294629017 0)
(100.3064975 -1.40092859 0)
(98.45785615 -1.34329612 0)
(106.2195716 -0.9805148205 0)
(105.9167233 -1.040887766 0)
(105.8621548 -1.11737755 0)
(105.7920654 -1.058886983 0)
(105.3386767 -1.107137004 0)
(105.2956524 -1.190152427 0)
(105.154635 -1.121085404 0)
(104.3884218 -1.152201929 0)
(104.3689205 -1.240764979 0)
(103.9639705 -1.156973303 0)
(100.5069968 -1.172966264 0)
(100.4208058 -1.262112358 0)
(98.65579069 -1.221740335 0)
(106.2974225 -0.9005316373 0)
(105.9824748 -0.9546594767 0)
(105.9338545 -1.017681411 0)
(105.8542853 -0.9707767453 0)
(105.3900158 -1.013813063 0)
(105.3521059 -1.081991251 0)
(105.2011846 -1.026133154 0)
(104.4103441 -1.052958996 0)
(104.394294 -1.125422424 0)
(103.9746609 -1.056849492 0)
(100.6208649 -1.07322436 0)
(100.5356399 -1.146010165 0)
(98.84920088 -1.121222658 0)
(106.3677687 -0.8360027791 0)
(106.0418321 -0.8853554789 0)
(105.9978478 -0.9357900024 0)
(105.9104066 -0.9000263378 0)
(105.4358783 -0.9390432165 0)
(105.4019396 -0.9934336966 0)
(105.2424639 -0.9501100606 0)
(104.4289015 -0.9737460154 0)
(104.415247 -1.031343597 0)
(103.9837664 -0.9770987967 0)
(100.7318312 -0.9941583213 0)
(100.6489466 -1.051589407 0)
(99.03554891 -1.040416415 0)
(106.4325234 -0.7862611021 0)
(106.0963521 -0.8320213219 0)
(106.0558616 -0.8705571781 0)
(105.9618991 -0.8456114981 0)
(105.4775516 -0.8816017364 0)
(105.4466447 -0.9231006428 0)
(105.2797245 -0.8917181011 0)
(104.445241 -0.9130056815 0)
(104.4331588 -0.9568825893 0)
(103.9922734 -0.9160553305 0)
(100.8385948 -0.9339039997 0)
(100.7589519 -0.9774048627 0)
(99.21272841 -0.9778966898 0)
(106.4931118 -0.7506868466 0)
(106.1473313 -0.793891372 0)
(106.1093818 -0.8210903573 0)
(106.0099987 -0.8067150705 0)
(105.5161122 -0.8405404107 0)
(105.487444 -0.8698316069 0)
(105.3139984 -0.8499720847 0)
(104.4601697 -0.8696287293 0)
(104.4490779 -0.9005649766 0)
(104.0007458 -0.8725413251 0)
(100.9405064 -0.891013648 0)
(100.8645534 -0.9215908289 0)
(99.38049236 -0.9324871335 0)
(106.5508563 -0.728755484 0)
(106.1959202 -0.7703532242 0)
(106.1596596 -0.7866597248 0)
(106.0558014 -0.7826913835 0)
(105.5525578 -0.8151389122 0)
(105.5253828 -0.8327481583 0)
(105.3462658 -0.8241460124 0)
(104.4744437 -0.8429407464 0)
(104.4637674 -0.8614145577 0)
(104.0096415 -0.8459043734 0)
(101.037155 -0.8649229206 0)
(100.96517 -0.882926394 0)
(99.53893929 -0.9036914294 0)
(106.6137727 -0.719600738 0)
(106.2486381 -0.7605631641 0)
(106.2077797 -0.7666906973 0)
(106.1054118 -0.7726189149 0)
(105.5918981 -0.8041545108 0)
(105.5614133 -0.8111521209 0)
(105.3811633 -0.8129185149 0)
(104.4911097 -0.83192751 0)
(104.4779865 -0.8388099857 0)
(104.021346 -0.8355629859 0)
(101.138719 -0.856283582 0)
(101.0601702 -0.8609430223 0)
(99.70398743 -0.8909809807 0)
(92.55954147 -9.647731375 0)
(92.18469022 -9.378309424 -2.807150657e-19)
(92.58345882 -8.999125297 2.59051594e-19)
(94.94876838 -11.10552658 4.426954163e-19)
(94.46479125 -10.81850751 3.472501317e-18)
(94.89594448 -10.28664638 4.293026228e-19)
(90.74797812 -20.41208084 -1.554852667e-19)
(94.0516592 -7.985002985 2.870847988e-19)
(93.39220278 -7.616539582 6.115600932e-19)
(94.18642484 -7.126353621 -3.183749864e-19)
(92.34600792 -8.521117757 1.614578301e-19)
(93.12596137 -7.826040047 3.067644381e-19)
(93.79371601 -8.231336539 0)
(96.08966732 -8.777734508 0)
(95.29949676 -8.504175026 2.499386605e-19)
(95.97497913 -7.908507133 -1.316170463e-19)
(94.47458775 -9.731723782 -2.614272335e-19)
(95.08005076 -8.790987941 2.524688384e-19)
(95.91125129 -9.09406467 0)
(94.03344234 -8.357233672 5.712174884e-19)
(94.80275716 -8.696336747 0)
(94.16443621 -9.600704912 0)
(93.69526832 -10.36694254 0)
(93.23762487 -10.10088419 2.905756245e-21)
(93.64115555 -9.652960018 -4.792321582e-19)
(91.37459647 -10.9064621 -4.661140124e-19)
(92.14764475 -10.89648557 0)
(92.20247577 -10.95169439 4.490219492e-19)
(91.54680232 -10.17131583 -4.748957422e-19)
(91.59951361 -10.22343758 2.770121039e-21)
(91.17721214 -10.25934485 0)
(81.33925678 -8.091665099 1.480517984e-19)
(81.8002144 -9.174652409 8.578868934e-21)
(97.3999727 -10.60608707 0)
(75.88012231 -11.62863189 0)
(81.71410458 -11.58865448 0)
(91.26024543 -19.54408966 1.406290942e-19)
(92.43744432 -17.28927133 1.409898104e-19)
(91.06751493 -10.09579291 -2.994913432e-20)
(91.45947827 -10.06407448 4.687788504e-19)
(91.49891057 -10.11807912 -3.527770565e-21)
(91.28316462 -9.443875316 -4.786391445e-19)
(90.66808426 -9.593056495 0)