/*--------------------------------*- C++ -*----------------------------------*\
| =========                 |                                                 |
| \\      /  F ield         | OpenFOAM: The Open Source CFD Toolbox           |
|  \\    /   O peration     | Version:  v2012                                 |
|   \\  /    A nd           | Website:  www.openfoam.com                      |
|    \\/     M anipulation  |                                                 |
\*---------------------------------------------------------------------------*/
FoamFile
{
    version     2.0;
    format      ascii;
    class       volScalarField;
    location    "2.84";
    object      p;
}
// * * * * * * * * * * * * * * * * * * * * * * * * * * * * * * * * * * * * * //

dimensions      [0 2 -2 0 0 0 0];


internalField   nonuniform List<scalar> 
3259
(
807.677481
812.1454309
821.3834075
834.4555279
865.1230299
890.8479121
923.3117925
973.5625842
1021.622034
1071.30589
1121.972154
1209.094018
759.0141096
761.8937663
768.0467013
776.2668751
800.8520214
816.1982963
832.8937047
865.885694
890.4930269
908.2442589
908.7902554
911.9656906
707.2296014
708.4604111
711.1990638
714.3965659
733.2570506
737.7733809
739.9900023
754.5913652
756.8242386
746.253023
701.7337355
577.1799882
653.7275192
653.4626982
653.0013556
651.5938159
665.1148584
660.6441169
651.318209
648.3544696
630.1235525
597.526252
531.6583784
415.5142701
599.8555879
598.3656217
595.2779549
590.1267234
598.6825305
587.2387651
569.1536906
553.3580132
516.7261487
466.8654579
393.1905718
286.1900836
546.7936464
544.3602291
539.2501244
531.2769899
535.7012801
519.2697345
495.4012482
472.6517154
424.574691
363.5433546
285.1912529
193.1485419
495.4561749
492.3436214
485.7774803
475.8433894
477.1576474
457.6210975
430.5108506
404.7006084
355.9469145
293.5979869
215.8876221
135.7224512
446.5072699
442.963166
435.4714916
424.3419359
423.5018501
402.3959901
373.9224075
347.5338777
300.8495883
243.9852417
176.7558673
108.2244484
400.391441
396.6318391
388.6818729
377.0080905
374.7599561
353.2672121
324.9262207
299.2753167
255.9226179
205.1478369
147.6067349
88.53402091
357.3629216
353.5593204
345.5236017
333.825549
330.7259208
309.7003223
282.5892016
258.2802765
218.8183631
173.8963756
124.1170243
73.78673907
317.5122177
313.7923351
305.9439043
294.6010137
291.0887745
271.087824
245.8030796
223.2533136
187.7782356
148.2309035
105.0927865
62.02851993
280.8030247
277.2584042
269.7881682
259.0589482
255.462369
236.8367342
213.6445814
193.1006926
161.4990509
126.8025037
89.41177755
52.42772318
247.1112099
243.8044738
236.8405702
226.8908003
223.4469134
206.389753
185.4047446
166.9461344
139.0038638
108.6610523
76.27454682
44.45136743
216.2545496
213.2251309
206.8472304
197.7736925
194.6442115
179.2400593
160.4710155
144.085664
119.5468182
93.1135873
65.10600571
37.72597805
188.0102828
185.2798473
179.531047
171.3806629
168.6791942
154.9414543
138.3343533
123.9558761
102.5543028
79.63877654
55.49433206
31.98292255
162.130108
159.7076841
154.6051309
147.3907499
145.1946298
133.0928005
118.5586509
106.0945915
87.57438218
67.83617015
47.12659687
27.02114263
138.354325
136.2406406
131.7843473
125.4966904
123.8607442
113.3395683
100.7737759
90.11958443
74.24680642
57.39388073
39.76211246
22.68685594
116.4203845
114.6108957
110.7902189
105.4069712
104.3706696
95.36418159
84.67611548
75.70218139
62.27541176
48.05994315
33.21110165
18.85924856
96.06261937
94.55071039
91.34978464
86.83900905
86.44702951
78.87716608
70.01334738
62.5725322
51.4160272
39.62685727
27.32072691
15.44188868
77.0414594
75.81765676
73.2185593
69.54896772
69.81310526
63.61273437
56.472289
50.51637616
41.4645758
31.92179689
21.96291311
12.35450387
59.03793417
58.10122334
56.09328474
53.22382787
54.27194352
49.3309286
43.73178459
39.32845116
32.23730949
24.79457203
17.02422384
9.527107232
42.06039347
41.38564921
39.94997499
37.90904842
39.37018691
35.81104466
31.69927019
28.79038176
23.56441195
18.10999671
12.40468673
6.898826081
24.96533057
24.62321788
23.77306671
22.5469704
25.16706173
22.8548581
20.16900154
18.72923412
15.29187664
11.74137435
8.012984699
4.415190316
11.47024693
11.20421857
10.79911805
10.20531828
11.28880219
10.15259819
8.85978925
8.986528856
7.27700934
5.562108713
3.755974889
2.031466599
1226.239964
941.9597192
1172.84048
1222.840671
962.4715656
948.3951978
1191.544423
1089.621203
1129.636925
1277.829629
647.0577627
1286.253977
1292.018896
1033.604059
1117.750088
1069.962714
1123.520646
956.235942
1283.595738
1134.588434
-243.7380461
1206.220737
1170.056614
1108.884172
1241.174393
1188.717304
1215.273716
1338.046287
1304.687579
1257.544433
1319.890939
1346.837641
1351.476637
1342.183403
1086.573856
1018.639446
952.076601
975.4869643
509.9937833
224.9401566
1221.620835
-230.7911636
184.1764011
-144.6669024
1213.194774
-180.443174
151.7224642
749.9770576
687.2746993
911.211012
794.37651
812.667182
991.409093
1164.05425
1149.370599
1115.130312
909.263139
708.2315038
1385.115093
1306.81467
793.3480828
997.5292137
951.0160899
1102.803039
1061.196864
1070.92041
192.7400974
1078.516586
459.2032832
739.9153685
548.2635624
586.6667506
1253.007902
1168.458918
1190.274405
1160.61099
1171.866448
1239.61334
1226.703828
1200.145622
1378.047024
1316.390856
1049.663115
1045.837148
998.3158204
633.4789279
551.5335416
1058.983254
298.9540409
442.281793
349.4849205
1242.315332
-382.1481055
40.48361034
247.9380056
-1.812513593
1170.938027
1261.436638
1236.099453
1249.437071
1305.323624
1292.926308
1269.97018
1297.246687
1306.088852
1299.461047
1110.733087
1275.088313
1282.249041
1289.460276
1142.637076
1324.465522
1301.188697
1313.052278
1371.835081
1355.290944
1332.769948
1355.839881
1366.621554
1360.993749
1333.351773
1337.20338
1345.961708
979.4761069
992.5415105
962.3818458
675.1760056
987.0417359
389.846215
505.9445087
616.9722556
1228.078969
1232.864232
1228.380165
-295.0959086
-137.1612273
-117.0562292
-132.9448773
1202.580067
1209.700588
1220.459268
-37.79684768
1401.927449
1397.922555
1310.704049
1303.472893
1309.744449
1305.044694
981.4448004
1001.679952
1084.119288
1088.728604
1082.633051
1065.462173
1096.429177
408.9032395
397.6423553
1050.993272
939.9356758
727.9631437
1254.698237
1270.451745
1264.902915
1155.414246
1372.027802
1359.250145
1392.858162
1384.325557
1321.287401
1328.580843
1324.570463
1331.635877
1324.723807
1348.610228
1339.907134
1045.608247
1023.578534
1025.750542
596.3686853
603.7851138
653.8969422
553.1992079
557.9218175
545.7857711
1037.490932
390.8424224
343.5449553
279.8336228
1234.545403
1236.481158
1242.402153
-361.3756335
126.6002689
71.32343993
232.9470354
224.173279
234.1210459
55.13187642
-75.21222875
-56.03510879
44.1059045
1184.300727
1199.764935
1192.065367
999.3795868
1039.48537
1053.469096
1096.506118
1111.213932
1157.434008
892.3788649
915.0829293
1009.386961
922.50871
942.5774642
1058.766592
948.1435051
959.5427212
1109.777048
1069.937952
1069.011605
1155.21277
1160.95875
1180.650233
1232.541454
782.0784304
788.4883399
884.6097482
789.8254903
788.6809885
904.9918959
785.6289059
763.5091726
910.927582
853.9414626
846.3489189
919.5511067
872.4858894
858.0435845
926.1715997
674.0618793
664.9237336
757.1262982
660.8519613
642.3882654
751.1030282
633.165796
591.2040396
717.7703175
571.1131094
490.0205403
626.7066456
451.2379282
575.8416898
552.4752358
635.462658
543.5718602
511.05504
607.9241202
497.5365883
446.1142868
552.3604146
425.0671347
345.7731971
448.8705319
316.2261793
491.5346112
457.8289707
526.7268701
445.0534854
402.293324
481.1811381
386.2468762
331.241819
414.4085902
308.7426063
240.5528963
316.1351999
212.7108236
420.5838697
385.2430109
438.0066193
371.630397
325.2307319
379.981215
308.2544361
251.6466124
307.739241
229.6283922
171.6657153
219.7772518
147.0359087
360.9026842
326.4636458
369.4163345
313.5675481
270.7570135
310.3235383
255.2527125
204.0711507
237.7747235
185.0156959
133.8220306
159.9206983
113.6163655
310.5813095
278.2164055
313.5123448
266.3395064
227.7519089
259.0457172
214.0512621
169.8926526
194.6704819
154.3806405
109.378594
127.2078972
92.79830385
267.9059146
238.2027609
267.5199205
227.4661002
193.154259
218.4160353
181.121245
142.7648031
162.508926
129.5224901
91.11914216
104.3875522
77.14989927
231.49886
204.6414304
229.2666157
195.0473462
164.7551779
185.5415417
154.2053775
120.8734164
136.8614771
109.4977878
76.62363689
87.19312168
64.74033607
200.2188991
176.1840249
197.0936508
167.6802985
141.053793
158.4370572
131.8195235
102.8675696
116.0503557
93.06664312
64.81943769
73.45161869
54.65805233
173.1386581
151.8061598
169.7415499
144.3170296
120.9928935
135.7313317
112.9295918
87.8090616
98.85646466
79.35504757
55.02690015
62.20385547
46.31572841
149.5134862
130.7183651
146.2524385
124.1598721
103.8055842
116.4518425
96.78806882
75.03306429
84.42269516
67.73813425
46.77721319
52.83481622
39.30606502
128.7492561
112.3085812
125.8858333
106.597849
88.91835878
99.88741836
82.83683684
64.05397858
72.13583462
57.76972907
39.73636996
44.91457489
33.33851371
110.3609004
96.09138356
108.0654026
91.15196075
75.88915313
85.50173788
70.64854834
54.50874852
61.54534615
49.11629147
33.6563402
38.13457036
28.19750478
93.94755733
81.67679052
92.33193753
77.44096234
64.37241527
72.87968795
59.89159367
46.11869255
52.31214675
41.52027831
28.34730315
32.263033
23.71869972
79.16984399
68.74573975
78.31624488
65.15525296
54.09123342
61.69595808
50.30149171
38.66560183
44.1751264
34.78145542
23.66188333
27.12254763
19.77424549
65.74120646
57.03315419
65.71262138
54.03820209
44.81722061
51.68634436
41.6605488
31.97201439
36.9272182
28.73863696
19.48195801
22.57360886
16.26233741
53.43656201
46.32121654
54.26921966
43.87755462
36.36070443
42.63322896
33.78832604
25.89172055
30.39967464
23.25885838
15.710672
18.50430956
13.09940052
42.05369331
36.41609613
43.77669235
34.48576099
28.55752986
34.35466317
26.52972735
20.29895649
24.4524326
18.22522533
12.26391254
14.82161565
10.21302283
31.37036682
27.13453097
34.04405592
25.68930905
21.26091365
26.69140194
19.74668386
15.0823104
18.96369826
13.53470553
9.068381578
11.44415374
7.540311219
21.20600516
18.31192619
24.89192579
17.33032349
14.33435451
19.49973539
13.31053088
10.14133169
13.82503317
9.094310025
6.058354127
8.30091552
5.025250653
11.40153603
9.800476828
16.1603773
9.265220075
7.648062738
12.64539658
7.098103433
5.380963874
8.937987582
4.817856908
3.175449675
5.327690905
2.619167804
2.143686959
1.755792403
7.703125013
1.627829608
1.237826955
5.995788405
1.120531659
0.9744777373
4.203338257
1.039474186
0.4671896752
2.46712088
0.2245367573
1248.851651
1295.744505
1270.611194
946.343898
996.9468094
992.4955634
656.7807314
1182.986086
1261.878456
1222.780554
1310.162248
1273.088213
1192.23796
949.6177932
1039.633975
1015.693044
1055.750058
1043.378966
949.5705265
1163.669424
1074.25264
1090.921886
1103.242628
1162.279382
1142.266471
1140.740734
1136.294695
1124.211689
1272.008031
1263.344745
1268.993503
507.4601015
717.8577937
755.0575679
661.0486398
464.530798
637.810837
625.1047902
1293.447561
1287.7182
1280.254893
1363.025614
1379.082959
1286.445264
1310.783124
963.6592056
992.3328332
952.7036397
1111.648861
1097.887017
1104.055169
1014.513259
1018.025532
1082.416154
936.599373
907.8427606
1052.474487
1200.454361
1190.321381
1195.708311
1150.570407
1158.701339
1178.438523
1111.393601
1146.057717
1130.111822
1224.249995
1233.118732
1250.206877
1197.281659
1215.417012
1206.746499
1223.277306
1218.382124
1209.735084
1333.693829
1325.395433
1329.45781
1289.206419
1298.097064
1313.775137
1266.565748
1282.404093
1273.51118
1349.074657
1358.870079
1329.273157
1344.315782
1334.696423
1355.620425
1350.387931
1342.073561
1063.837347
1060.306855
1099.454412
1006.924833
1046.543415
1041.115185
464.613572
506.3622533
541.781601
255.1630657
304.4680679
268.3505427
138.0732875
176.0761293
215.2238809
-143.4950285
11.13915908
732.6555297
788.1899259
800.6877888
762.8281545
773.8595977
712.6866469
917.4152158
823.3842495
799.0704842
785.8290527
822.7677006
833.1903197
892.8664127
801.6776535
745.7060251
932.3175188
861.925832
779.4357161
1158.927031
1148.163236
1153.31045
1138.032688
1142.902715
1153.820058
1119.392886
1131.423195
1126.794776
731.2241523
717.5067035
721.4270076
654.8090193
682.0779274
739.6989456
1391.684359
1397.439591
1391.753473
947.6681935
949.5363982
630.9259015
983.0520129
987.0831025
993.5313231
952.5276163
972.516642
968.0721655
1089.745131
1093.287535
1106.780432
1062.648948
1078.636434
1075.891423
307.5850055
760.6780232
863.1031368
822.8218525
652.2034749
870.9894538
683.7609599
735.9402197
687.3673451
1181.028836
1185.35771
1195.296428
1164.534136
1175.139783
1170.398049
1184.619703
1179.842361
1169.155191
1235.715274
1226.859814
1231.016629
1218.237491
1222.424096
1231.385646
1204.634411
1213.627867
1208.770541
1370.0323
1376.86733
1385.173613
1030.129075
1026.793598
1045.204824
989.0900209
1007.775012
1014.424744
417.6029915
379.6058974
396.929823
310.5510658
347.1377276
386.0430063
56.32579922
107.3886891
84.13672967
1253.469256
1258.143529
1266.661116
1240.416503
1249.431367
1244.444706
1259.558659
1254.364793
1245.027677
1301.695935
1294.540651
1299.115676
1285.618802
1289.931369
1297.494246
1274.784444
1282.524697
1277.448912
1316.973442
1321.110601
1329.215585
1305.213394
1313.108628
1308.602523
1321.017067
1317.231261
1309.354868
1366.0901
1358.430933
1364.033681
1348.250261
1353.097642
1360.656684
1337.284009
1345.314764
1340.177641
428.7473601
471.0243897
434.6851155
529.2347966
502.2359762
466.2685243
574.7905103
545.9948565
578.1732289
-95.74008059
975.2111126
966.3139718
977.2741693
1016.67318
1001.070826
989.0756947
1287.125364
1092.489353
1050.427343
988.8530764
924.5154091
1029.428448
905.887845
978.5963062
989.7694613
735.9785472
753.3762681
712.96482
897.6967634
909.8714556
926.3707081
945.5081159
967.1215692
986.7841417
834.7045997
842.6828258
877.0062352
853.6596092
865.5718002
906.387224
877.5028248
885.0379818
962.2829062
947.0032783
957.3037606
985.3081984
989.1978267
999.8643481
1033.950042
1030.975428
1040.943017
1083.855131
1194.297319
1199.998135
1216.374506
767.5451251
771.928229
808.1156651
777.1314373
782.2907158
824.8419312
786.4105891
779.5598103
859.5289491
837.8562996
842.832544
872.1825827
856.8448298
860.674696
895.9542968
866.9673495
866.5983494
910.4362224
698.9355446
699.1614506
735.7585222
698.8148523
697.5612679
739.5138572
694.8908397
676.5085628
753.5771042
727.2983756
726.9971124
755.6080036
724.4180232
722.1855259
756.1171476
707.6386743
699.0572965
739.3640991
655.8958304
633.5350949
681.215374
527.6949593
519.2904507
579.3584661
631.3135674
628.0058425
663.5682467
623.3361916
617.0273894
656.6655457
609.3113393
582.840876
652.2549828
623.3733956
618.2255731
644.4022368
600.2618902
592.85858
623.9283262
563.0518013
549.5056067
585.0711177
494.2039056
470.0550126
507.4875372
381.6642879
330.6368577
365.6538055
566.4725523
560.372876
593.9411841
552.4691895
542.514671
578.8956211
531.1381553
500.838606
561.4125382
531.8299664
522.4880387
544.9176852
491.177683
479.3955861
505.9230703
437.9795688
421.6512401
451.0229043
363.0227787
337.9339354
368.2710001
258.9137828
222.8497306
245.0813654
505.6457551
497.6342339
528.6235524
487.6125355
475.4149641
508.0076121
461.9148855
430.6617114
482.4010163
454.5279649
443.8192279
462.0991566
405.7453006
391.1225569
410.4413965
343.0023909
325.6049331
346.286022
264.2132902
242.7638422
262.6771802
175.7056321
146.8650873
163.7371052
449.5246161
440.3744047
468.5729791
429.1949863
415.8896276
444.7099232
401.2031487
370.9745174
415.0145562
389.4577619
378.5522232
393.7603222
341.0730664
326.955074
341.5917668
280.0287547
263.0954577
276.3217667
205.1070739
185.6593183
196.3143485
126.297734
101.4366461
109.3524227
398.322796
388.6671497
414.0879405
377.0789641
363.5769812
388.8767816
348.5398839
320.2007423
357.7418067
334.6849418
324.142052
336.8441893
288.7656482
275.7443986
287.5297271
233.4164399
218.271486
228.3111415
169.0762101
152.6088633
159.4756376
102.5988927
83.0694135
87.47924287
351.9494846
342.273986
365.0663468
330.8049559
317.694194
339.879577
302.9765284
276.8269988
308.9842303
288.3826693
278.5142835
289.1984001
245.9903848
234.2330706
243.8443966
196.7146876
183.4701405
191.4528552
141.2416933
127.3471153
133.1265682
84.51247545
68.46219271
71.7307871
310.1560299
300.7969344
321.1721111
289.7944403
277.4131904
296.9089451
263.5726596
239.6583949
267.2536233
248.9944797
239.9518726
249.006959
210.5472809
200.0626083
208.019585
167.0173754
155.4332316
161.9171131
118.9915068
107.1480331
111.7979364
70.6076807
57.14971879
59.73611087
272.5762607
263.7490779
281.9544217
253.4360429
241.9437293
259.1147439
229.191321
207.5897081
231.432393
215.2811551
207.1062655
214.8443599
180.8051155
171.5301961
178.2088606
142.519403
132.4004968
137.7622468
100.8949926
90.74534716
94.54815847
59.45042574
48.07478654
50.17130576
238.8132269
230.6462926
246.9217183
221.1555343
210.6542007
225.8142271
199.0761174
179.7300627
200.4683214
186.2042944
178.8885353
185.5580229
155.5531055
147.3943899
153.0708392
121.9896933
113.1674217
117.6706583
85.91475119
77.18533285
80.3493782
50.29817129
40.63356459
42.36483865
208.4631812
201.0242737
215.5998829
192.4180104
182.9460507
196.3853971
172.5586603
155.3561279
173.5198497
160.9346485
154.4429003
160.2394095
133.8797932
126.7350115
131.6150446
104.5539495
96.88090279
100.713436
73.31627139
65.79244387
68.46670878
42.66472464
34.42883519
35.88088124
181.1368787
174.452707
187.5390384
166.7482003
158.3032899
170.2694059
149.0823446
133.8850133
149.9015046
138.8063863
133.0909106
138.1693189
115.0871228
108.8588979
113.0980848
89.568069
82.91633481
86.21762297
62.57071512
56.08442215
58.37402102
36.20694701
29.1822282
30.41604928
156.4658944
150.5362397
162.3290298
143.7226762
136.2772654
146.9877435
128.1761394
114.8358157
129.0589812
119.2847915
114.2927165
118.7776188
98.63610836
93.23677586
96.95536335
76.54484051
70.80380271
73.67947887
53.29633156
47.71390901
49.69693373
30.67594492
24.69215741
25.75274659
134.1059858
128.9142605
139.590572
122.9645203
116.4774064
126.1202587
109.4384716
97.80799303
110.5330781
101.9294579
97.6076427
101.6008806
84.10015429
79.45301785
82.74579071
65.10883956
60.18497186
62.71600721
45.19958249
40.41394701
42.1505916
25.88397614
20.80649937
21.72812396
113.7388201
109.2596321
118.980749
104.1390052
98.56506407
107.3036251
92.52918452
82.45705811
93.94086073
86.37379544
82.67232417
86.25919992
71.13715877
67.17624385
70.11995065
54.96522328
50.77932721
53.03016639
38.05460572
33.97891086
35.51614507
21.68656393
17.40795293
18.21733761
95.07120644
91.27327806
100.1868787
86.94300238
82.23901495
90.22124518
77.1854583
68.49477861
78.94502116
72.30160679
69.17810836
72.43078492
59.46456368
56.13378843
58.79187577
45.87427445
42.36004434
44.38337123
31.68175713
28.24602126
29.62104383
17.96972018
14.40394286
15.12234318
77.82642084
74.67760335
82.92272684
71.09948076
67.20632296
74.5772972
63.1219486
55.69972935
65.26997454
59.46109673
56.87601209
59.85089145
48.85045996
46.1013931
48.52573205
37.63853307
34.74055243
36.57947927
25.93600478
23.08537307
24.32824558
14.64200745
11.71970747
12.36441853
61.76530397
59.2195807
66.91923013
56.35591858
53.2131832
60.0928137
50.01025602
43.86460481
52.71023689
47.64440254
45.55793339
48.30516414
39.09683603
36.88752658
39.12385298
30.09133028
27.76394982
29.45553859
20.69308127
18.38458235
19.52232085
11.62581684
9.291810981
9.87788841
46.5614004
44.62819773
51.92903451
42.48009429
40.07621945
46.5478339
37.63815499
32.73176912
41.06742117
36.63652575
35.01879681
37.59159033
30.02337553
28.32031261
30.41030033
23.08701765
21.29386143
22.87080768
15.84305371
14.04407238
15.10026654
8.853604587
7.065143036
7.605667283
32.08751221
30.77714345
37.70179215
29.27750198
27.59196134
33.76423211
25.88949553
22.13753996
30.08213789
26.23385281
25.0634932
27.50630715
21.4644981
20.24251321
22.22418037
16.49303434
15.20631096
16.69884006
11.28884405
9.976699664
10.97244453
6.266362403
4.991397015
5.497945686
18.30919817
17.41424689
24.11838155
16.55786526
15.58293369
21.51794318
14.58241354
11.92109497
19.59280505
16.26599024
15.52704788
17.87990497
13.26956313
12.50915052
14.41770468
10.1842369
9.384387615
10.82121811
6.940606963
6.101018452
7.055946137
3.811201209
3.027357127
3.510215787
5.772703862
5.289525702
10.73613179
4.906338879
4.574551993
9.529339493
4.215098481
2.268956953
9.443712329
6.582445564
6.266330973
8.5571519
5.308440431
4.991285692
6.851179144
4.039152228
3.716864755
5.119956292
2.73560615
2.36334513
3.262824749
1.444946955
1.131097261
1.605841295
1232.432254
1248.097666
1240.449139
941.5723653
961.5215169
960.184371
1253.006987
1241.599756
1212.258779
984.2107784
981.9196106
948.4994402
1181.963023
1150.726822
1159.063671
1092.806946
1111.674976
1106.656526
1314.8796
1321.85126
1052.091765
1054.377713
1073.724569
103.7605528
912.9926046
877.2439172
873.9404441
928.1682726
906.7071229
924.2037451
858.5566641
871.6132279
910.8169133
235.3554664
591.8954281
543.8811034
597.9216775
1012.377938
1039.624005
1025.193331
1069.64566
1054.442869
1025.705507
1067.64589
1101.029021
1085.179355
1133.631069
1117.174727
1081.98526
1126.164783
1167.669326
1150.439472
1203.889302
1185.439886
1141.518448
899.9071495
928.4080772
919.5167257
946.5290962
937.4138427
907.4976697
997.2986008
967.7897386
978.4621416
929.6464506
964.5239873
955.6152595
981.4847546
973.1791027
936.3788437
1046.342015
1010.430996
1020.825916
952.9427965
996.8050638
989.3912702
1010.267029
1003.691127
956.8303363
1096.580589
1050.787915
1060.910645
1165.942621
1183.13243
1176.378675
1198.45575
1190.581413
1173.061815
1224.266877
1207.672197
1215.768695
784.3956197
813.4109274
809.8049331
820.2368802
816.947364
786.5947898
878.4511544
847.7472337
852.4782189
790.532686
825.3098868
823.084028
826.9184089
826.6765525
790.1718352
900.8423349
863.7768717
865.943268
780.6706629
823.0630551
825.8387756
811.0999113
818.3031549
773.4511761
911.456339
864.6358237
860.6055091
924.0080048
903.3308218
904.8708051
671.3569423
698.9454845
700.4199899
695.0736187
697.2145532
668.3643069
756.5162891
726.5576153
725.806884
655.9202015
688.718175
692.3338148
677.8150473
683.9717923
649.862996
754.2838203
718.8346664
714.100844
621.833953
659.8462914
669.9008644
631.6444974
647.2394518
607.9810294
730.0270246
687.9331625
673.8038351
547.1648661
589.1049662
612.457556
534.2617027
562.2006294
519.3113478
657.2925173
607.7623007
578.6047554
404.5475142
454.160772
489.5173691
392.718392
350.0414763
479.0173218
438.5409124
568.4786952
592.9222454
599.2191786
579.1737649
586.2945772
560.7309085
640.1628948
612.7611563
606.8280526
533.8436363
562.8468778
571.421245
542.2413307
553.2155282
523.0841272
616.6222735
584.3807196
574.552603
482.3027905
515.1975237
529.6581394
479.7647742
498.6112758
465.1599115
570.1104447
533.6188117
515.211031
400.6173398
434.5871133
458.7205762
377.6691216
406.0010387
372.3118353
479.1080213
441.5425235
411.8339596
269.8636663
298.3698947
348.3766391
260.9675077
237.3709264
315.1184618
286.2871483
481.2481586
501.3186833
511.2644672
479.2084991
490.5557539
469.9594748
536.0803776
512.601363
502.2018684
431.6040672
454.5934386
467.2573154
426.6299661
441.0941378
417.3837044
494.1398168
466.7078432
452.9540049
369.2087404
394.3510974
411.077063
356.9399203
376.4230212
351.0933019
433.5280627
403.9155978
384.6821876
285.0405266
310.0925423
334.7629953
263.5945054
286.5018144
263.0965648
340.9623319
312.3692421
288.7610716
182.2900893
202.0683902
234.5348471
169.5660731
149.1406944
214.3374082
191.5671363
409.6857978
426.3561174
437.1998161
401.8975279
414.6094441
397.9166104
450.5621618
432.1391923
419.4515181
357.0653606
373.4909409
388.1906406
341.5155828
357.8655811
341.5714627
395.5997447
375.7657558
359.7236425
290.7876784
307.1383792
324.5979225
267.8962897
288.5932657
272.3044105
327.9845987
307.1359511
286.5935689
209.5922053
225.069878
245.7102724
185.4168772
206.1264001
191.5748378
241.9397447
222.9411686
201.4125872
119.5486431
132.0673213
160.3453173
102.2153808
91.6143531
130.9443174
115.2927733
350.1272288
364.0168319
374.890659
340.070672
352.4191077
338.6476668
382.0126972
366.8615312
354.3739089
299.9643137
313.0924374
326.9610271
283.1938099
298.486251
285.6767153
326.3634511
312.0363276
296.3669899
239.0731865
250.6706183
267.2687768
214.657639
233.2891305
222.0727346
258.1304183
245.4438089
226.145841
166.8669094
175.7491149
194.6161793
140.7660877
159.0299277
150.7539331
179.1966456
168.6547073
149.7229435
91.66428973
95.72871198
118.8089695
72.97785493
69.65723684
83.32849357
77.19965795
300.3476931
311.9844639
322.4007282
289.4248852
300.995945
289.5544561
325.5094976
312.9703826
301.178337
253.9423874
264.5628554
277.2751951
237.6046459
251.320431
241.060924
273.5774057
262.1430724
248.0168294
199.8932195
208.8225107
223.4604869
177.736332
193.5602874
185.153821
211.8788861
202.4475827
185.9948979
139.2802058
145.8247246
161.5802627
114.7802897
130.6315827
124.6488252
143.6317123
136.9881133
120.7408515
75.19272792
78.93194698
97.42157167
60.26932277
57.44629283
66.49908844
63.31823134
258.4412076
268.2681735
277.9581474
247.5401682
258.1291956
248.5326773
278.6149585
268.1479755
257.3031144
216.3498598
225.078588
236.5147743
201.1506419
213.2737849
204.8972397
231.3236685
222.0717488
209.5598997
168.734386
175.9093266
188.7175902
148.9898758
162.6468516
155.9289061
177.2204043
169.7317225
155.5586328
116.7044031
121.8832848
135.2254652
95.28112702
108.8726561
104.1931053
119.0640407
113.8215569
99.6991477
62.47255193
65.37657599
80.71898115
49.98890003
47.77241686
54.8174718
52.33627603
222.8886362
231.2502542
240.0949218
212.5068524
222.0533931
213.9285806
239.3352674
230.5158295
220.7083713
185.1779212
192.4558953
202.6306108
171.3648937
182.0242059
175.0726807
196.9136842
189.2972136
178.2863366
143.3762254
149.2600718
160.4609463
125.9371071
137.7319959
132.2456076
149.551968
143.4937268
131.2595308
98.54012759
102.7349215
114.1250404
79.96223009
91.60034375
87.82359291
99.76712106
95.57593645
83.48039452
52.37685821
54.69999199
67.59636152
41.81793841
40.03341238
45.67899257
43.69734945
192.4767626
199.6530474
207.6265285
182.8803808
191.4022839
184.457088
206.123008
198.6199115
189.8455948
158.976182
165.1241018
174.110516
146.6023068
155.9517551
150.0989237
168.4224474
162.0547736
152.3919768
122.3686784
127.2739564
137.0536166
107.0613587
117.2570992
112.6987194
127.0156381
122.0249175
111.4514245
83.65713473
87.1186595
96.8902356
67.55973196
77.5514991
74.44129952
84.23158964
80.8115847
70.43408014
44.17813101
46.07924529
56.996257
35.18674402
33.72159231
38.33738992
36.72376771
166.2402997
172.4516676
179.5713662
157.5648129
165.1132176
159.1212855
177.7690924
171.3253532
163.5392721
136.6779612
141.9340436
149.8297368
125.7126673
133.8954364
128.9040145
144.4807911
139.083827
130.6217188
104.6991191
108.8471419
117.3690553
91.33725742
100.1504832
96.30624413
108.3360182
104.156995
95.01648761
71.2521201
74.15573448
82.56559092
57.31477493
65.91210843
63.30836837
71.47059628
68.63032175
59.70481114
37.39623509
38.97898017
48.26283014
29.71194456
28.4909756
32.32350317
30.98826089
143.4163283
148.8371701
155.1424398
135.718338
142.359217
137.1434951
153.3383455
147.7543068
140.8930298
117.485005
122.0281828
128.9350505
107.8673364
115.0067655
110.7013991
124.0986937
119.4694289
112.0797342
89.64062629
93.19281121
100.5992481
78.04233878
85.65475138
82.37009282
92.61469386
89.06694914
81.16971711
60.75168092
63.22284221
70.47308075
48.71523416
56.11635076
53.90537624
60.81203208
58.41667485
50.7327216
31.69969204
33.03631841
40.95112132
25.12822713
24.09777543
27.32203115
26.20206492
123.4021961
128.1698551
133.7104484
116.6884514
122.4928308
117.9150098
132.0995199
127.2185997
121.2116939
100.7943562
104.7600078
110.773221
92.45065546
98.65349409
94.90213536
106.5460822
102.532527
96.1047966
76.65316795
79.73023028
86.14462758
66.65185459
73.21426546
70.37399523
79.20639506
76.15648104
69.34400924
51.75031236
53.87804655
60.12695747
41.39796712
47.76189182
45.86218965
51.7792118
49.73284435
43.12280101
26.85308386
27.99544087
34.74553038
21.24417643
20.36499939
23.10850856
22.15801504
105.710473
109.9379878
114.7673544
99.96283881
105.0006529
100.9480166
113.4780167
109.1753744
103.9521525
86.1376269
89.63273445
94.83726546
78.99251121
84.35189943
81.05072047
91.27205827
87.75720479
82.19495567
65.32685825
68.02117494
73.54976794
56.77703708
62.41268981
59.9296029
67.63029245
64.97808811
59.12117313
43.9442277
45.79750439
51.17160191
35.09748716
40.55304254
38.90197997
44.02986552
42.26127218
36.58928169
22.68184113
23.66919143
29.41496056
17.91747042
17.15947614
19.51863822
18.70334053
89.94178406
93.72201744
97.89294693
85.12983301
89.46575033
85.84657905
97.01113674
93.18567395
88.67988791
73.1445405
76.25411407
80.7239225
67.1258261
71.72198947
68.78890763
77.84821293
74.74030478
69.96018976
55.34575023
57.72947841
62.46197803
48.12061481
52.93269482
50.73885666
57.52429702
55.19333104
50.18401377
37.09941541
38.73114259
43.33181911
29.61088155
34.26248172
32.81180692
37.30489305
35.75935295
30.9153918
19.05262153
19.91518547
24.78380406
15.03861512
14.37845453
16.42782915
15.72133601
75.76227624
79.17389035
82.73485801
71.85484108
75.54590053
72.2835272
82.32316385
78.89113298
75.0436344
61.51587082
64.30946957
68.10794309
56.55890394
60.46030072
57.82834252
65.93687003
63.16193971
59.09266701
46.45899433
48.58997427
52.60218114
40.45132368
44.52512799
42.56631898
48.60842016
46.53819202
42.28694572
31.03347448
32.48541094
36.39519245
24.7816587
28.71384835
27.42559033
31.40492041
30.03964022
25.93462854
15.8616731
16.62314703
20.71620231
12.52214634
11.94133293
13.73970205
13.12127805
62.89169382
65.99867808
68.99022647
59.8595196
62.95428948
59.98597681
69.09985742
65.99113033
62.75143298
51.00394748
53.53896988
56.72002466
47.0521555
50.3168142
47.93075844
55.26265383
52.75966948
49.34080822
38.46076635
40.38679499
43.74214609
33.58260334
36.98787159
35.21942287
40.65895339
38.80016254