/*--------------------------------*- C++ -*----------------------------------*\
| =========                 |                                                 |
| \\      /  F ield         | OpenFOAM: The Open Source CFD Toolbox           |
|  \\    /   O peration     | Version:  v2012                                 |
|   \\  /    A nd           | Website:  www.openfoam.com                      |
|    \\/     M anipulation  |                                                 |
\*---------------------------------------------------------------------------*/
FoamFile
{
    version     2.0;
    format      ascii;
    class       volScalarField;
    location    "2.2";
    object      nut;
}
// * * * * * * * * * * * * * * * * * * * * * * * * * * * * * * * * * * * * * //

dimensions      [0 2 -1 0 0 0 0];


internalField   nonuniform List<scalar> 
3019
(
0.07323367224
0.2084357436
0.2789340081
0.351174253
0.4328626233
0.5524340089
0.7501674824
0.9894821328
1.157861486
1.151906131
1.149035421
1.148179234
0.1378835658
0.3079295824
0.3869295339
0.456330345
0.5317280734
0.6475630309
0.8302716848
1.043755295
1.159106328
1.152703298
1.149487235
1.148491421
0.1911128968
0.468583657
0.5946080603
0.6303004203
0.6867909406
0.7865747397
0.9516245333
1.137106715
1.160269967
1.153522923
1.150055649
1.148980441
0.2013393535
0.4664393217
0.7109346113
0.9081681855
0.9076571299
0.9723140036
1.116986783
1.169029099
1.161301108
1.154343566
1.150700425
1.149559065
0.1751693964
0.4430821649
0.6944085549
0.9055199796
1.052012278
1.129232476
1.164780298
1.170051613
1.162117471
1.155054797
1.151297686
1.150120268
0.140434722
0.4165951928
0.6831965412
0.9090868354
1.056817276
1.13175899
1.165922072
1.170672098
1.162698882
1.155634353
1.15185836
1.150663887
0.1283294284
0.4092686738
0.6890037139
0.916681534
1.060164841
1.133274846
1.1664848
1.170923506
1.163018521
1.156018313
1.152266392
1.151073542
0.1433259862
0.4205210352
0.6977233124
0.9225735662
1.062512919
1.134102035
1.166608657
1.170878963
1.16318402
1.156320932
1.152618562
1.15142901
0.1588770285
0.4306509479
0.703749277
0.9268581191
1.064133842
1.134459647
1.166412697
1.170612402
1.163150661
1.156445394
1.15280595
1.151623514
0.1720234933
0.4395016379
0.7083098253
0.9294693198
1.065136868
1.134480861
1.16599303
1.170189209
1.163055568
1.156545586
1.15296918
1.151785476
0.1833412055
0.4473305149
0.7120443807
0.9306500378
1.065521152
1.134228817
1.165415885
1.169661899
1.162822762
1.156493025
1.152975386
1.151788874
0.1934322971
0.4543116892
0.7151967831
0.930877135
1.065304583
1.13372652
1.164721633
1.169067768
1.162600983
1.156472343
1.153004649
1.151804974
0.202516005
0.4605928383
0.7178928317
0.9305506823
1.06458498
1.132995021
1.163937087
1.168432069
1.16226667
1.156306561
1.152880962
1.151667284
0.2107664989
0.4663409089
0.7202244379
0.9299152486
1.06349747
1.132069161
1.163084575
1.167771716
1.161993263
1.156220613
1.152828307
1.151591864
0.2182892333
0.4716401695
0.7222622183
0.9291038776
1.06216306
1.130991503
1.162184538
1.167099146
1.161605755
1.155981424
1.152617093
1.151359543
0.2252051397
0.4765548753
0.7240564035
0.9281895407
1.060671822
1.129802701
1.161254478
1.166423183
1.161320698
1.15586531
1.152521459
1.151235762
0.2316144329
0.4811164545
0.7256543521
0.9272204184
1.059088139
1.12853741
1.160308498
1.165750204
1.160905905
1.155581315
1.152256879
1.150947231
0.2376042278
0.4853775447
0.7271063228
0.9262312759
1.057457814
1.12722354
1.159357405
1.16508527
1.160629346
1.155452878
1.1521407
1.150800608
0.2432833325
0.4894146401
0.7284562038
0.9252474815
1.055814038
1.125883463
1.158409397
1.164430734
1.160208854
1.155152456
1.151855342
1.150491592
0.2487105316
0.4932709572
0.7297350792
0.9242884058
1.054181836
1.12453522
1.157470619
1.163790965
1.159938838
1.155006661
1.151717208
1.150322366
0.2539254567
0.4969777606
0.7309647932
0.9233699202
1.052580507
1.123192723
1.156545494
1.163163256
1.15955187
1.154733821
1.151455945
1.150040227
0.2589873229
0.5005613747
0.7321665395
0.9225075155
1.051026574
1.121869307
1.155639783
1.162557079
1.159239991
1.154529789
1.151259116
1.149811767
0.2639418024
0.5040527066
0.733365547
0.9217185233
1.049535086
1.120575884
1.154769333
1.161971786
1.15898789
1.15436103
1.151096309
1.149632909
0.2688115693
0.5074685353
0.7345751219
0.9210135034
1.048115485
1.119317146
1.153996426
1.161472888
1.158579414
1.154083869
1.150828881
1.14932908
0.05441763441
0.06864925451
0.1830995871
0.09824812608
0.05601308645
0.1244567157
0.2484716908
0.1862816485
0.1415456851
0.1081802
0.1451902402
0.08279022966
0.08098803364
0.09497978662
0.1609399948
0.1487341519
0.03681616563
0.06665225481
0.03344266957
0.0445733158
0.113142016
0.07132782343
0.1848492101
0.3950580285
0.2800896083
0.1224024757
0.1180882393
0.04825216223
0.2003442032
0.1671930701
0.0984652221
0.1169996544
0.006883926863
0.02268924991
0.03896520925
0.08814129821
0.0108433981
0.01413870414
0.04434037513
0.010772369
0.01029681818
0.0143274308
0.01082470334
0.01073975621
0.02422063389
0.01626957197
0.03446067239
0.02718643001
0.0105743321
0.007067796164
0.02547370101
0.01012643961
0.01059516562
0.1905170196
0.243518513
0.04679154352
0.01586274907
0.02331819996
0.0110678469
0.01762663002
0.03397094886
0.06870760058
0.01053251918
0.007318894391
0.007408718802
0.01073508326
0.01044537497
0.04372233362
0.03691904946
0.01017160943
0.01027835612
0.01016742442
0.01031322237
0.007028765755
0.01033538314
0.01035636716
0.01260907707
0.01075450685
0.01069448554
0.0105275131
0.01032740702
0.01162266539
0.01120467687
0.01079628899
0.01064277
0.01087427587
0.01295509875
0.01207467595
0.01030203221
0.01102766827
0.01084787202
0.01326576258
0.01189464713
0.010107047
0.2605973689
0.3139909586
0.332508412
0.3908350602
0.413184826
0.492350172
0.08674268182
0.1226141383
0.1226365706
0.2738264869
0.3360067893
0.2612129329
0.353858795
0.4057386333
0.3317907015
0.4228837068
0.482437966
0.4106435518
0.5039373015
0.5775734658
0.5124800177
0.1523893987
0.276496377
0.2157906083
0.4644807419
0.5199111925
0.3707485028
0.530771343
0.5652470271
0.4392826614
0.5787795205
0.6228593835
0.51013639
0.6415655855
0.7083079839
0.6065948432
0.1273630802
0.1146792841
0.2026993347
0.4040754208
0.4002387604
0.469315312
0.6566439117
0.588285499
0.7140809635
0.8310633994
0.6196939554
0.8250780506
0.8361176561
0.6698176145
0.8458479707
0.895207718
0.7514337051
0.1088932287
0.1266660108
0.183753615
0.3860483486
0.4018380063
0.4500780861
0.6393094296
0.6533512222
0.6987139105
0.8594656789
0.8644183902
0.9058519886
1.020718345
0.9022114708
1.050537658
1.114325741
0.9524485282
0.07461634623
0.1012004306
0.1479843164
0.3563396429
0.3787359529
0.4221132319
0.6212600448
0.6341546629
0.6845284987
0.8577328837
0.8580781617
0.9073461624
1.026483146
1.022087551
1.055775407
1.117548569
1.11526389
0.05917647084
0.06821448035
0.1280302249
0.3406574511
0.350016324
0.4088427363
0.6183817841
0.6185661033
0.6862733589
0.8653551215
0.8588342703
0.9149526219
1.031008608
1.027758445
1.05943601
1.119601113
1.118154863
0.06714521917
0.05960542085
0.1390456132
0.3491912442
0.3407263192
0.4177625628
0.6278945956
0.6209359783
0.6958530538
0.8728407126
0.8674159432
0.9212485953
1.034290521
1.03192956
1.062001933
1.120839991
1.119975845
0.08109473967
0.07052152721
0.1552227509
0.3602788907
0.3521061522
0.4282466018
0.635216283
0.6298928027
0.7024190929
0.8782715289
0.8743984452
0.9259442849
1.036665999
1.034961384
1.063788214
1.121515569
1.121053998
0.09581325319
0.08473395552
0.1689372265
0.3700572847
0.36283096
0.4373948063
0.6412218892
0.6368182127
0.7072625386
0.8816194843
0.8792955144
0.9289670075
1.038261786
1.037137953
1.064943434
1.121788553
1.121617659
0.1104337021
0.09952092141
0.1806438595
0.3788437997
0.3723429957
0.4454590422
0.6463601262
0.6425797654
0.7111718883
0.8833472388
0.8821777513
0.9304634278
1.039063725
1.038538234
1.065483565
1.121732885
1.121804669
0.1237167818
0.113968248
0.1910128487
0.3867490395
0.3809002859
0.4526378134
0.6508077188
0.6475333525
0.714455659
0.8840971546
0.8836057922
0.930885133
1.03909861
1.039140961
1.065410901
1.121369086
1.121671034
0.1350282135
0.126713249
0.2003291855
0.3938945093
0.3886030271
0.4590809454
0.6546835574
0.6518274598
0.7172564951
0.8843072867
0.8841895315
0.9306686077
1.038510402
1.039003184
1.06480474
1.120716167
1.121232411
0.1448181723
0.1376062326
0.2087761812
0.4003926965
0.3955787857
0.4649486702
0.6580915541
0.6555769219
0.7196715751
0.8842106434
0.8843067484
0.9300945002
1.037486248
1.038288802
1.063796753
1.119815137
1.120512817
0.153358868
0.1470721647
0.2164715234
0.4063487122
0.4019291701
0.4703539649
0.6611216107
0.6588828719
0.7217775691
0.8839276094
0.8841552263
0.9293187432
1.036183588
1.037182203
1.062514438
1.118719869
1.11955801
0.1608975972
0.1553229797
0.2235270984
0.4118776326
0.407768751
0.4753600905
0.6638387314
0.6618294967
0.7236283281
0.883522227
0.8838368019
0.9284250161
1.034711773
1.035828685
1.061055547
1.117482488
1.118422554
0.1677784028
0.1626704575
0.2300566849
0.4170332115
0.4132019438
0.4800080724
0.6662943168
0.6644764552
0.725270662
0.8830386097
0.88340807
0.9274658622
1.033144238
1.034327098
1.059490035
1.116146992
1.117156809
0.1742217627
0.1694230531
0.2361411785
0.4218569638
0.4182689678
0.484335939
0.6685434437
0.6668748492
0.7267545696
0.8825124387
0.8829107879
0.9264790397
1.031531393
1.032744263
1.057867853
1.114748705
1.115802632
0.1803868028
0.1757832478
0.241891128
0.4264249995
0.4230211429
0.4884242564
0.6706429841
0.6690816501
0.7281265679
0.8819713753
0.8823785861
0.9254919019
1.029908367
1.031126035
1.056224824
1.113315382
1.114393209
0.1863339737
0.1818906733
0.2473816118
0.4308008688
0.4275365845
0.4923224316
0.6726332926
0.6711508575
0.7294209291
0.8814365248
0.8818372936
0.9245250729
1.028301013
1.029504782
1.054587749
1.111869202
1.11295477
0.1920502063
0.1877724084
0.2526522751
0.4350150928
0.4318688955
0.4960652462
0.6745388255
0.6731176324
0.7306610975
0.8809247746
0.881306723
0.9235950265
1.026729047
1.027904605
1.052977083
1.110427273
1.111508197
0.1975963971
0.1934228981
0.2577676884
0.439094595
0.436044263
0.4996809869
0.6763857568
0.6750059971
0.731868209
0.8804520664
0.8808031573
0.9227171278
1.025209109
1.026344148
1.051409857
1.109004572
1.110069681
0.2030478001
0.1989048111
0.262797601
0.4430806187
0.4400859725
0.503212466
0.6782039116
0.676840712
0.7330705188
0.8800380672
0.8803427728
0.9219091976
1.023757012
1.02483963
1.04990173
1.107614663
1.108654015
0.208473367
0.2042659727
0.2678168037
0.4470487411
0.44402234
0.5067302366
0.6800558422
0.6786471877
0.7343175105
0.8797158777
0.8799445326
0.9211992939
1.022392579
1.023406324
1.048471241
1.106271989
1.107273872
0.2142899888
0.2095280482
0.273219136
0.4513300558
0.4478728757
0.5105348713
0.6821262928
0.6804525141
0.735749416
0.8795151454
0.8796191903
0.9205930007
1.021083284
1.022054018
1.047082872
1.104949086
1.105935436
0.05151232672
0.04193489243
0.04400357415
0.08880347136
0.0842897803
0.0636921216
0.16715324
0.1475513035
0.1558102675
0.09067338803
0.03859378704
0.02622170472
0.03457604937
0.05740093164
0.1528155916
0.141754374
0.1087327578
0.2159718183
0.1820921077
0.2195797295
0.1596671792
0.1746143007
0.2086526689
0.1212980331
0.1063857399
0.1421715085
0.1308852562
0.1278440945
0.1275414375
0.1413772033
0.02835724935
0.03976574809
0.06647397427
0.06832424445
0.08472741935
0.0795874433
0.06030837207
0.06448999001
0.1275332106
0.1254960782
0.09106440813
0.1562371804
0.1403270401
0.1445184783
0.1329984119
0.1358312236
0.1523461644
0.02537318005
0.02834975784
0.0392129631
0.01528881746
0.01412193359
0.01080304054
0.06238081043
0.03720613752
0.04287796475
0.03090776736
0.01953328081
0.02231368057
0.07009893814
0.0651098807
0.03675077906
0.1087113141
0.08663283677
0.09125404438
0.0817268389
0.1037569174
0.05174736039
0.05642798428
0.07559304182
0.0191881541
0.01720745239
0.04612176845
0.04525167206
0.2626797699
0.2551568208
0.1595533397
0.38751905
0.3245137674
0.3309982206
0.2426280335
0.3007792283
0.3259551905
0.1224957932
0.1053551968
0.1096753975
0.09608499718
0.1006190235
0.1218049873
0.05881631448
0.07947819931
0.0746931344
0.1862317895
0.1654757829
0.1770160533
0.1495611876
0.1566615301
0.1750946038
0.1034178111
0.1353443826
0.1294941636
0.1119703111
0.07371066385
0.0774493848
0.01995915139
0.01192584623
0.01339291541
0.05183182343
0.05014795224
0.05448336897
0.0530473717
0.03706764454
0.08618407353
0.07044656797
0.07138482071
0.01150991016
0.01761331195
0.01529400601
0.02320237714
0.02043744308
0.01273792826
0.04199197976
0.03127386244
0.03402380675
0.02150798362
0.01364497649
0.01522377028
0.01138294551
0.01226391004
0.01867306638
0.03238291654
0.02155669934
0.02408741962
0.01721876761
0.01934047509
0.02947121329
0.01526601679
0.01707184436
0.02799512881
0.211276136
0.1983751915
0.178323026
0.2286401701
0.2111602323
0.2249940419
0.03662484029
0.03911319532
0.04939210489
0.01772943382
0.02839461679
0.02587241984
0.03384811256
0.03137691133
0.02050219882
0.0453699727
0.04309137959
0.03110314412
0.0639930753
0.05491259415
0.05502214532
0.05107984057
0.06232546203
0.02406713108
0.02179045988
0.04118353018
0.03203124868
0.03431938144
0.02686622763
0.02944417141
0.03889687837
0.5228871576
0.6177101994
0.7213071086
0.8309565704
0.9560311602
1.104003781
0.07789073256
0.09768996504
0.0934189448
0.2252141863
0.2452126439
0.2262937255
0.2997282007
0.3183568255
0.2962140036
0.372030718
0.3906570309
0.3706813146
0.4542812197
0.4785170467
0.4574460168
0.6082155726
0.7019223162
0.654070992
0.7855580014
0.8878100752
0.8580163488
0.9959403513
1.13022604
1.098146453
0.1428158234
0.1826770592
0.1685888857
0.3513411879
0.3703178555
0.3270411525
0.427258022
0.4436064013
0.4047213053
0.4918582158
0.5096574055
0.4741517815
0.5658088789
0.5872340623
0.5549266459
0.7316816033
0.8128773728
0.7539109298
0.8860932637
0.9765946567
0.9286948074
1.063838221
1.165161539
1.140120299
0.1972132035
0.2744990534
0.269053398
0.4706254383
0.5365848988
0.5355849438
0.6711374334
0.6711138464
0.6023702772
0.6882525307
0.6971889738
0.6422059932
0.7349151407
0.7519691513
0.7053292166
0.9026471577
0.9600511149
0.8815430679
1.02741152
1.100370546
1.034473272
1.168168469
1.16640248
1.165813551
0.1972104209
0.2701635459
0.2749059131
0.462006469
0.5261519253
0.5308205199
0.7072264758
0.7625067472
0.7656726229
0.9073659367
0.948139344
0.904326446
0.9758025226
0.9811671746
0.9165781243
1.127515741
1.153482345
1.050534825
1.163863791
1.168729442
1.167962193
1.1695662
1.167416197
1.166968146
0.1659979891
0.2386521328
0.247607641
0.4357033923
0.5012568364
0.508047886
0.6904523753
0.7493008779
0.7522004241
0.9056817443
0.9496049539
0.9488435512
1.05338281
1.078390897
1.077239676
1.131240747
1.155574657
1.154694781
1.165433818
1.16990051
1.169412894
1.170427052
1.168127464
1.167836662
0.1342349124
0.2079831727
0.2139956158
0.4123210095
0.480154555
0.4841073823
0.6832296579
0.7460372458
0.7453942992
0.9111494571
0.9558870707
0.9541435815
1.05776956
1.082008464
1.08123268
1.132973397
1.156720162
1.156238858
1.166266578
1.170480818
1.170247314
1.170850406
1.168521394
1.168384124
0.1301857509
0.2030980506
0.2013185904
0.4119505732
0.4818023499
0.4790507952
0.6915149946
0.7556226569
0.7531855681
0.9183048071
0.9617908796
0.9604597218
1.060832363
1.084449156
1.083926409
1.133947651
1.157247053
1.157047842
1.166593918
1.170643275
1.170604847
1.170941273
1.168641919
1.168639216
0.147437846
0.2181626353
0.2146160512
0.42318637
0.4922005518
0.4897441716
0.6994270464
0.7633353877
0.7616995411
0.92380018
0.9662922982
0.9652845451
1.062979632
1.086079666
1.085733725
1.134406037
1.157340589
1.157338796
1.166544112
1.170496993
1.170601084
1.170774681
1.168544294
1.1686455
0.1623771254
0.2310464921
0.2280029051
0.4329763047
0.5011877159
0.4990587629
0.7049925923
0.7683253325
0.7672730247
0.927666039
0.9695330745
0.9688443318
1.06444187
1.087120557
1.086908353
1.134501926
1.157130493
1.157267157
1.166226039
1.170130075
1.170335208
1.170420976
1.168281631
1.168461073
0.1749971054
0.2422159456
0.2395600842
0.4415475536
0.5090212412
0.5071569724
0.7093085942
0.771679476
0.7709426747
0.9298816449
0.9714603318
0.9711001934
1.065291823
1.087666567
1.087575315
1.134314287
1.156702385
1.15693999
1.165721192
1.169609952
1.169884828
1.169939063
1.167909064
1.168137558
0.1859685209
0.2520495789
0.2497025406
0.449150362
0.5159121774
0.5142699332
0.7128819811
0.774167479
0.7736031831
0.9307783199
0.9721901194
0.9721035405
1.065521052
1.087727167
1.087757502
1.133872574
1.156103937
1.156422536
1.165081563
1.16898433
1.16930734
1.169373809
1.167461884
1.16772433
0.1957914518
0.2608048788
0.2587025998
0.4559433744
0.5220061929
0.5205490263
0.7159105627
0.7761316216
0.7756795741
0.9308359806
0.9720500334
0.9721470133
1.065166971
1.087318771
1.087461851
1.133195605
1.155362516
1.155749642
1.164339208
1.16828521
1.168641901
1.168755501
1.166972666
1.167251069
0.2046531385
0.268727273
0.266812245
0.4620758426
0.527442938
0.5261394295
0.7185074937
0.7777263806
0.7773566214
0.9304146182
0.9713701862
0.9715763272
1.06434265
1.086510716
1.086744968
1.132314623
1.154502321
1.154945684
1.163518008
1.167535216
1.167915021
1.168105203
1.166453838
1.166745186
0.2127130247
0.2759960682
0.2742350269
0.4677062379
0.5323382959
0.5311579067
0.7207600472
0.7790434191
0.7787364783
0.9297259079
0.9703798587
0.9706478732
1.063183251
1.085400341
1.085700995
1.131271151
1.153549392
1.15403579
1.162639375
1.166752105
1.167146585
1.167436736
1.165924059
1.166216209
0.220071397
0.2827073004
0.2810747671
0.4729038693
0.536810027
0.5357268987
0.7227326036
0.7801414128
0.7798849862
0.9288833051
0.9692140709
0.9695170371
1.061802347
1.084078707
1.084424675
1.130106877
1.152529094
1.153046163
1.161722418
1.165950205
1.166352496
1.166761399
1.165384611
1.165680844
0.2268537198
0.2889711381
0.2874431371
0.4777294618
0.5409303956
0.5399310137
0.7244730868
0.7810634599
0.7808470764
0.9279513506
0.9679517002
0.9682731911
1.060282795
1.082617543
1.082992703
1.128858007
1.151463389
1.152000597
1.160783064
1.165140764
1.165545576
1.166085822
1.164849107
1.165138748
0.2331484051
0.2948388725
0.2934064256
0.4822073274
0.5447700253
0.5438332071
0.7260298649
0.7818526482
0.7816653901
0.926974387
0.9666442619
0.9669732103
1.058683739
1.081070788
1.081463138
1.127554154
1.150370128
1.150918957
1.159833842
1.164332325
1.164735326
1.165417034
1.164314791
1.164603923
0.2390522747
0.300368572
0.2990123488
0.486406946
0.5483807504
0.5474965731
0.7274526983
0.782550412
0.7823825067
0.9259844627
0.9653269784
0.9656557495
1.057047285
1.079478353
1.079879014
1.126218901
1.149263286
1.149816955
1.158884527
1.163531543
1.163929277
1.164757467
1.163790655
1.16406972
0.2446670889
0.3056352986
0.3043389687
0.4903951318
0.5518092498
0.5509670466
0.7287823224
0.7831897645
0.7830339214
0.9250052306
0.9640251098
0.964348022
1.05540436
1.077870422
1.078272518
1.124871353
1.148153956
1.14870654
1.157942991
1.162743724
1.163132322
1.16411344
1.163278185
1.163550963
0.2500413445
0.3106829412
0.3094356652
0.4942121481
0.5550843324
0.5542786815
0.7300470421
0.7837948662
0.7836456848
0.9240548854
0.9627577699
0.9630704778
1.053778234
1.076270047
1.076668395
1.123526196
1.147052961
1.147597667
1.157015679
1.161973466
1.16234895
1.163484324
1.162773466
1.16303546
0.2552253765
0.3155548038
0.314340101
0.4978873417
0.5582313123
0.5574536835
0.7312678466
0.7843847471
0.7842375874
0.9231489218
0.96154085
0.9618395197
1.052187265
1.074695412
1.075085771
1.122196777
1.145969603
1.146500235
1.156107368
1.161223656
1.161580682
1.162878236
1.162300189
1.16253998
0.2602894813
0.3203042744
0.31909566
0.5014544623
0.561279565
0.5605196478
0.732468077
0.7849801243
0.7848286184
0.9223034379
0.9603900329
0.9606705375
1.050647645
1.073162572
1.073541042
1.120894664
1.144906657
1.145420685
1.155218636
1.160493557
1.160832773
1.162286643
1.161813159
1.162048363
0.265303419
0.3249967504
0.3237401918
0.5049671476
0.5642783537
0.5635025045
0.7336841494
0.785613576
0.7854420649
0.9215396403
0.959324308
0.9595797482
1.049175371
1.07168686
1.0720489
1.119631067
1.143847271
1.144372758
1.154325465
1.159759547
1.160115926
1.161697077
1.161376245
1.161585947
0.2703540161
0.3297273402
0.3282960934
0.5085221619
0.5673224364
0.5664235248
0.7349870067
0.7863521836
0.7860899959
0.9208973174
0.9583767966
0.9585774529
1.047794067
1.070290695
1.07061819
1.118387497
1.142745969
1.143422844
1.153415217
1.159022063
1.159487355
1.161107357
1.160889104
1.161183802
0.1755550252
0.1676374632
0.1722638863
0.09687284317
0.07419234975
0.08112638851
0.0475055217
0.04789660913
0.06064234923
0.1821574948
0.183647526
0.1930807013
0.1357760152
0.1419483524
0.1108446275
0.1076410852
0.09392267421
0.05572045632
0.05278492808
0.04229794361
0.03376108054
0.03203287418
0.04866165237
0.06202093047
0.0574115939
0.09929102367
0.1114021155
0.111530532
0.03755663919
0.03621022872
0.2778453937
0.261908258
0.2453016848
0.2963895483
0.2789958337
0.2957531075
0.3508751108
0.3338867941
0.314671744
0.3746332456
0.3536723798
0.3699007432
0.4376261924
0.4215827195
0.3971179642
0.477551731
0.4481843013
0.4640972068
0.1044272621
0.1020960538
0.08250658833
0.1233941139
0.1170859139
0.1147208297
0.1128842811
0.1140372725
0.1249797103
0.2933869532
0.2672498794
0.2469641737
0.3064545517
0.2840698105
0.312994193
0.2411778024
0.2601393941
0.2814378367
0.3714237037
0.3418881456
0.3243769841
0.3779233228
0.3593786204
0.389185376
0.3134540253
0.3361187419
0.3540500519
0.4420481802
0.4170652694
0.397532242
0.4545362884
0.4353405121
0.4621569353
0.3897589756
0.4099069423
0.4317755478
0.5271102259
0.501024338
0.4761040343
0.5530609666
0.5268597408
0.5525342623
0.4836768975
0.504015239
0.5295603425
0.1933216188
0.1878140821
0.1492232527
0.1930109781
0.2140369885
0.2381186612
0.4897073485
0.4240572216
0.4069353184
0.4618548633
0.4447522736
0.5064097282
0.348774817
0.3922938812
0.4123832134
0.5422877903
0.489562987
0.4749818105
0.5168218476
0.5041863839
0.5539036082
0.4224965489
0.4599841257
0.4749563192
0.5928512593
0.5482791043
0.5319483033
0.5825336794
0.5646344356
0.6070516088
0.491716601
0.526792645
0.5454985763
0.6626187662
0.6239490108
0.6022658501
0.671705435
0.646244243
0.6841337545
0.580553916
0.6117074197
0.6358735791
0.1250677905
0.1202100987
0.2772627542
0.2774851227
0.2017112328
0.4048249035
0.3429218481
0.3424308595
0.3368238619
0.3409065415
0.40354931
0.5341042561
0.5361490061
0.4707607687
0.6589898705
0.5993580149
0.5970221475
0.5806783773
0.6002399879
0.6601138902
0.7683160613
0.7556894029
0.7163801478
0.7487153399
0.749953859
0.8187532982
0.6110213851
0.6746197364
0.6804030285
0.8249369295
0.7579315994
0.7519797739
0.7757101686
0.7658782716
0.828784424
0.6550507277
0.7076369583
0.7199985162
0.8573852124
0.8023915403
0.7880717629
0.8448755185
0.8200015847
0.8736957387
0.7252061098
0.7713685077
0.7951622272
0.1170082997
0.1224862384
0.2560909129
0.2637885469
0.1914949801
0.3925052036
0.3300547864
0.3228162905
0.3402031349
0.3360233822
0.3978808821
0.5144663716
0.5207526406
0.4565627741
0.6444182422
0.5836450438
0.5778867369
0.5934760579
0.5889329101
0.6491986694
0.7555926545
0.7590829348
0.7030662542
0.8610989803
0.811882756
0.8092827857
0.8168847161
0.8144262862
0.8627554284
0.9483392048
0.94819251
0.9064913399
1.019521819
0.9858748021
0.9867310522
0.8998846575
0.9848320788
0.9778841532
1.075968208
1.054925035
1.049102178
1.076226099
1.060825284
1.097057768
0.9307263692
0.9930665932
1.009589269
0.08315162598
0.09247101038
0.221436682
0.2298024465
0.1569077024
0.3633569352
0.2978293437
0.2902809139
0.3145593963
0.3061709592
0.3711106073
0.4889092774
0.4949150089
0.4286275941
0.6248375103
0.560696857
0.5558879261
0.5719661661
0.5661435848
0.6292588554
0.7455830329
0.7468554187
0.6870866584
0.8571971473
0.8038524789
0.8036041636
0.8069730305
0.8049420862
0.8573124308
0.9523051876
0.9507162826
0.9062981278
1.02509607
0.9904350715
0.9920904932
0.9876655412
0.9889098419
1.023596019
1.080376996
1.079432934
1.054634075
1.11686829
1.099995172
1.100786892
1.098140545
1.09911658
1.116110748
0.0607680692
0.06347290171
0.2013855219
0.2036087225
0.1302227947
0.3417704204
0.2741279261
0.2723678102
0.2834509903
0.2781596488
0.3452493889
0.4778703554
0.4782158386
0.409497552
0.617281729
0.5481898222
0.5482641611
0.5520149348
0.5491616134
0.6172788929
0.7505452345
0.7478121909
0.6839649823
0.8631652628
0.8078892929
0.8104210007
0.8041451942
0.8054842318
0.8608598186
0.9590366665
0.9575151827
0.9131110539
1.030011854
0.9964122286
0.9976517918
0.9936413706
0.9950783343
1.028931059
1.083348954
1.082711693
1.058639785
1.119175676
1.102715166
1.103231354
1.101499155
1.102139783
1.118696127
0.06388479032
0.0608873179
0.2109173501
0.2070525929
0.1346036611
0.3461732609
0.2775553444
0.2808700013
0.2722236263
0.2741572544
0.3430668829
0.4871959235
0.4845503199
0.4149032271
0.6257547232
0.5553347462
0.5576953094
0.5502595005
0.5528540612
0.6234431144
0.7598754025
0.757852047
0.6937908599
0.871157062
0.8170981333
0.81900042
0.8128060629
0.8150321169
0.8693481954
0.9641995316
0.9630360353
0.9198257572
1.033564792
1.000873713
1.001802402
0.998804208
0.9998759406
1.03277925
1.085348874
1.084921973
1.06144303
1.120591271
1.104472755
1.104798666
1.103693305
1.104105532
1.120304683
0.07750869898
0.07398489275
0.2248466521
0.2215694165
0.1513991657
0.3576433678
0.2901353046
0.2930212096
0.2840661984
0.2871517177
0.3549200985
0.4968540017
0.4945693176
0.4257593459
0.6335368507
0.5641853276
0.56618083
0.5599502512
0.5621103889
0.631766274
0.766103501
0.7647975022
0.7009844293
0.877115244
0.8237022232
0.824944537
0.8207351279
0.8223011761
0.8758234007
0.968073607
0.9672224523
0.9249242324
1.036146831
1.004204168
1.004882458
1.002665359
1.003465238
1.035578936
1.086665022
1.08638942
1.063403898
1.121389172
1.105560552
1.10575185
1.105086588
1.105339487
1.121236067
0.0920898412
0.08840450663
0.2368176681
0.2339819572
0.1657233264
0.3677129569
0.3011323857
0.3036678382
0.2958147622
0.2985172613
0.3653039611
0.5052323095
0.503244047
0.4352210036
0.6398132852
0.571733781
0.5734572199
0.5681006707
0.5699497236
0.638346884
0.7701456311
0.7692776798
0.7061593997
0.880960508
0.8278309016
0.8285621724
0.8260375192
0.8269943977
0.8801886595
0.9706604018
0.9701384804
0.9283675199
1.037936096
1.006544364
1.00697119
1.005499159
1.006053353
1.037561093
1.087453833
1.087302321
1.064711615
1.121752946
1.106163332
1.10625016
1.105915181
1.10605181
1.121696032
0.1068125917
0.1031867401
0.2472830763
0.2447879703
0.177864477
0.3767341028
0.3108485894
0.3131137062
0.3061292257
0.3085211991
0.3745665431
0.512575645
0.5108268902
0.4435316541
0.6451456278
0.5782890739
0.5797955071
0.575122363
0.5767318466
0.6438856496
0.7730035858
0.7723642854
0.7102608537
0.8830301233
0.8302575401
0.8306963221
0.8292016697
0.8297625818
0.8826435032
0.9719569036
0.9717443827
0.9302099955
1.038938518
1.007862774
1.008034936
1.007332768
1.007629381
1.038763405
1.087757666
1.087727443
1.065407236
1.121776486
1.106365185
1.106355466
1.106312688
1.106350799
1.121800001
0.1206005252
0.1173524061
0.2565452763
0.2543291806
0.1885252244
0.3848498912
0.3195550545
0.3215939648
0.3153180462
0.3174636882
0.3828999767
0.5190492617
0.5175046312
0.4509178282
0.6497542271
0.5840226886
0.5853431237
0.5812516159
0.5826594165
0.6486628495
0.7752030226
0.7746999432
0.7136846222
0.8839732807
0.8317464702
0.8320280766
0.8310861522
0.8314339637
0.8838113103
0.9722061933
0.9722224779
0.9308541934
1.039155564
1.008212718
1.008172763
1.008148127
1.00820588
1.039170438
1.0875784
1.087667257
1.065483666
1.121488692
1.106182628
1.106078264
1.106321741
1.106263804
1.121588881
0.1323615415
0.1295919691
0.264856094
0.2628550199
0.1980875639
0.392172723
0.3274175224
0.3292703047
0.3235823592
0.3255223358
0.3904087694
0.5247994354
0.523422331
0.4575316801
0.6537627761
0.5890621513
0.5902288727
0.5866216977
0.5878602983
0.6528108221
0.7769685692
0.7765608672
0.7165961792
0.8842903707
0.8327168339
0.8329046416
0.8322814672
0.8325098292
0.8842519814
0.9717606799
0.9719199265
0.9307648993
1.038705603
1.00781147
1.007624805
1.008089665
1.00796768
1.038870777
1.086958783
1.087150647
1.064999507
1.120905066
1.105633065
1.105443828
1.105951401
1.105802461
1.12107681
0.1424875485
0.1400878617
0.2724375297
0.2706018824
0.2067374596
0.3988243926
0.3345821184
0.3362758438
0.3310815831
0.332851151
0.3972197093
0.5299499368
0.5287123402
0.4635267717
0.657278417
0.5935300332
0.5945714131
0.591361115
0.5924604756
0.6564402856
0.7784153017
0.7780790245
0.719099548
0.884255873
0.8333658774
0.8334918627
0.8330740994
0.8332270142
0.8842882751
0.9709035997
0.9711452024
0.9302616299
1.037773831
1.006912988
1.006635663
1.007410589
1.00717214
1.038042048
1.085987215
1.086257703
1.06407916
1.12006121
1.104768224
1.104511105
1.105235887
1.105010074
1.120293525
0.1513347272
0.1492405328
0.2794136389
0.2777215101
0.2146124817
0.4049044006
0.3411433086
0.3427024462
0.3379326194
0.339554039
0.4034310465
0.5346213484
0.5334923657
0.4690427249
0.6603959318
0.597534819
0.598475186
0.5955847686
0.5965716872
0.6596495997
0.7796170033
0.7793368272
0.7212770746
0.8840120201
0.8337969634
0.8338784707
0.8336048802
0.8337059802
0.8840880226
0.9698131238
0.9701012353
0.9295264888
1.036528755
1.005713549
1.005383002
1.006341859
1.006033688
1.036862091
1.084761
1.085086673
1.062854996
1.119009302
1.103659308
1.103352326
1.104239889
1.103955396
1.119288494
0.1590862426
0.1572290006
0.2858902623
0.2843119756
0.2218152732
0.4105316544
0.3472151221
0.3486712538
0.3442327442
0.3457362344
0.4091611906
0.5389111189
0.5378713585
0.474142849
0.6631863217
0.6011637426
0.6020201007
0.5993926547
0.6002881281
0.6625164587
0.7806217722
0.7803869145
0.7231873199
0.8836326798
0.8340674555
0.8341154811
0.8339500529
0.8340125025
0.8837376094
0.9685913267
0.9689053048
0.9286565711
1.035091203
1.004339092
1.003978418
1.005042758
1.004694206
1.035463808
1.083361867
1.083724207
1.061432747
1.11780292
1.102374756
1.102033179
1.103035314
1.10270898
1.118116106
0.1661070278
0.1644049949
0.2919520563
0.2904737889
0.2284689573
0.4157783072
0.3529053121
0.3542735344
0.3501049585