/*--------------------------------*- C++ -*----------------------------------*\
| =========                 |                                                 |
| \\      /  F ield         | OpenFOAM: The Open Source CFD Toolbox           |
|  \\    /   O peration     | Version:  v2012                                 |
|   \\  /    A nd           | Website:  www.openfoam.com                      |
|    \\/     M anipulation  |                                                 |
\*---------------------------------------------------------------------------*/
FoamFile
{
    version     2.0;
    format      ascii;
    class       surfaceVectorField;
    location    "0.17";
    object      Uf;
}
// * * * * * * * * * * * * * * * * * * * * * * * * * * * * * * * * * * * * * //

dimensions      [0 1 -1 0 0 0 0];


internalField   nonuniform List<vector> 
6430
(
(101.6541516 -0.4729730689 6.347256709e-20)
(101.9225118 -0.2437174543 3.786181067e-21)
(101.5540699 -0.9600846152 -5.774482071e-20)
(101.8613074 -0.7374230067 5.973656393e-20)
(101.3792352 -1.474733488 -1.116365584e-19)
(101.7425682 -1.248681472 -1.203576047e-19)
(101.0113106 -2.003018244 -1.649219962e-21)
(101.5455024 -1.814841636 -2.151418945e-22)
(101.2075313 -2.061409511 3.441969316e-19)
(100.7486332 -2.085999703 -9.4896159e-22)
(101.0203178 -2.193979101 2.413172009e-19)
(100.7776181 -2.28891275 -9.52300578e-22)
(100.2726923 -2.719323252 0)
(100.5580093 -2.62025612 0)
(100.6164644 -2.861928635 0)
(100.3147356 -2.98124202 0)
(99.69422605 -3.498310911 -7.152010018e-20)
(100.0437478 -3.377569316 0)
(100.1127644 -3.680576836 -1.901495907e-19)
(99.63370245 -3.781755301 4.107354221e-19)
(99.78728726 -3.842791731 0)
(98.92606846 -4.295977047 5.009766677e-19)
(99.16910385 -4.232292005 -3.61812028e-20)
(99.17507012 -4.3987105 -4.746305148e-19)
(98.91551647 -4.475756512 3.749901114e-19)
(97.68079807 -5.363693285 9.198969349e-19)
(98.00989837 -5.283457112 9.09207713e-19)
(98.00483098 -5.486682905 -8.843519436e-19)
(97.66288955 -5.588042613 6.056040669e-19)
(96.0754931 -6.772586761 -2.877367116e-19)
(96.4985397 -6.651846828 2.556337745e-20)
(96.50504532 -6.914763196 9.529079681e-19)
(96.06989978 -7.067671998 1.862137319e-19)
(94.12774297 -8.764250081 -6.869922128e-19)
(94.65883891 -8.557460002 -6.55854995e-19)
(94.69663467 -8.934804405 -2.0101364e-18)
(94.04681452 -9.11427802 -4.377052972e-19)
(94.2507042 -9.16368943 -4.377545726e-19)
(92.15759349 -11.16544249 5.415992644e-19)
(92.33409831 -11.11895263 5.046416688e-19)
(92.32902411 -11.24293535 1.077204966e-18)
(92.18398756 -11.29503423 1.629869045e-18)
(102.1246618 -0.5072436457 0)
(102.3990159 -0.2570210603 0)
(102.0448825 -1.029704743 0)
(102.3520801 -0.7787942197 0)
(101.9056072 -1.583394621 0)
(102.2627038 -1.317155923 0)
(101.5942893 -2.163343388 0)
(102.1126174 -1.906342168 0)
(101.8037857 -2.210845786 0)
(101.335212 -2.28359345 2.415139654e-19)
(101.63649 -2.34923614 0)
(101.3994257 -2.484074493 0)
(100.9586685 -2.978080975 0)
(101.2271077 -2.841592953 0)
(101.3216661 -3.062231459 0)
(101.0433536 -3.22798669 0)
(100.5190554 -3.823891434 -1.899114287e-19)
(100.8418322 -3.650095289 0)
(100.9556532 -3.913668312 -3.444207963e-21)
(100.5220636 -4.090655566 0)
(100.6818403 -4.121001397 6.228483262e-19)
(99.9297604 -4.653213896 -5.619616212e-19)
(100.1542758 -4.560866505 -6.585974629e-22)
(100.1939871 -4.708353865 -3.156588016e-20)
(99.95692617 -4.815156268 -3.133855319e-20)
(98.96899372 -5.76995765 -1.099157511e-18)
(99.26255616 -5.650897994 -1.06741826e-18)
(99.30313004 -5.822173701 -5.023503018e-19)
(99.00121259 -5.962314633 -5.278690661e-19)
(97.77589422 -7.214631176 -3.575702819e-20)
(98.1440234 -7.039451858 -2.705928367e-19)
(98.20866519 -7.25176774 2.54556259e-19)
(97.83743591 -7.458424696 2.56746616e-19)
(96.41787559 -9.248513211 7.084872422e-20)
(96.8716431 -8.973630678 1.022053903e-18)
(97.00378512 -9.249134308 5.343670406e-19)
(96.44009811 -9.574856992 6.825060825e-19)
(96.65890599 -9.574787129 6.825060825e-19)
(95.37174988 -11.90229369 3.088983779e-19)
(95.61346601 -11.77790081 9.256139507e-19)
(95.76215482 -11.96166549 4.404438613e-19)
(95.33503812 -12.06013226 3.089013728e-19)
(95.41915857 -12.2034828 1.438753803e-18)
(95.55618745 -12.20185613 2.960397101e-19)
(102.6212159 -0.5274624278 0)
(102.8945135 -0.2633684287 0)
(102.5632279 -1.069634566 0)
(102.8613682 -0.7985477769 0)
(102.4610781 -1.641509912 0)
(102.7999229 -1.349136961 0)
(102.2078125 -2.24503107 0)
(102.6930727 -1.941075605 0)
(102.420515 -2.273790202 0)
(101.9563249 -2.395156137 0)
(102.2736564 -2.421967738 0)
(102.0537374 -2.582852198 0)
(101.6872995 -3.116707822 0)
(101.9320745 -2.948159973 0)
(102.0525262 -3.143977377 0)
(101.8067765 -3.336926338 0)
(101.388405 -3.960780602 -3.451422845e-21)
(101.6732618 -3.754848794 0)
(101.814325 -3.972078445 -7.564736813e-22)
(101.4395899 -4.195435636 7.141881284e-20)
(101.5956707 -4.212021026 6.866015733e-20)
(100.9805347 -4.792808444 8.285651546e-20)
(101.176185 -4.676112285 -4.711341504e-19)
(101.2381342 -4.797695178 5.455794353e-20)
(101.0359772 -4.925385053 5.413025113e-20)
(100.2889064 -5.871665653 -1.478469756e-20)
(100.5404416 -5.733080503 0)
(100.6067858 -5.857270802 0)
(100.3560781 -6.027111481 -2.300863668e-19)
(99.46089743 -7.21072266 -1.086190734e-19)
(99.76236961 -7.006052918 -1.082664429e-19)
(99.85385225 -7.154154951 -1.594712148e-19)
(99.56144733 -7.378089174 -5.422579964e-20)
(98.65552142 -8.979959758 2.165127313e-19)
(98.99550615 -8.66647056 2.047086266e-19)
(99.15233554 -8.822976809 -1.279582448e-20)
(98.85191851 -9.165177258 -2.010884331e-19)
(98.6115396 -11.42982312 5.096627715e-19)
(98.74946285 -10.8523666 4.235283361e-19)
(98.76007527 -11.25487082 3.788654163e-19)
(93.79493358 -10.64657454 -2.26006061e-19)
(98.59874016 -11.67582851 -8.096126823e-19)
(103.1296912 -0.5338397478 0)
(103.3960311 -0.2634312724 0)
(103.0920601 -1.080815197 0)
(103.3751981 -0.7985134775 0)
(103.0245305 -1.653766729 0)
(103.3381842 -1.34767615 0)
(102.8254352 -2.264765754 0)
(103.2693979 -1.927085818 0)
(103.0338125 -2.269704699 0)
(102.5892133 -2.43170227 0)
(102.9056848 -2.425941069 0)
(102.7085487 -2.601671434 0)
(102.4126306 -3.146838 0)
(102.6303327 -2.959659819 0)
(102.7658097 -3.127990377 0)
(102.5527968 -3.335602142 0)
(102.2279818 -3.951533771 1.893643111e-22)
(102.4724562 -3.734500031 9.409547169e-22)
(102.6257989 -3.903781087 9.409857352e-22)
(102.3126018 -4.169175276 1.232464824e-19)
(102.4532115 -4.146756595 6.262329067e-22)
(101.9808015 -4.751211106 -2.743484073e-19)
(102.14242 -4.622252433 -2.821322969e-19)
(102.2148952 -4.717075688 -1.581883474e-20)
(102.0493119 -4.855532967 -3.648033946e-19)
(101.4996067 -5.745764178 -1.670950049e-19)
(101.7047026 -5.590856312 1.723090749e-20)
(101.7776565 -5.685660841 3.77304072e-19)
(101.5755216 -5.85087841 1.714896497e-20)
(100.9345483 -6.891180492 2.39960356e-21)
(101.1699706 -6.689613934 2.6777582e-19)
(101.2589314 -6.780141011 -8.969894931e-20)
(101.0359788 -6.991967551 -8.990786853e-20)
(100.4474212 -8.251779169 -7.167724396e-20)
(100.6868049 -7.975319086 -6.935621697e-20)
(100.8055317 -8.035020104 -4.327564911e-19)
(100.5972813 -8.31738393 -1.074749877e-20)
(98.70398007 -9.770444536 -3.255918393e-19)
(99.55834428 -9.316765595 1.212381979e-19)
(98.29963229 -9.213805773 0)
(94.40993221 -8.838373415 0)
(103.6372852 -0.5281045148 0)
(103.8921319 -0.2582237899 0)
(103.616833 -1.067319149 0)
(103.8817081 -0.781928855 0)
(103.5784031 -1.627959318 0)
(103.864849 -1.318213374 0)
(103.426962 -2.231628917 0)
(103.8274126 -1.873013653 0)
(103.6252438 -2.212314569 0)
(103.2107649 -2.405399368 0)
(103.5145151 -2.372612726 0)
(103.3417029 -2.554991873 0)
(103.1082017 -3.089905679 0)
(103.2979793 -2.894555413 0)
(103.4389909 -3.035099564 0)
(103.2571084 -3.246664787 0)
(103.0071384 -3.83282278 0)
(103.2153107 -3.615182177 0)
(103.3696175 -3.742210649 0)
(103.1032345 -4.024752474 0)
(103.2283177 -3.977385182 0)
(102.866771 -4.569568469 -1.244873989e-20)
(102.9940712 -4.43543112 8.427987693e-21)
(103.0674828 -4.506283949 7.535725291e-21)
(102.9373404 -4.646926384 -2.782598704e-20)
(102.5387934 -5.451984328 4.636733322e-19)
(102.7013385 -5.297303277 -3.10752314e-19)
(102.7662961 -5.358669856 1.263731569e-19)
(102.606277 -5.520224862 1.356960818e-19)
(102.1143852 -6.39359675 6.233099923e-19)
(102.2945199 -6.206620941 5.654199891e-20)
(102.3566797 -6.249229629 2.128187775e-19)
(102.1855717 -6.439624743 1.817121482e-20)
(101.7045392 -7.368574243 -2.488188486e-19)
(101.8763467 -7.141962612 1.546692647e-20)
(101.9627343 -7.152468002 -2.156650963e-19)
(101.8341806 -7.386287881 1.521914115e-19)
(96.06388357 -7.618790314 -9.6775116e-20)
(97.97938011 -7.642322583 8.503814684e-20)
(95.21285874 -7.1655789 -1.937343656e-19)
(93.43609209 -7.242717312 8.588944064e-20)
(104.1332696 -0.5125459519 0)
(104.373617 -0.2488406422 0)
(104.126412 -1.033938573 0)
(104.3714771 -0.7523322415 0)
(104.1107254 -1.571641338 0)
(104.3699664 -1.266834919 0)
(103.9980926 -2.153823751 0)
(104.3563311 -1.788456286 0)
(104.1827239 -2.115537718 0)
(103.8032546 -2.327884332 0)
(104.0876524 -2.274547169 0)
(103.9376473 -2.456584723 0)
(103.7554287 -2.966228174 0)
(103.9189668 -2.771034213 0)
(104.0577532 -2.885874999 0)
(103.9034483 -3.092844354 0)
(103.7115798 -3.635712915 0)
(103.8869894 -3.424639372 0)
(104.0324534 -3.516993382 0)
(103.8062962 -3.797107947 0)
(103.9152212 -3.735361868 0)
(103.62255 -4.284408787 0)
(103.7273993 -4.154514952 0)
(103.7930048 -4.20329809 0)
(103.6865179 -4.335992811 0)
(103.370118 -5.040958443 -2.914876674e-20)
(103.5001294 -4.891568791 1.597876875e-20)
(103.5474882 -4.925648501 3.034609883e-20)
(103.4171665 -5.077929255 5.893387643e-20)
(102.9694008 -5.794525832 -2.569925491e-19)
(103.1149222 -5.627505168 -2.569356655e-19)
(103.1412507 -5.638977011 -1.273766725e-19)
(102.9999727 -5.805981036 1.972852825e-19)
(102.616792 -6.528661211 -3.551063275e-19)
(102.7291916 -6.33769705 1.863255729e-19)
(102.774977 -6.324812803 -1.56559539e-19)
(102.5663357 -6.51199178 0)
(93.74143662 -6.250956856 2.302464885e-19)
(95.48158299 -6.259010221 -4.46309282e-20)
(93.76609839 -6.077223809 -2.103719117e-19)
(94.22348501 -6.467453486 -4.666463205e-20)
(104.6094109 -0.4894785477 0)
(104.8334326 -0.2363554308 0)
(104.6126128 -0.9854738538 0)
(104.8373891 -0.7131694371 0)
(104.6133773 -1.492690261 0)
(104.8464449 -1.199505742 0)
(104.5299139 -2.042892199 0)
(104.8491882 -1.682993601 0)
(104.6990643 -1.991791423 0)
(104.3555248 -2.212480535 0)
(104.6172956 -2.145291384 0)
(104.4872254 -2.321565127 0)
(104.3441766 -2.796481852 0)
(104.4846115 -2.607748458 0)
(104.6156878 -2.700211468 0)
(104.4840268 -2.896759228 0)
(104.3324536 -3.38955981 0)
(104.4808644 -3.19045619 0)
(104.6123302 -3.256679607 0)
(104.4171239 -3.522267168 0)
(104.5100427 -3.454533052 0)
(104.2617846 -3.947422339 0)
(104.3505187 -3.827686566 0)
(104.4049006 -3.859521001 0)
(104.3137955 -3.980022339 0)
(104.0212191 -4.570064725 0)
(104.1329639 -4.435338719 0)
(104.1620846 -4.451624234 0)
(104.0481333 -4.585275714 0)
(103.5891441 -5.170529096 -2.268267342e-20)
(103.7201724 -5.02222831 -1.351287322e-21)
(103.7212492 -5.017054235 -1.350609314e-21)
(103.5942756 -5.162836734 2.321281616e-20)
(103.0252918 -5.710676927 6.264852704e-20)
(103.1812138 -5.55498795 9.221952306e-20)
(103.064701 -5.509418883 6.226756018e-20)
(102.4756481 -5.629635495 4.336427632e-20)
(94.77918714 -5.670251765 -6.016942156e-22)
(95.2437547 -5.501646882 2.178974987e-20)
(95.17455329 -5.521280505 -1.0832993e-20)
(96.33997979 -5.832516542 -8.849612965e-20)
(105.0597856 -0.4611342335 0)
(105.2666216 -0.2217862936 0)
(105.0696898 -0.9266221725 0)
(105.2746441 -0.6676808808 0)
(105.0810471 -1.398736422 0)
(105.2899485 -1.121748994 0)
(105.0177536 -1.910498564 0)
(105.3024677 -1.565101657 0)
(105.1708503 -1.852015699 0)
(104.8619566 -2.07231341 0)
(105.0998894 -1.997096434 0)
(104.9865388 -2.163794389 0)
(104.8711818 -2.599077156 0)
(104.9923854 -2.421022313 0)
(105.1121095 -2.494845423 0)
(104.9981636 -2.677478432 0)
(104.8721659 -3.120879937 0)
(104.9991212 -2.93430577 0)
(105.1130153 -2.98390587 0)
(104.9414065 -3.221366838 0)
(105.0206595 -3.160039158 0)
(104.7972261 -3.593393844 0)
(104.8749368 -3.485173107 0)
(104.9169027 -3.504932095 0)
(104.8359235 -3.612559448 0)
(104.5403364 -4.102832254 0)
(104.6410998 -3.985108291 0)
(104.6531269 -3.989559477 0)
(104.5484257 -4.105162415 0)
(104.0708504 -4.575339519 0)
(104.1911631 -4.44898115 0)
(104.1731802 -4.435016025 0)
(104.0550816 -4.557900922 0)
(103.1816445 -4.949445987 0)
(103.4331369 -4.833052212 0)
(103.205945 -4.777230726 0)
(102.4433592 -4.858918111 0)
(96.01620314 -5.024529502 0)
(95.88389666 -4.84073413 0)
(96.24222334 -4.866056212 0)
(97.3849317 -5.081309699 0)
(105.4805743 -0.4295566383 0)
(105.6701701 -0.2060352859 0)
(105.4941901 -0.8616006779 0)
(105.6805072 -0.6187267808 0)
(105.5110138 -1.296394715 0)
(105.6984173 -1.038382783 0)
(105.4602595 -1.766042324 0)
(105.7150245 -1.441613328 0)
(105.5978028 -1.705034819 0)
(105.3206897 -1.918514579 0)
(105.5354567 -1.839887869 0)
(105.4353843 -1.99464999 0)
(105.3378484 -2.38905876 0)
(105.4437025 -2.223982668 0)
(105.5500971 -2.282952069 0)
(105.4493125 -2.449885039 0)
(105.3360094 -2.847155233 0)
(105.4472376 -2.673242821 0)
(105.5423161 -2.711747407 0)
(105.3889206 -2.919120855 0)
(105.4562258 -2.86656916 0)
(105.2446051 -3.243559704 0)
(105.3151408 -3.147001102 0)
(105.3446206 -3.158358797 0)
(105.2699983 -3.253459819 0)
(104.9569585 -3.661417385 0)
(105.0512336 -3.559180188 0)
(105.047918 -3.556303351 0)
(104.9485668 -3.655997361 0)
(104.4438976 -4.03630214 0)
(104.5583843 -3.929270988 0)
(104.5235551 -3.910799625 0)
(104.4076262 -4.01405835 0)
(103.2481212 -4.301846181 0)
(103.5724393 -4.210269004 0)
(103.2543013 -4.155147115 0)
(102.3938113 -4.216847284 0)
(96.84065059 -4.413408855 0)
(96.45318545 -4.241697463 0)
(97.01638521 -4.271787299 0)
(98.00782479 -4.428749128 0)
(105.8697586 -0.3964771236 0)
(106.0426203 -0.1898455911 0)
(105.8846244 -0.793905 0)
(106.0538302 -0.5686505929 0)
(105.9027184 -1.191048228 0)
(106.0714932 -0.9533618735 0)
(105.858499 -1.618208325 0)
(106.0877411 -1.31777254 0)
(105.9812769 -1.557409577 0)
(105.7330267 -1.759792701 0)
(105.9255154 -1.68122763 0)
(105.8360194 -1.823125674 0)
(105.7484193 -2.177605499 0)
(105.8423657 -2.026441546 0)
(105.9345515 -2.073829859 0)
(105.8433464 -2.224570499 0)
(105.733038 -2.578588234 0)
(105.833373 -2.41825742 0)
(105.9091329 -2.448251063 0)
(105.7698443 -2.62799219 0)
(105.8271671 -2.583458004 0)
(105.6186174 -2.910379599 0)
(105.6847115 -2.824933482 0)
(105.7023601 -2.830613379 0)
(105.6314754 -2.914091791 0)
(105.2940707 -3.254871752 0)
(105.3847026 -3.166308902 0)
(105.3680991 -3.159162498 0)
(105.2716989 -3.245122908 0)
(104.7358586 -3.55605782 0)
(104.848199 -3.465133273 0)
(104.7987525 -3.444871666 0)
(104.6806614 -3.532093019 0)
(103.2565156 -3.746922057 0)
(103.6450685 -3.673574034 0)
(103.2531277 -3.620756487 0)
(102.3233006 -3.66996711 0)
(97.48006547 -3.874382557 0)
(96.94875808 -3.723042667 0)
(97.61513786 -3.750645757 0)
(98.44913629 -3.866846912 0)
(106.2268029 -0.3632641947 0)
(106.3838702 -0.1737911768 0)
(106.2410254 -0.7262626989 0)
(106.394812 -0.5192316592 0)
(106.2571982 -1.086712513 0)
(106.4100993 -0.869682794 0)
(106.2148131 -1.472577548 0)
(106.4226756 -1.197436874 0)
(106.3240032 -1.413929984 0)
(106.1013789 -1.602590111 0)
(106.2731356 -1.526536138 0)
(106.1918408 -1.655424372 0)
(106.1082665 -1.972301548 0)
(106.1932202 -1.835103297 0)
(106.2711899 -1.873484384 0)
(106.1867607 -2.008527562 0)
(106.0722614 -2.321359495 0)
(106.1658997 -2.17654967 0)
(106.2233678 -2.198620559 0)
(106.0939072 -2.358179222 0)
(106.1423957 -2.316651025 0)
(105.9319286 -2.600790436 0)
(105.9953657 -2.525658279 0)
(106.0021751 -2.527448043 0)
(105.9333717 -2.60044757 0)
(105.5694236 -2.886403306 0)
(105.658144 -2.809711614 0)
(105.6302622 -2.800272833 0)
(105.5353795 -2.874483207 0)
(104.9673983 -3.131355637 0)
(105.0799714 -3.05377585 0)
(105.0176135 -3.033296412 0)
(104.894613 -3.107237268 0)
(103.2349653 -3.26918207 0)
(103.6772738 -3.20968146 0)
(103.2270763 -3.160424352 0)
(102.2514643 -3.201282282 0)
(97.96883299 -3.403699859 0)
(97.3693308 -3.274147832 0)
(98.07109034 -3.295750302 0)
(98.76334462 -3.383015689 0)
(106.5523075 -0.3309370588 0)
(106.6947521 -0.1583006087 0)
(106.5644946 -0.6606800583 0)
(106.7045553 -0.4717655 0)
(106.5764613 -0.9862657408 0)
(106.7159541 -0.7894983281 0)
(106.5324411 -1.333065682 0)
(106.7225222 -1.083313349 0)
(106.629305 -1.27784568 0)
(106.4291543 -1.451402645 0)
(106.5819384 -1.379510249 0)
(106.5069616 -1.495714841 0)
(106.4231345 -1.777791215 0)
(106.5014475 -1.654209837 0)
(106.5655989 -1.685518253 0)
(106.4858681 -1.805856411 0)
(106.3633834 -2.080542055 0)
(106.4528647 -1.951478611 0)
(106.4931671 -1.967441132 0)
(106.3700083 -2.108707723 0)
(106.4112769 -2.070572443 0)
(106.1951278 -2.317492961 0)
(106.2571659 -2.251623927 0)
(106.2543342 -2.250895681 0)
(106.1864811 -2.31464451 0)
(105.7964913 -2.555883758 0)
(105.8843201 -2.489431492 0)
(105.8469785 -2.479001043 0)
(105.7527726 -2.543170019 0)
(105.1527753 -2.757227299 0)
(105.2672387 -2.690821567 0)
(105.1931651 -2.670984475 0)
(105.0635824 -2.733812459 0)
(103.2006297 -2.857141186 0)
(103.6862098 -2.80823275 0)
(103.1913902 -2.763235938 0)
(102.1895629 -2.798397965 0)
(98.33725922 -2.99324268 0)
(97.72039056 -2.884334669 0)
(98.41381462 -2.899155769 0)
(98.9862864 -2.965820125 0)
(106.8476559 -0.3002223485 0)
(106.9767971 -0.1436795184 0)
(106.8568223 -0.5985695316 0)
(106.9848233 -0.4271522287 0)
(106.8630284 -0.8916819165 0)
(106.9913196 -0.7142733472 0)
(106.8148943 -1.202239819 0)
(106.9903329 -0.9771724965 0)
(106.9007161 -1.151268293 0)
(106.720078 -1.309213725 0)
(106.8557354 -1.242526732 0)
(106.7855445 -1.346656516 0)
(106.6984371 -1.596931298 0)
(106.7719794 -1.486343026 0)
(106.8230154 -1.512178822 0)
(106.7462737 -1.618950755 0)
(106.6135357 -1.859500239 0)
(106.7006035 -1.745250203 0)
(106.7252123 -1.756811936 0)
(106.6060563 -1.881399858 0)
(106.6413089 -1.846871436 0)
(106.4172568 -2.061340896 0)
(106.4787629 -2.00373582 0)
(106.4673823 -2.001514074 0)
(106.3997696 -2.05709053 0)
(105.985512 -2.261676203 0)
(106.0730277 -2.204076147 0)
(106.027783 -2.193530137 0)
(105.9337543 -2.249069308 0)
(105.3021421 -2.428595088 0)
(105.4196378 -2.371682412 0)
(105.3347937 -2.352981898 0)
(105.1977699 -2.406436779 0)
(103.1640013 -2.501355089 0)
(103.6830086 -2.460682383 0)
(103.1552534 -2.420252245 0)
(102.142826 -2.451370965 0)
(98.61223033 -2.635739028 0)
(98.01064662 -2.545149442 0)
(98.6691142 -2.553870797 0)
(99.14345087 -2.605696541 0)
(107.1147502 -0.2716144504 0)
(107.2319514 -0.1301362602 0)
(107.1202331 -0.5408749321 0)
(107.2377525 -0.385989641 0)
(107.1196877 -0.804233994 0)
(107.2387188 -0.644957993 0)
(107.0657582 -1.081668453 0)
(107.2292366 -0.880088573 0)
(107.1417704 -1.035430665 0)
(106.9779527 -1.177857504 0)
(107.0983203 -1.116961328 0)
(107.0316666 -1.209808008 0)
(106.9392157 -1.431382912 0)
(107.0094541 -1.332929255 0)
(107.0482443 -1.354604064 0)
(106.9732014 -1.448985006 0)
(106.8289119 -1.659392605 0)
(106.914854 -1.558705238 0)
(106.925232 -1.56724386 0)
(106.8084909 -1.676684292 0)
(106.8387102 -1.645808627 0)
(106.6056345 -1.831999536 0)
(106.6671796 -1.78173138 0)
(106.6482696 -1.778754651 0)
(106.5804587 -1.827123572 0)
(106.1442606 -2.00148559 0)
(106.2317943 -1.951565104 0)
(106.1799333 -1.941473737 0)
(106.0857385 -1.989543918 0)
(105.4230979 -2.14080513 0)
(105.5443515 -2.09203152 0)
(105.4496059 -2.074760519 0)
(105.3048341 -2.120253083 0)
(103.1309889 -2.194096186 0)
(103.67461 -2.159946724 0)
(103.1236941 -2.12411558 0)
(102.112703 -2.152180201 0)
(98.81623952 -2.3249413 0)
(98.24972369 -2.25001246 0)
(98.85833487 -2.253933586 0)
(99.25324203 -2.294829093 0)
(107.3558361 -0.2454248269 0)
(107.4625032 -0.1177978859 0)
(107.3572235 -0.4881748976 0)
(107.4657792 -0.3486286015 0)
(107.3493581 -0.7246613119 0)
(107.4608739 -0.5820926853 0)
(107.2885172 -0.9721973778 0)
(107.4423948 -0.7925997037 0)
(107.3559026 -0.9309434112 0)
(107.2064407 -1.058350135 0)
(107.3132938 -1.003516188 0)
(107.2491544 -1.085949925 0)
(107.1499936 -1.28187725 0)
(107.2180806 -1.194587914 0)
(107.2455728 -1.213177592 0)
(107.1712556 -1.296327442 0)
(107.0147888 -1.480297613 0)
(107.1005566 -1.39187268 0)
(107.0981136 -1.398471191 0)
(106.9826515 -1.494225468 0)
(107.0086557 -1.466933 0)
(106.7661674 -1.628501914 0)
(106.8281173 -1.584723196 0)
(106.8026272 -1.581513452 0)
(106.7343553 -1.623540768 0)
(106.2786041 -1.772838005 0)
(106.3663733 -1.729599041 0)
(106.3089281 -1.720313829 0)
(106.2142927 -1.761883311 0)
(105.5214542 -1.889780136 0)
(105.6468773 -1.848018287 0)
(105.5430653 -1.832339217 0)
(105.3905973 -1.871026483 0)
(103.1045534 -1.929119871 0)
(103.665202 -1.900231224 0)
(103.0991415 -1.868865846 0)
(102.0986156 -1.89446933 0)
(98.96711289 -2.055713463 0)
(98.44678057 -1.993889887 0)
(98.9982062 -1.994359169 0)
(99.32882287 -2.026993248 0)
(107.5733756 -0.2218257571 0)
(107.6708861 -0.1067338756 0)
(107.57044 -0.4407737429 0)
(107.6714475 -0.31524709 0)
(107.5549889 -0.653310195 0)
(107.6605304 -0.5259359974 0)
(107.4865347 -0.8741495874 0)
(107.6328614 -0.7148949772 0)
(107.5463932 -0.8379782417 0)
(107.4090641 -0.951103097 0)
(107.5040828 -0.9023860598 0)
(107.4416123 -0.9753035627 0)
(107.3348669 -1.148493155 0)
(107.4017151 -1.071367544 0)
(107.4188734 -1.087759637 0)
(107.3445421 -1.160788425 0)
(107.1757243 -1.321663276 0)
(107.262016 -1.244252999 0)
(107.248076 -1.249758761 0)
(107.1330654 -1.333196962 0)
(107.1555438 -1.309352853 0)
(106.9037125 -1.449497686 0)
(106.9662851 -1.411453841 0)
(106.9350766 -1.408393945 0)
(106.8661995 -1.444838406 0)
(106.3930704 -1.573227105 0)
(106.4812374 -1.535833396 0)
(106.4190177 -1.527577102 0)
(106.3237188 -1.563451655 0)
(105.6017547 -1.671896279 0)
(105.7315325 -1.636213582 0)
(105.6194479 -1.622219593 0)
(105.4595682 -1.655046217 0)
(103.0859054 -1.701295767 0)
(103.6572314 -1.676735488 0)
(103.0824953 -1.649626965 0)
(102.0990576 -1.673105707 0)
(99.07850172 -1.823459629 0)
(98.60985174 -1.772479511 0)
(99.10144914 -1.77067857 0)
(99.37959052 -1.796904712 0)
(107.7698993 -0.200893245 0)
(107.859605 -0.09697229172 0)
(107.7625432 -0.3987893228 0)
(107.8573407 -0.2859008247 0)
(107.7394481 -0.5902704436 0)
(107.8404075 -0.4765508075 0)
(107.6629631 -0.7875219688 0)
(107.803558 -0.6469296105 0)
(107.7163173 -0.7564355762 0)
(107.5891065 -0.8561480051 0)
(107.6738659 -0.8134718224 0)
(107.6123527 -0.8777541608 0)
(107.4974823 -1.030932808 0)
(107.5638255 -0.962988361 0)
(107.5715929 -0.9779304763 0)
(107.4966687 -1.041875528 0)
(107.315613 -1.182631044 0)
(107.4029379 -1.11508227 0)
(107.3787166 -1.120136488 0)
(107.2635648 -1.192549135 0)
(107.2831105 -1.171969252 0)
(107.0222737 -1.293509459 0)
(107.085589 -1.260539441 0)
(107.0494285 -1.257927921 0)
(106.9798705 -1.289443588 0)
(106.4912166 -1.400310551 0)
(106.5799133 -1.368066724 0)
(106.5135549 -1.3609941 0)
(106.4174143 -1.39184355 0)
(105.6675843 -1.484007439 0)
(105.801743 -1.453637903 0)
(105.6821313 -1.441389441 0)
(105.5152698 -1.469121686 0)
(103.0751955 -1.506388695 0)
(103.6520089 -1.485467931 0)
(103.0737043 -1.462370517 0)
(102.1120597 -1.48388062 0)
(99.16070963 -1.624130868 0)
(98.7456586 -1.582088322 0)
(99.17766863 -1.579029888 0)
(99.41237193 -1.600139452 0)
(107.9480084 -0.1826355035 0)
(108.0311825 -0.08851561322 0)
(107.9362153 -0.3622119444 0)
(108.0260352 -0.2605685495 0)
(107.9055508 -0.5354562708 0)
(108.0031625 -0.4338698146 0)
(107.82077 -0.7121398034 0)
(107.9572954 -0.5885383561 0)
(107.8685575 -0.6860623667 0)
(107.749627 -0.7732842871 0)
(107.8255814 -0.736487255 0)
(107.7644253 -0.7929890313 0)
(107.6411032 -0.9286950334 0)
(107.7075512 -0.8689843863 0)
(107.7068408 -0.8831308394 0)
(107.6308349 -0.9389508051 0)
(107.4377178 -1.062095574 0)
(107.5264874 -1.003531804 0)
(107.4929823 -1.008315608 0)
(107.377472 -1.071333148 0)
(107.3946458 -1.053382449 0)
(107.1252099 -1.159085892 0)
(107.1893532 -1.130613526 0)
(107.1489008 -1.128688445 0)
(107.0786068 -1.155830627 0)
(106.5759169 -1.251968662 0)
(106.6652648 -1.224281679 0)
(106.5952792 -1.218494128 0)
(106.498148 -1.244890951 0)
(105.7218087 -1.323392175 0)
(105.8602751 -1.297689397 0)
(105.7338347 -1.287214304 0)
(105.5604894 -1.310489897 0)
(103.0718773 -1.340864905 0)
(103.6500459 -1.323071083 0)
(103.0721052 -1.303725096 0)
(102.1354261 -1.323313745 0)
(99.22159399 -1.45439761 0)
(98.85991176 -1.419723057 0)
(99.23422057 -1.416267381 0)
(99.43226913 -1.433162767 0)
(108.110082 -0.167029078 0)
(108.1880894 -0.08134602595 0)
(108.0938956 -0.3309649894 0)
(108.180028 -0.2391789457 0)
(108.0558209 -0.4886908379 0)
(108.15133 -0.3977538634 0)
(107.9626598 -0.6475647019 0)
(108.0966314 -0.539437409 0)
(108.0057785 -0.6264663373 0)
(107.8934322 -0.7021645295 0)
(107.9619882 -0.6710679415 0)
(107.9006356 -0.7205472461 0)
(107.7687009 -0.8411703488 0)
(107.8357588 -0.7887955772 0)
(107.8274374 -0.8027038318 0)
(107.7499751 -0.8513177193 0)
(107.5449174 -0.9586847897 0)
(107.6355902 -0.908803363 0)
(107.5938568 -0.9131350507 0)
(107.4775429 -0.9693897931 0)
(107.4926719 -0.9524174339 0)
(107.2152612 -1.04490426 0)
(107.2802468 -1.020455464 0)
(107.2360716 -1.019361314 0)
(107.1650291 -1.042611598 0)
(106.6495349 -1.126313195 0)
(106.7396376 -1.102680685 0)
(106.666443 -1.098249037 0)
(106.5682029 -1.120681783 0)
(105.7667538 -1.187706367 0)
(105.9093911 -1.16612957 0)
(105.7767711 -1.157444608 0)
(105.5974658 -1.176794392 0)
(103.0751256 -1.20187882 0)
(103.6514531 -1.186826567 0)
(103.0768733 -1.171003651 0)
(102.1671286 -1.188687312 0)
(99.267111 -1.311618992 0)
(98.95739766 -1.283061892 0)
(99.27662521 -1.279859075 0)
(99.44304768 -1.293191154 0)
(108.2591458 -0.1540020168 0)
(108.3327588 -0.07545882826 0)
(108.2385855 -0.304909611 0)
(108.3217827 -0.2216807393 0)
(108.1932596 -0.4497095986 0)
(108.287355 -0.3680512641 0)
(108.0913751 -0.5936564565 0)
(108.2242215 -0.4995318262 0)
(108.1305532 -0.5774046121 0)
(108.0232187 -0.6424038561 0)
(108.0855297 -0.6167517035 0)
(108.023592 -0.6599907542 0)
(107.8829548 -0.7676461908 0)
(107.951062 -0.7218043068 0)
(107.9359306 -0.7358954384 0)
(107.8567293 -0.7781944906 0)
(107.6401529 -0.8716513108 0)
(107.7330482 -0.8298804089 0)
(107.6842314 -0.8342982502 0)
(107.5662367 -0.8849665327 0)
(107.5795906 -0.8686452481 0)
(107.2946658 -0.9496247608 0)
(107.3604977 -0.9287611144 0)
(107.313121 -0.9285959837 0)
(107.2413147 -0.9484097865 0)
(106.7140475 -1.021678304 0)
(106.805004 -1.001653229 0)
(106.7289602 -0.9986282585 0)
(106.6295051 -1.017529958 0)
(105.804341 -1.074953484 0)
(105.9509779 -1.05703382 0)
(105.8127827 -1.05014272 0)
(105.6280393 -1.06602119 0)
(103.084182 -1.087093378 0)
(103.6562358 -1.074459902 0)
(103.0872648 -1.061931173 0)
(102.2055071 -1.077742101 0)
(99.30160167 -1.193392528 0)
(99.04187761 -1.169927101 0)
(99.30889634 -1.167401017 0)
(99.44741299 -1.177693345 0)
(108.3955146 -0.1435791863 0)
(108.4676369 -0.07077591576 0)
(108.3707308 -0.2840059615 0)
(108.4536923 -0.2078945433 0)
(108.3183987 -0.4184194092 0)
(108.4136228 -0.3445319155 0)
(108.2087038 -0.5487192318 0)
(108.3415749 -0.4677298123 0)
(108.245124 -0.5379675857 0)
(108.1411197 -0.593488707 0)
(108.1991844 -0.5731932729 0)
(108.1357286 -0.6105330898 0)
(107.986278 -0.7073906312 0)
(108.0558708 -0.6673649356 0)
(108.0346267 -0.6821314406 0)
(107.953348 -0.7188298308 0)
(107.7261943 -0.8010965304 0)
(107.8211627 -0.7657033845 0)
(107.7661007 -0.7718877548 0)
(107.6458734 -0.8145630909 0)
(107.658042 -0.8018083786 0)
(107.365508 -0.871902799 0)
(107.4322694 -0.8541596935 0)
(107.3821742 -0.8551098895 0)
(107.3095031 -0.8718995272 0)
(106.7712036 -0.936595742 0)
(106.8631223 -0.9197890256 0)
(106.7845321 -0.9182354738 0)
(106.6837547 -0.9339758502 0)
(105.836185 -0.9834165049 0)
(105.9866346 -0.9687619392 0)
(105.8434127 -0.9636765276 0)
(105.6537313 -0.9764551341 0)
(103.0982628 -0.9944446321 0)
(103.6642281 -0.983994155 0)
(103.102464 -0.9745360944 0)
(102.2490302 -0.988465988 0)
(99.3282991 -1.09747882 0)
(99.11633012 -1.078280692 0)
(99.33406767 -1.076777606 0)
(99.44744174 -1.084420748 0)
(108.5294194 -0.1354380923 0)
(108.5948747 -0.06748358258 0)
(108.5000948 -0.2678223447 0)
(108.5780543 -0.1981556399 0)
(108.4402906 -0.3943080399 0)
(108.5324502 -0.3276742018 0)
(108.3194265 -0.5158924015 0)
(108.4524677 -0.4457676557 0)
(108.3533658 -0.5088035122 0)
(108.2507628 -0.5552251696 0)
(108.3043222 -0.5396733262 0)
(108.2395115 -0.5729100801 0)
(108.080841 -0.660107757 0)
(108.1522388 -0.6253124408 0)
(108.1254836 -0.6411792176 0)
(108.0418239 -0.6728323177 0)
(107.8042803 -0.7464784616 0)
(107.9015229 -0.7160310422 0)
(107.8409551 -0.7247394273 0)
(107.7186364 -0.7596288778 0)
(107.7298224 -0.7505176875 0)
(107.429835 -0.8109300002 0)
(107.497637 -0.7959934123 0)
(107.4451103 -0.7982206316 0)
(107.3714947 -0.8122527585 0)
(106.8225591 -0.8699062725 0)
(106.9155545 -0.8560024934 0)
(106.8346548 -0.8559966438 0)
(106.7324522 -0.8688771506 0)
(105.8636386 -0.911722181 0)
(106.0177178 -0.9000159393 0)
(105.8699565 -0.8967687287 0)
(105.6757919 -0.9067407835 0)
(103.1164733 -0.9222951704 0)
(103.6750731 -0.9138870975 0)
(103.1215708 -0.9073146039 0)
(102.2962145 -0.9193130042 0)
(99.34975868 -1.022231511 0)
(99.18326059 -1.006664538 0)
(99.35455345 -1.006509001 0)
(99.44483037 -1.011768082 0)
(108.632285 -0.130573904 0)
(108.7175357 -0.06485592912 0)
(108.5996281 -0.2575423638 0)
(108.6973219 -0.1908209458 0)
(108.5344883 -0.3788193375 0)
(108.6463777 -0.3150219681 0)
(108.4157335 -0.4937157909 0)
(108.5575306 -0.4282643761 0)
(108.4479006 -0.4876039707 0)
(108.3524953 -0.5266385209 0)
(108.4009643 -0.5175822449 0)
(108.3355921 -0.5453143696 0)
(108.1685837 -0.6252821375 0)
(108.2419227 -0.594921173 0)
(108.2106377 -0.6124134212 0)
(108.1240212 -0.6396856948 0)
(107.8764015 -0.7066200177 0)
(107.9760036 -0.6802538226 0)
(107.9107149 -0.6919177578 0)