/*--------------------------------*- C++ -*----------------------------------*\
| =========                 |                                                 |
| \\      /  F ield         | OpenFOAM: The Open Source CFD Toolbox           |
|  \\    /   O peration     | Version:  v2012                                 |
|   \\  /    A nd           | Website:  www.openfoam.com                      |
|    \\/     M anipulation  |                                                 |
\*---------------------------------------------------------------------------*/
FoamFile
{
    version     2.0;
    format      ascii;
    class       volScalarField;
    location    "0.54";
    object      k;
}
// * * * * * * * * * * * * * * * * * * * * * * * * * * * * * * * * * * * * * //

dimensions      [0 2 -2 0 0 0 0];


internalField   nonuniform List<scalar> 
3259
(
34.93906072
34.95799257
35.00789368
35.11756668
35.29246162
35.6427834
36.22339273
36.8567457
37.78310378
39.11518742
41.46808474
43.83332688
34.81832771
34.84078911
34.89972308
35.02444742
35.22676677
35.62766717
36.26402409
36.94223429
37.9380853
39.387592
41.97434486
42.46081539
34.70406718
34.72984034
34.79691764
34.93547539
35.15592613
35.59230279
36.27229008
37.01515109
38.08879482
39.64106432
42.29572242
38.74097284
34.59272634
34.62154273
34.69567572
34.84691433
35.08443628
35.54837418
36.26557652
37.08654366
38.26636897
39.9533499
42.50963709
33.37965491
34.48333281
34.51479813
34.59454651
34.75633889
35.00856159
35.49293352
36.23696351
37.11883909
38.44186724
40.3018977
42.20095495
26.87915693
34.3720375
34.40575619
34.4900029
34.66080053
34.92579556
35.42418353
36.185979
37.09578825
38.51983757
40.48923958
41.0892456
26.24786902
34.25978225
34.2953092
34.3827657
34.56015916
34.83476245
35.34189431
36.11367319
37.03820434
38.47251539
40.37257281
39.22489714
28.46498179
34.14272692
34.17968296
34.26963771
34.45253639
34.7351944
35.24703952
36.02286287
36.95411088
38.37772941
40.0875419
37.86896399
29.01022612
34.02438313
34.06237633
34.15386899
34.33998953
34.62749926
35.14121264
35.91692275
36.84939549
38.24946169
39.73344212
36.63886283
28.94108859
33.89993314
33.93869824
34.03152076
34.22068122
34.51268628
35.02625266
35.79908456
36.72894235
38.09478446
39.33608999
35.50168371
28.787095
33.77595658
33.81521475
33.90866076
34.09873697
34.39187752
34.90400016
35.67217469
36.59659144
37.91912888
38.91807495
34.46667384
28.52874061
33.64494459
33.68457732
33.77886031
33.97080908
34.26645999
34.77620368
35.53856624
36.45532833
37.72654604
38.48732128
33.53346025
28.17276905
33.51763648
33.55746026
33.65194349
33.84342524
34.13748338
34.644397
35.40027744
36.30742385
37.51965754
38.05193554
32.69616361
27.73889596
33.38147363
33.42148312
33.51668749
33.70985831
34.00614365
34.50984411
35.25890784
36.15444001
37.30038334
37.61894539
31.94625331
27.25160019
33.25374144
33.2938055
33.38901845
33.58075146
33.8730319
34.37354594
35.11562665
35.99734399
37.07100748
37.19275663
31.27490904
26.73186142
33.11329972
33.15348439
33.24945257
33.4432796
33.73913958
34.23625837
34.97120186
35.83668613
36.83394459
36.77558223
30.67323299
26.19892551
32.98824365
33.02844258
33.12433626
33.31583403
33.60455524
34.09856334
34.82614846
35.67288653
36.59188704
36.36877121
30.13279071
25.6618168
32.84321657
32.88353551
32.98023991
33.17456661
33.47031146
33.96092795
34.68080083
35.5063585
36.34681214
35.97314328
29.64630681
25.12631112
32.72436772
32.76471157
32.86135617
33.05254261
33.3359548
33.82371336
34.53539852
35.33755372
36.10009116
35.58905362
29.20676096
24.59768267
32.57284291
32.61334044
32.71079007
32.90547789
33.20290199
33.68725931
34.39015558
35.16694435
35.85305175
35.21658816
28.80736653
24.08160874
32.46480798
32.50536102
32.60289777
32.79424954
33.06997912
33.55186858
34.24532351
34.99496689
35.60682945
34.85558113
28.44237216
23.58240995
32.30269769
32.34345702
32.44169715
32.63599249
32.93974598
33.41811072
34.10130173
34.82207728
35.36221219
34.50569782
28.10664989
23.10363727
32.21179027
32.25265905
32.35121994
32.544518
32.81054542
33.28708707
33.9593601
34.64866463
35.11990345
34.16669374
27.7961192
22.64808167
32.00478764
32.04599354
32.14549041
32.34118847
32.68911269
33.16178723
33.82407467
34.47554237
34.88107806
33.84107169
27.50910333
22.21798063
43.87147925
42.92869774
41.36741959
43.94494321
41.88138313
43.44621531
43.90471209
43.52278396
32.60585747
35.24659405
41.49373994
35.39760211
33.27950635
40.08784674
32.54790109
43.47611827
32.06750534
76.6284365
33.19431073
32.07835948
48.04472983
34.29660467
41.56218554
41.07822701
42.17669214
41.73554391
34.43885003
37.14765344
42.73186154
42.32128179
42.86030744
37.292547
35.4989498
35.36904685
40.8931744
40.43490966
32.17409859
33.1264504
42.04124428
42.17780114
32.77578297
69.53491212
42.57673496
60.98892766
32.70089747
45.48738711
41.11652619
42.22676237
42.99284021
43.35162661
41.96514739
34.17651263
41.67593458
33.00351008
38.17099614
37.75369513
68.91890639
51.13233223
35.94931516
34.16859678
38.84487649
39.14046378
38.34503482
37.6182158
37.22021392
32.41102322
41.13209906
32.04273135
88.02809371
43.77242193
42.14102295
46.30854794
33.02257953
32.17457839
38.75726506
38.29515756
33.37234046
34.78237833
39.27152857
38.88779396
35.83198516
34.75998576
32.36083377
37.03315167
36.35696827
70.4999201
77.80403399
31.97609083
81.73820308
61.28441589
41.68301791
32.95744357
69.23020677
45.47597962
79.64206992
47.45974992
32.2922948
39.75943248
39.39240139
34.89850857
36.21555546
40.26403689
39.87999489
32.4554927
32.49126101
33.41532342
32.04867603
33.13472163
32.41258334
32.43638928
32.09772851
40.7436887
40.38710296
36.54918535
37.68849364
41.17181277
40.85036038
33.569043
33.63390744
35.60903272
35.23436581
33.40049018
33.48961542
32.2715555
33.17710075
32.51474574
109.7318733
32.39752473
41.73763293
56.18398341
50.36330685
32.17768698
32.21030739
32.82826217
68.14668351
73.70905868
71.28509391
54.59367273
32.64162905
32.12852012
32.15395956
42.05805329
32.84547284
32.80321196
32.5795783
33.67635416
32.5390752
32.66818849
34.54746105
33.70321896
39.52878449
32.45719074
34.05255018
33.91247401
32.02387449
86.29536138
87.8567765
62.90581292
77.58254178
67.14828766
32.33999564
32.38145097
33.08345873
32.13234504
32.6777356
32.62509955
32.75950731
32.72486508
32.99851076
33.27246876
35.03141472
32.44890218
32.40354456
32.57363956
32.51124431
33.8230967
33.55312952
32.25511852
68.78429496
94.21258402
99.79541925
93.66367685
94.66846633
74.00530081
32.17251681
72.07443614
52.70303382
56.51635825
32.89165021
32.23592613
32.29361111
69.30953298
76.92461024
74.90745614
60.85084953
67.40138242
82.01256346
77.19748929
50.71917599
72.87904277
63.86017219
32.36660309
32.07512829
32.42494055
36.8415131
37.49698822
37.74916192
38.67127382
39.05650019
40.62075226
36.92406305
37.62948037
37.52490982
37.90291658
38.90520493
38.72435682
39.32725117
41.0706634
40.70960179
41.58512233
42.70790032
42.54640819
43.70472838
42.58711844
42.91785944
36.99705405
37.75529846
37.6600661
38.04853913
39.12181883
38.95768315
39.57372403
41.41902801
41.16539512
42.06561876
42.92412273
43.03064306
42.35429274
39.23813803
40.01462339
37.07081114
37.9002141
37.78973751
38.21987723
39.3830905
39.18170606
39.86839005
41.75633511
41.50015708
42.48907943
41.36592573
42.73398169
35.27988478
37.11726534
38.04548733
37.93794017
38.40351565
39.69798842
39.45805721
40.22503841
41.99600219
41.84262124
42.33655278
36.77141511
40.6353806
27.74821136
37.10540132
38.11542568
38.07315623
38.51508705
39.92609037
39.76999675
40.4660858
41.67639695
41.97667495
41.47189631
28.25691363
34.36771649
26.02273903
37.05544249
38.08017321
38.11355076
38.48991498
39.92731347
39.95831273
40.42905712
40.82427039
41.50726181
39.68771345
25.42322855
27.07576202
27.86417265
36.97732593
38.00091179
38.06364629
38.40488651
39.75102953
39.89038835
40.16633086
39.86890331
40.56530873
38.18983681
23.79700403
24.99208866
29.02259221
36.87723818
37.89139234
37.97605434
38.28424606
39.51154722
39.69632298
39.82697987
38.94657692
39.63707276
36.93820353
22.45547932
23.42320353
28.96426975
36.76029764
37.75836831
37.86011106
38.13560481
39.22829961
39.44431213
39.43801759
38.05223425
38.7195951
35.77661002
21.44880459
22.17677285
28.83485532
36.63061203
37.60677482
37.72203731
37.9647641
38.90944286
39.15166964
39.02407223
37.20159448
37.83507026
34.71577731
20.67859607
21.23697582
28.60304094
36.49133429
37.44028643
37.56641672
37.77610759
38.56434699
38.82512349
38.59572003
36.40201412
36.99679067
33.75749803
20.07615401
20.51411012
28.26979091
36.34491706
37.26154786
37.39666097
37.572624
38.20525397
38.47533951
38.16080639
35.65569595
36.21044744
32.8969744
19.59208076
19.94513724
27.85319325
36.19309086
37.07218105
37.2151416
37.35623927
37.84110416
38.11457605
37.72667426
34.96179576
35.47740758
32.12604767
19.19659494
19.48537715
27.37704386
36.03696057
36.87349423
37.0233204
37.1291608
37.47529934
37.74964964
37.29851808
34.31795195
34.79626922
31.43590253
18.86633065
19.10820309
26.86323237
35.87715612
36.66693289
36.82252129
36.8937727
37.11106238
37.38399436
36.87895741
33.72089062
34.16445854
30.81764819
18.58621068
18.79122923
26.33256883
35.71410109
36.45418532
36.61423788
36.65275535
36.75096935
37.02055014
36.46944861
33.16673991
33.57848117
30.26260581
18.34936356
18.52237308
25.79566315
35.54821373
36.23700733
36.40023455
36.40826154
36.39672156
36.66180839
36.0709746
32.65196896
33.03451002
29.76326344
18.14991161
18.2952563
25.25894133
35.37993424
36.01686092
36.18219352
36.16184707
36.04925678
36.3091893
35.68398318
32.17305811
32.52905057
29.3126145
17.98234458
18.10421997
24.72742091
35.20973479
35.79504567
35.96150022
35.91476874
35.70917845
35.96352187
35.30861786
31.72642264
32.05855576
28.90367768
17.84186745
17.94364867
24.20660747
35.03805644
35.57257035
35.73945126
35.66826066
35.37683453
35.62535717
34.94476566
31.30865223
31.6194982
28.53033152
17.72661394
17.80960195
23.70090831
34.86535779
35.35017413
35.51693165
35.42315784
35.05233154
35.29497578
34.59210547
30.91636932
31.20859756
28.18698111
17.63460852
17.70037542
23.21330153
34.69203826
35.12830331
35.29462917
35.18022039
34.73550533
34.97244452
34.25001928
30.54591758
30.82277128
27.8680744
17.56380283
17.61446476
22.74583898
34.51832989
34.90722177
35.07300737
34.93925709
34.42508621
34.65779853
33.91649967
30.1925913
30.45970501
27.56811332
17.51210964
17.5496082
22.29924728
34.33389435
34.67335621
34.85343529
34.68492763
34.10028094
34.35331052
33.56905134
29.83236135
30.11991085
27.26612759
17.47706655
17.50391668
21.84638938
43.02433473
43.32726922
43.98727679
40.20029457
40.7588329
43.09479582
43.74929082
42.48912996
42.29437542
41.25683512
44.0494393
42.82076309
42.96649211
42.99558409
42.75142513
41.66817894
43.71563577
43.17739093
43.38222462
43.01188912
43.14524412
43.77077373
42.1092705
42.46760234
43.66257225
32.67648354
34.49560211
34.35535447
37.13288492
36.99197489
35.1220661
28.61421806
33.2951524
41.72731059
48.05983329
42.95132936
44.27169287
44.87065478
35.59754745
37.46248733
37.28648348
41.27066026
37.82030925
44.02358861
43.42246302
40.97578659
33.39232031
32.80523829
34.24751703
34.13184596
32.50150621
43.32715615
41.58758703
41.97320786
75.0863402
72.51749016
68.98653535
36.0088502
35.82888022
34.13237107
41.42401062
40.06726903
40.18902762
39.00867618
39.53641393
41.23591341
42.03375632
40.84654728
41.03517817
40.45444612
40.6333131
41.87885332
34.55067758
36.30803229
36.16842229
38.63304638
38.48312256
36.99195447
42.59851125
41.61252978
41.79318083
41.23145635
41.42262455
42.46114142
43.10722378
42.29427114
41.96587238
42.13267174
42.985328
37.42649473
38.91169195
38.775064
40.76623438
38.47905145
38.86702946
37.742141
38.30883112
40.49747582
41.92485907
42.53171208
42.55241989
45.95589819
44.74219836
41.87404948
43.2381654
49.77321476
47.48954366
43.85887426
41.6012731
43.04129374
42.99266647
42.1509831
42.95695939
43.52444416
43.48734989
43.40324066
43.44342981
43.06049532
39.4063347
39.82883098
42.15366365
36.24085733
35.56131376
35.40088435
38.0382671
37.51488974
43.05641615
34.95063784
34.68232536
32.79628453
38.03028084
36.51210994
36.71234903
36.19578024
36.34364153
37.8900524
57.24706429
44.42023541
44.17012826
47.56937509
46.60355883
56.73404317
33.81598301
33.88458098
36.07018683
33.9735602
34.3893391
38.7927852
38.83748415
36.04765116
36.41909758
35.36020822
35.82555868
38.58755023
37.48579057
35.92935373
36.06531236
35.65793392
35.81466189
37.3453572
41.35735223
43.50680677
49.77408349
48.646999
51.47210388
56.31133972
43.16248318
91.01560009
105.3470695
38.60363732
37.34090619
37.50740824
36.93134802
37.14704641
38.46559787
33.84405598
35.57860807
35.27846589
36.58556136
36.44952873
34.66912069
39.1399226
37.93853397
38.07598485
37.6571188
37.79874129
39.01929541
35.72393669
33.69771722
33.75237473
36.93233425
35.27158755
35.5437767
33.91024673
35.05005296
36.42161774
48.40985342
50.05810272
65.07796219
41.76289543
43.89306725
43.34112185
57.4176792
53.305483
44.16510325
39.63481853
38.47904708
38.61441244
38.21198342
38.3459342
39.51748084
35.01000983
36.8570605
36.72326502
37.89685583
37.6691454
35.87755164
40.13223007
39.06208753
39.22734724
38.75477648
38.90288639
40.00687602
40.62653825
39.68185344
39.81519508
39.38841687
39.54094951
40.51294832
36.79323338
38.31313694
38.11846601
39.17852301
39.04600455
37.55915536
41.06462247
40.19396882
40.31864009
39.9433597
40.06978848
40.96203769
42.87661156
42.63900616
41.84600715
54.70026329
45.95717364
46.70750169
44.75515415
45.04477562
52.297653
42.78741556
34.00988497
33.56956681
33.72744664
33.04963152
33.40271763
33.84452889
38.75441757
34.07885524
33.78477992
88.38944522
87.75479458
56.79434903
81.48176976
99.21410846
98.65549288
97.37721185
98.96544263
79.73122532
35.33588042
35.47629125
35.6690122
35.9190702
36.22490894
36.65139924
35.2617183
35.42390293
35.43608646
35.64364365
35.92414274
35.90951827
36.25577307
36.71884335
36.66353667
36.87161949
37.08202677
37.06423379
37.81261005
38.09974436
38.06537773
39.17227073
39.63221702
39.56270713
43.79000674
43.6206132
43.67843744
35.19053392
35.37137625
35.39460339
35.61131248
35.91527316
35.9212415
36.26998732
36.77556108
36.73335178
36.96049249
37.18718737
37.16536103
37.97319314
38.2827653
38.24248622
39.4474293
39.95247254
39.88391193
35.12013722
35.31609869
35.34098253
35.57213377
35.89397406
35.90640042
36.27121966
36.8283817
36.78911371
37.03414988
37.28047458
37.25636379
38.13085622
38.46440332
38.41569264
39.71229094
40.24888632
40.1697852
42.36288892
43.0528046
43.06199675
37.81997291
27.7793772
29.41536751
35.04696639
35.25431249
35.28304676
35.52269129
35.85754273
35.87777086
36.25401232
36.84775659
36.83642731
37.10023909
37.37330737
37.35198849
38.31255272
38.68019838
38.62414851
40.04328723
40.61561518
40.51513153
42.48911144
42.71910064
42.86042839
31.43166344
25.09379613
25.00487493
34.96791563
35.18334861
35.21726566
35.46066412
35.80430783
35.83306277
36.21426688
36.82600433
36.84538882
37.11728659
37.41879465
37.41539047
38.47391534
38.88674507
38.84363876
40.37022869
40.93960236
40.8720986
42.0180309
41.4544121
41.93741162
26.26847317
30.46909208
28.41065365
34.88104075
35.10188621
35.14154151
35.38501263
35.73410132
35.77126117
36.15233054
36.77222465
36.81462294
37.08435809
37.39369307
37.40421053
38.51567023
38.96447641
38.96473084
40.48673074
40.98507022
41.00557035
40.65149739
38.40309748
39.32853804
26.6293156
39.3280557
37.42459209
34.78567468
35.00982011
35.05514211
35.29621015
35.64826312
35.69299994
36.07037102
36.69246796
36.75403144
37.01947947
37.33090756
37.34944425
38.45242478
38.89438007
38.91758988
40.30881539
40.65508887
40.75968876
38.84699187
35.05628911
35.7309313
29.01221377
42.73468481
42.5661773
34.68183086
34.90784672
34.95838387
35.19558953
35.54889417
35.60012884
35.97156853
36.59212585
36.66880274
36.92968098
37.24085206
37.26554948
38.3484833
38.77307784
38.80733453
40.00443091
40.19851486
40.31651988
37.55341959
33.21800348
33.65792798
28.99735659
41.73806892
42.01803578
34.57041627
34.79715479
34.85221885
35.08491681
35.43813649
35.49480349
35.85929987
36.47607263
36.5642177
36.82058419
37.1299229
37.15932941
38.21302075
38.61365245
38.65659794
39.63723088
39.70306747
39.8302233
36.34537672
31.5895942
31.97654332
28.91160511
40.57990437
40.87285315
34.45233413
34.67916519
34.73798288
34.96604668
35.3180632
35.37913789
35.73660387
36.3483256
36.44498506
36.69683066
37.00305253
37.03605448
38.05265255
38.42446272
38.47416527
39.23312279
39.17919599
39.31199194
35.2332267
30.17930011
30.51128577
28.73226787
39.40895531
39.70055238
34.32911547
34.5553715
34.61713109
34.84078604
35.19069386
35.25516069
35.60607138
36.21196809
36.31487443
36.56199756
36.86390243
36.89968204
37.87243584
38.21184828
38.26689687
38.81124738
38.64424736
38.7780505
34.22404204
28.98312022
29.26288873
28.44795932
38.25776509
38.5427898
34.2016507
34.42719506
34.49117293
34.71078607
35.05799903
35.12489594
35.46989357
36.0693543
36.17678855
36.41888782
36.71526201
36.7531907
37.67608788
37.98039161
38.03985556
38.37864455
38.11292093
38.24492665
33.31549307
27.98173257
28.21514515
28.07049754
37.14189723
37.41700145
34.0715286
34.29587579
34.36141795
34.57744697
34.92167354
34.99019881
35.32989269
35.92222293
36.03292709
36.26959351
36.55918509
36.59882253
37.46590884
37.73284417
37.79602193
37.94323489
37.59244157
37.72130566
32.50089324
27.14900901
27.34273988
27.62095392
36.06946578
36.33299996
33.93901015
34.16241871
34.22904369
34.44190165
34.78303918
34.85257489
35.18744921
35.77175639
35.88488738
36.11551087
36.39697641
36.43805615
37.24388499
37.47294595
37.53888656
37.51164426
37.0866326
37.21155761
31.7714556
26.45930612
26.61955467
27.12351054
35.04816988
35.29880474
33.80573191
34.02763128
34.09489528
34.30501118
34.64306027
34.71317043
35.04351725
35.61865196
35.73372122
35.95748292
36.22942916
36.27178681
37.01235864
37.20417044
37.27206038
37.08755713
36.59773685
36.71831301
31.11836035
25.88928587
26.02159446
26.5991787
34.07032523
34.31145361
33.67106429
33.89212442
33.95977881
34.16744527
34.50242613
34.57279364
34.89872365
35.46332514
35.58003331
35.79600151
36.05711974
36.10061155
36.77381033
36.92947131
36.99851331
36.67286498
36.12660655
36.24270471
30.53274026
25.41893095
25.52804415
26.06435005
33.13112183
33.36215674
33.53714278
33.7564181
33.82412536
34.02970375
34.36163506
34.43203733
34.75348391
35.3060943
35.4242124
35.63147892
35.88068226
35.92514229
36.53082405
36.65215068
36.72157781
36.26879224
35.67344128
35.78505042
30.0064235
25.03084516
25.12082876
25.52693571
32.23403165
32.45458444
33.40206778
33.62086551
33.68858001
33.89218745
34.22103344
34.29132889
34.60805375
35.14724201
35.26655423
35.46433572
35.70082898
35.74607573
36.28522875
36.37457227
36.44387347
35.87602202
35.23807643
35.34528015
29.53231085
24.71045265
24.78484741
24.99213444
31.37876151
31.58923062
33.26923963
33.48581561
33.55326062
33.75516785
34.08086684
34.15099515
34.46263244
34.98705818
35.10734516
35.2950408
35.51831222
35.56415317
36.03830385
36.09866696
36.16745371
35.49484791
34.82006306
34.92297655
29.10335937
24.44370314
24.50600645
24.46531568
30.56414819
30.76503275
33.13458563
33.35136765
33.41886155
33.61881798
33.94123506
34.01130282
34.31732336
34.82580521
34.94687498
35.12404997
35.33382951
35.38009902
35.79138262
35.82495856
35.89315096
35.12527094
34.4187282
34.5175478
28.71292562
24.21831459
24.27134817
23.95163233
29.78876382
29.98101245
33.00393641
33.21758339
33.28523224
33.48303083
33.80203353
33.87254094
34.17205436
34.66379098
34.78540367
34.9518028
35.14801029
35.19455696
35.5454899
35.55397187
35.62143277
34.76706782
34.03320532
34.12818834
28.35527783
24.02492582
24.07101888
23.45464607
29.05050429
29.23575738
32.86891696
33.08386831
33.15361156
33.34734502
33.66268543
33.73522061
34.02623545
34.50128173
34.62324941
34.77875091
34.96142923
35.00812049
35.30140218
35.28615742
35.35280326
34.419798
33.66240284
33.7539726
28.02482566
23.85507242
23.89670741
22.97695457
28.34697337
28.52815345
32.73884594
32.94875436
33.02423952
33.21003847
33.5213765
33.6005503
33.87765615
34.33838968
34.46067308
34.60525339
34.77453302
34.82128477
35.05958001
35.02176099
35.0876546
34.08252132
33.30463123
33.39424304
27.71612603
23.70152032
23.74164104
22.51989261
27.67489805
27.85767516
32.58678832
32.80128521
32.90124258
33.06047538
33.36722687
33.47160386
33.7152108
34.16545837
34.29826627
34.43040388
34.5863072
34.6350522
34.8176797
34.75798016
34.82768454
33.74927367
32.95334319
33.0514041
27.42311584
23.55885979
23.6013512
22.08371779
27.02965903
27.22507473
43.73540989
43.79071241
43.91257497
42.23208177
42.39748832
42.91983279
43.98269684
43.77694094
43.77787067
43.51256754
43.69601326
43.67379093
43.77602979
43.77141175
43.86253553
43.24563503
43.3105087
43.57168282
44.09164792
44.04697805
43.42481545
43.11107744
43.17681097
41.17577828
43.64637387
43.61728433
43.26732706
32.90344837
33.02586472
41.73024027
62.9962671
68.53286165
71.57257768
41.18780237
42.27643755
43.4517227
42.48977493
37.04531868
37.02133206
36.82219605
37.4647954
37.23460654
37.26381313
38.02564049
37.98620796
37.71418191
38.62068792
38.28624679
38.33075423
39.49753371
39.42826786
38.99755042
40.52450721
39.92910408
40.0102156
37.14301218
37.10065963
36.88669574
37.57516545
37.32933265
37.37727377
37.28630712
37.30743562
37.54994473
38.20226937
38.13234688
37.84136406
38.81329734
38.45388311
38.53372428
38.37689259
38.41695562
38.77137231
39.81405041
39.68782748
39.22027674
40.88883898
40.23428459
40.38551349
40.08558799
40.16918122
40.81035359
43.5005091
43.56086834
43.74992458
42.69810674
43.22949337
43.14663368
43.39111124
43.31165647
42.81045962
37.23276718
37.2095658
36.97799763
37.72221531
37.45658481
37.4845717
37.40364968
37.4295575
37.6904169
38.36928677
38.3250709
38.01006523
39.06478895
38.67379543
38.72415563
38.57962501
38.62560288
39.0100933
40.09480925
40.02263893
39.50941368
41.33674801
40.6239568
40.70356984
40.46686566
40.54531046
41.25271651
41.30513075
41.16790966
39.81717353
37.32857073
37.30430221
37.05281079
37.8624543
37.57372308
37.60405976
37.5135248
37.54333936
37.82552877
38.56867089
38.51549078
38.17463727
39.31208751
38.8917042
38.95348433
38.77707877
38.83285765
39.24501223
40.42147333
40.3325477
39.78791144
41.66712789
40.95830201
41.05177017
40.78483196
40.86986205
41.58383483
42.96486384
43.02506488
42.42263244
41.94001694
43.14468777
42.9302999
43.41296136
43.30067668
42.3645691
25.40713826
26.40120897
36.68602299
43.73295298
43.45462005
45.92945731
44.71400127
37.40565753
37.3914279
37.11046136
38.01290969
37.69139126
37.71422107
37.63459725
37.66463128
37.97634473
38.7936995
38.73872636
38.36017252
39.61861931
39.15507639
39.22260192
39.0184358
39.08529033
39.53621651
40.80180677
40.71257682
40.13716793
41.97246082
41.33453873
41.41184934
41.15013492
41.24977847
41.91023085
42.27579479
42.53175057
42.43870289
38.51486139
41.75084356
41.0916157
42.64290817
42.25413073
39.6988746
26.79206064
25.66993446
29.219373
45.04932646
45.94168003
43.6262755
44.21923272
37.41242496
37.41759634
37.11255745
38.10972691
37.74986176
37.74859328
37.73229624
37.74473588
38.09478929
38.94695313
38.92239126
38.49851446
39.88712077
39.38470217
39.41752209
39.28443151
39.33863052
39.83346468
41.00734959
40.98057133
40.42531351
41.81273626
41.5038061
41.47588748
41.45647797
41.50704227
41.923633
40.17147244
40.87289351
41.7785336
29.89141006
37.8577868
36.23449207
40.21333592
39.05130589
32.29032247
35.17219237
32.82174848
25.95273837
47.93952349
48.24556225
46.77655164
47.44977213
37.36617671
37.38095766
37.07072246
38.09421595
37.72090856
37.70663193
37.74231139
37.73285553
38.10561375
38.93757398
38.95397816
38.50444163
39.95435358
39.44158145
39.4208273
39.44451813
39.44985106
39.96394943
40.85701328
40.93443696
40.46771073
41.07391792
41.1710792
41.03449269
41.40667309
41.29675072
41.30915739
36.55272595
37.43586704
40.16402947
25.87095134
30.74971002
29.36929486
34.3186124
32.40808652
26.45600894
42.01414715
40.94562822
27.1484138
48.33768192
48.18338378
48.39993852
48.41824491
37.28884968
37.31067118
36.99907238
38.0238781
37.65137425
37.6292502
37.69019064
37.6717281
38.04483698
38.83907322
38.86814236
38.42983123
39.8017334
39.33165034
39.29472167
39.39492956
39.36513279
39.84833251
40.43222957
40.54597596
40.23981424
40.1003231
40.58557893
40.42807178
40.88733955
40.73882782
40.33048001
34.11053819
34.57612442
38.51561788
24.20021087
26.95512749
26.44459034
28.28497008
27.49979515
24.62825602
42.29105022
42.55406575
29.0329737
47.31319649
46.93681588
47.95450304
47.68232095
37.18765649
37.21486565
36.90399838
37.92120001
37.55345295
37.52535574
37.60549119
37.58019278
37.94945418
38.69756835
38.7364385
38.31728674
39.57609062
39.16516215
39.11636061
39.25455301
39.21130706
39.63785106
39.95530588
40.07811079
39.91749179
39.17539
39.93335653
39.76385646
40.26624237
40.10105756
39.40569756
32.37716944
32.79091556
37.24309051
22.75459347
25.0772266
24.67308566
25.9621087
25.50675093
23.07666674
41.16421577
41.45303237
28.9829907
45.85181431
45.50370823
46.56790931
46.20636581
37.06822417
37.0995442
36.79086397
37.79353022
37.4338247
37.40112292
37.4960081
37.46547145
37.82746829
38.52232818
38.56885425
38.17504192
39.30248471
38.95589362
38.89824131
39.06511097
39.01157509
39.37457716
39.4437503
39.57412418
39.53875884
38.27217486
39.25043004
39.07921454
39.59319043
39.42188309
38.49469392
30.85697805
31.21634142
36.05785515
21.67487493
23.59653031
23.27882719
24.29235403
23.93414423
21.91732541
39.99314123
40.28644443
28.8766366
44.49518978
44.16996152
45.16187545
44.82569183
36.93481893
36.9692997
36.66404673
37.64619327
37.29737008
37.26105852
37.36744929
37.33284812
37.68463293
38.32072656
38.37327403
38.00929161
38.99210036
38.71423495
38.64973124
38.83869657
38.77734611
39.07282537
38.91195008
39.04574621
39.12911681
37.40963896
38.56974114
38.40196838
38.90854358
38.73865353
37.62083392
29.55538466
29.86067986
34.97121487
20.85292584
22.43087493
22.18050793
22.97912943
22.6970517
21.03906713
38.82983329
39.11865197
28.67121459
43.22195024
42.91430728
43.84955355
43.53363707
36.79061901
36.82753963
36.52690903
37.4831379
37.14765096
37.10847422
37.22397963
37.18616648
37.52519826
38.09828019
38.15562066
37.82474594
38.65240519
38.44798556
38.37813062
38.58383832
38.51658034
38.73939339
38.37755082
38.51069023
38.7037408
36.59695236
37.90677844
37.74476185
38.23548185
38.07039117
36.79522712
28.45963512
28.71541751
33.98761443
20.21370279
21.51243448
21.31521021
21.94425748
21.72216686
20.35986579
37.69474677
37.97501433
28.36179573
42.01481006
41.72252167
42.61063289
42.31081911
36.63805416
36.67687977
36.38208839
37.30727709
36.98734424
36.94583658
37.06868349
37.02829959
37.35232231
37.85840346
37.91989651
37.62477579
38.29560592
38.1615113
38.08707647
38.30710331
38.23492471
38.38562689
37.85104486
37.98160347
38.26975227
35.83729201
37.26886614
37.11377635
37.58440013
37.4257519
36.02218914
27.54592952
27.75872881
33.10332954
19.70348508
20.78722616
20.63128488
21.12869031
20.95322088
19.82155707
36.5998876
36.86943434
27.9640439
40.86764409
40.58956609
41.43399401
41.14897201
36.47878543
36.51917301
36.23149185
37.12045053
36.81825754
36.77474159
36.90381299
36.86128344
37.16810905
37.60422051
37.6688951
37.41142883
37.93245662
37.858696
37.7812619
38.01172732
37.93555459
38.02363171
37.33751973
37.46450324
37.83479826
35.13049394
36.65951233
36.51179819
36.96050623
36.80907851
35.30233552
26.78777309
26.96406663
32.31085173
19.28800572
20.21445898
20.09182228
20.48376082
20.34539622
19.38476188
35.55249809
35.8093965
27.50050544
39.77532777
39.50960753
40.31527658
40.04378279
36.3138315
36.35556756
36.07636106
36.92396295
36.6414985
36.59620644
36.7307749
36.6863583
36.97391309
37.33948534
37.4064551
37.18679895
37.56669857
37.54657001
37.46776603
37.70338162
37.62512882
37.65816765
36.83999182
36.96277165
37.40482514
34.47438461
36.07997142
35.93978304
36.36597791
36.22203595
34.63380243
26.16063652
26.30633674
31.60132537
18.94327329
19.76377935
19.66762843
19.97561716
19.86690636
19.02458795
34.55477906
34.80043997
26.99409562
38.73147588
38.4781453
39.24710801
38.98775031
36.14383371
36.18677664
35.91743092
36.71922461
36.4579436
36.41109301
36.55051173
36.50442113
36.771096
37.06735466
37.13591126
36.95326499
37.2018254
37.23101897
37.15212709
37.38882711
37.3099204
37.29281964
36.35993784
36.4782774
36.98295158
33.86598832
35.53028561
35.39741736
35.80144283
35.66494943
34.01381154
25.64280435
25.76297799
30.96592574
18.65121555
19.41167842
19.33793721
19.5764049
19.49184578
18.72047526
33.5955948
33.83178351
26.46641575
37.73544519
37.49341079
38.22775485
37.98018097
35.96937268
36.01337087
35.7551503
36.50784839
36.26852902
36.22038538
36.36389454
36.31637117
36.56120829
36.79096224
36.86027114
36.71340518
36.84049062
36.91567169
36.83699317
37.0732541
36.9944335
36.93035886
35.89778014
36.01163208
36.57081715
33.30145831
35.00938963
34.8835178
35.26631287
35.13697902
33.43867724
25.2155392
25.31467281
30.3958438
18.40400287
19.1438442
19.08938032
19.2680239
19.20425348
18.46275572
32.67728727
32.90303897
25.93047146
36.78374796
36.55244964
37.2541507
37.0175733
35.79113595
35.83601019
35.58993126
36.29163008
36.07438723
36.02524324
36.17197229
36.12330246
36.34604684
36.5132793
36.58270632
36.46960842
36.48467514
36.60174144
36.52364639
36.75843236
36.68001001
36.57304221
35.4535615
35.56294603
36.16952653
32.77716967
34.51599035
34.39677063
34.7593424
34.63683825
32.90465035
24.86305387
24.94482592
29.88324002
18.19558847
18.94872469
18.91097172
19.03781891
18.99201397
18.24530447
31.80126506
32.01668178
25.39354799
35.87426327
35.65303003
36.3238822
36.09772797
35.60985785
35.65542109
35.42220483
36.07210805
35.87665941
35.82678775
35.97590116
35.92636656
36.12722267
36.2363681
36.30540691
36.22356458
36.13544816
36.29057948
36.21334004
36.44575596
36.36805621
36.22209217
35.02694019
35.13197232
35.77963997
32.28964058
34.04859208
33.93560905
34.27915414
34.16308648
32.40825361
24.57121092