/*--------------------------------*- C++ -*----------------------------------*\
| =========                 |                                                 |
| \\      /  F ield         | OpenFOAM: The Open Source CFD Toolbox           |
|  \\    /   O peration     | Version:  v2012                                 |
|   \\  /    A nd           | Website:  www.openfoam.com                      |
|    \\/     M anipulation  |                                                 |
\*---------------------------------------------------------------------------*/
FoamFile
{
    version     2.0;
    format      ascii;
    class       surfaceScalarField;
    location    "0.34";
    object      meshPhi;
}
// * * * * * * * * * * * * * * * * * * * * * * * * * * * * * * * * * * * * * //

dimensions      [0 3 -1 0 0 0 0];
oriented        oriented;


internalField   nonuniform List<scalar> 
5999
(
0
0
0
0
0
0
0
0
0
0
0
0
0
0
0
0
0
0
0
0
0
0
0
0
0
0
0
0
0
0
0
0
0
0
0
0
0
0
0
0
0
0
0
0
0
0
0
0
0
0
0
0
0
0
0
0
0
0
0
0
0
0
0
0
0
0
0
0
0
0
0
7.212388871e-09
-6.936250891e-08
0
0
0
0
0
0
0
0
0
0
0
0
0
0
0
0
0
0
0
0
0
0
0
0
0
0
0
0
0
-3.40026313e-08
9.93022208e-07
3.070692907e-06
-6.329457586e-06
-1.186642644e-05
5.743952112e-05
2.737735817e-05
-8.143283199e-05
-1.56803829e-05
0.0001503862843
2.742636154e-05
-0.000167758926
0
0
0
0
0
0
0
0
0
0
0
0
0
0
0
0
0
0
0
0
0
0
0
0
0
-1.638832066e-06
1.81698371e-06
8.255712589e-06
-1.325836745e-05
-5.721049956e-05
0.000119868257
8.850726945e-05
-0.0001722826599
-0.0001060007907
0.0003451989926
0.0001399391694
-0.0004001818935
-7.717582325e-05
0.0005319110304
9.672716629e-05
-0.0005609217053
0
0
0
0
0
0
0
0
0
0
0
0
0
0
0
0
0
0
0
0
0
0
0
5.425600514e-07
-5.607788665e-07
-6.523935896e-05
7.181266056e-05
9.2875833e-05
-0.0001255029786
-0.0002067050594
0.000342695699
0.0002498314226
-0.0004226227659
-0.0002489273741
0.0006460405365
0.0002835407062
-0.0007079471927
-0.0001544861778
0.0008407830681
0.0001710466414
-0.0008669091764
0
0
0
0
0
0
0
0
0
0
0
0
0
0
0
0
0
0
0
0
0
-1.644723306e-05
6.712564953e-06
2.66317452e-05
-2.948214718e-05
-0.0001991613421
0.0001838731252
0.0002336152877
-0.0002567651711
-0.0003728896626
0.0005030597329
0.0004124324132
-0.0005828193221
-0.0003691342531
0.0007673664724
0.0003895170885
-0.0008104530746
-0.0002043613139
0.0008832518353
0.0002093421671
-0.0008931421035
0
0
0
0
0
0
0
0
0
0
0
0
0
0
0
0
0
0
4.771001302e-07
-3.702395937e-09
-1.301196697e-07
-6.024331996e-05
2.638900352e-05
7.258695939e-05
-5.997084136e-05
-0.0003202925137
0.0002252630116
0.0003418288989
-0.0002948659532
-0.0005013205365
0.0005060991435
0.0005200486104
-0.000566488801
-0.0004221628786
0.0006926429316
0.0004302194885
-0.0007147077832
-0.0002061008017
0.0007318199965
8.533956774e-05
0.000110274811
-0.0003641914502
-0.0003571421233
0
0
0
0
0
0
0
0
0
0
0
0
0
0
0
0
-2.003095651e-06
0
4.304351557e-06
-9.565350228e-07
-1.308872531e-06
-9.807596194e-05
3.13256852e-05
0.0001011583242
-6.143372342e-05
-0.0003929217571
0.0001959499463
0.0003993575124
-0.0002495551091
-0.0005562337689
0.0004035839924
0.0005612069893
-0.0004456869883
-0.000435234858
0.0005210039154
0.0004355083001
-0.0005256284977
-0.0001148695737
0.0002724672867
0.0001145902146
-0.0002721879276
0
0
0
0
0
0
0
0
0
0
0
0
0
0
0
0
-5.603870445e-06
0
7.077234878e-06
-1.61827539e-06
-1.548587e-06
-0.0001169068493
2.447634268e-05
0.0001202307134
-4.520899711e-05
-0.0004217973394
0.000133484266
0.0004263243736
-0.0001673274126
-0.0005730796316
0.0002620701683
0.0005753675734
-0.0002869438592
-0.0004353318337
0.0003274976764
0.0004351988747
-0.0003285579772
-0.0001159108795
0.0001702821459
0.0001158926557
-0.0001702639222
0
0
0
0
0
0
0
0
0
0
0
0
0
0
0
0
-8.501673103e-06
0
1.045521301e-05
-9.923344105e-07
-7.135252781e-07
-0.0001284889526
1.140183437e-05
0.0001318172423
-2.046383717e-05
-0.0004373639165
5.817897639e-05
0.0004417293096
-7.236251765e-05
-0.0005808204509
0.0001110160814
0.0005829342425
-0.0001207881715
-0.0004347639163
0.0001354637164
0.0004346070521
-0.0001355032884
-0.0001157094441
7.35409123e-05
0.0001156557071
-3.822734034e-05
-3.525983497e-05
0
0
0
0
0
0
0
0
0
0
0
0
0
0
0
0
-1.25837004e-05
0
1.502111353e-05
6.141439805e-07
1.238324109e-06
-0.0001421973337
-5.043415888e-06
0.000145841467
8.615203444e-06
-0.0004550262926
-2.303865515e-05
0.0004595902521
2.855326203e-05
-0.0005892343148
-4.450937335e-05
0.0005913553625
4.890953366e-05
-0.000434221875
-5.64597559e-05
0.0004341169788
5.668445756e-05
-0.000115413769
-2.251363347e-05
0.0001153696919
9.777593622e-06
1.278011693e-05
0
0
0
0
0
0
0
0
0
-1.795212155e-05
0
3.837861444e-06
4.717056756e-06
-0.0001577057786
-2.586605161e-05
0.0001623288205
4.318844659e-05
-0.0004740931998
-0.0001115772464
0.0004796010791
0.0001367964149
-0.0005979443297
-0.0002057815145
0.0006003658245
0.0002233009168
-0.0004339241946
-0.0002489104585
0.0004339328475
0.0002489447157
-0.0001150577985
-0.0001185728568
0.0001150086886
5.778867174e-05
6.083329492e-05
0.0001826377287
-0.0001826311877
-0.0001159174204
8.554587547e-05
-0.0001157624981
-4.426976701e-05
-4.122305441e-05
-1.05008959e-05
-0.0001154539014
3.769573953e-06
6.771454354e-06
-0.0001065346013
-0.0001150870058
5.178805099e-05
5.477575765e-05
0.0002847800627
-0.0002848005987
-0.0001148490377
0.0001833034422
-0.0001835522332
-0.0004349088795
0.0001291906428
-0.0001292248868
8.558011942e-05
-0.0001293893518
0.0001702827229
0.0001293887748
-8.403023251e-06
8.615614256e-06
-0.0004343445428
0.0001289019549
-0.0001289370476
-1.046580316e-05
7.358001481e-05
0.0001291515403
0.0001155624612
3.757589323e-05
-0.0001156048246
-2.026940678e-05
-1.726412297e-05
3.615599279e-05
-8.295331992e-06
-3.604619752e-05
1.728480235e-05
-9.09926563e-06
-3.608052629e-05
-1.943494622e-05
3.817275695e-05
3.604310661e-05
-1.870039106e-05
-0.0002007365473
0.0002008208542
-0.0004339101338
0.0001285751171
-0.0001286146311
-0.0001064950872
-2.247117949e-05
0.0001288595009
0.0001152173349
-5.85537929e-05
-0.0001152754166
2.780884854e-05
3.08030261e-05
1.766055483e-05
1.590072341e-05
-1.770668149e-05
-1.585459675e-05
-3.584412955e-05
4.576981516e-06
-9.829366736e-06
3.581708052e-05
5.279434247e-06
-0.0001185392544
0.0001285415147
5.912824344e-05
-7.884015236e-05
7.88598946e-05
-5.914798569e-05
1.838612909e-05
3.958394247e-05
-1.827887617e-05
-3.96911954e-05
-1.810333792e-05
2.872952075e-05
-2.862725986e-05
1.800107703e-05
-3.27571475e-05
0.0001113649125
3.269125014e-05
-5.597261878e-05
-5.532639638e-05
3.297755323e-05
8.974544823e-05
-3.28954152e-05
-4.539575034e-05
-4.443183591e-05
0.0001389078902
-3.013707488e-05
2.996042285e-05
-0.0001387312381
0.0001147190073
-0.0001148151129
-3.26610419e-05
-2.015881052e-05
-3.611807828e-05
4.116623732e-05
-2.096987481e-05
-6.225937868e-05
-3.603996613e-05
6.227389868e-05
3.602544613e-05
-0.0001158319021
0.0001217046978
0.0001158019135
-0.0001216747092
-3.266032492e-05
3.258706888e-05
-3.145516633e-05
-3.073095631e-05
1.68767706e-05
-2.015074313e-05
-1.688483798e-05
8.657657196e-05
3.293262298e-05
-4.36797055e-05
-4.285193622e-05
6.531599109e-05
-3.26856432e-05
-3.303126549e-05
-3.225940732e-05
3.815087207e-06
-3.589672806e-05
-6.841709662e-06
3.079220969e-06
-7.584803726e-06
1.425691726e-05
3.620156628e-05
-6.71768701e-06
2.555760055e-05
0.0001155356285
-1.427341652e-05
-1.125735132e-05
-1.707681759e-05
1.710185809e-05
-7.609844226e-06
1.659306902e-05
3.859975554e-06
-1.663795737e-05
1.684968894e-05
-1.940786456e-05
-8.419153982e-06
-1.69529956e-05
2.794632635e-05
-1.819231263e-05
-2.785735164e-05
1.664872658e-05
-1.65936603e-05
1.760548855e-05
-7.050474375e-05
0.000115192296
3.378631943e-05
3.67434632e-05
-1.69641533e-05
1.687926006e-05
1.673361981e-05
1.759965076e-05
2.808338957e-05
-1.773671398e-05
1.657108648e-05
4.598964055e-06
1.599152956e-05
-1.705495945e-05
4.065312129e-05
-4.062217912e-05
1.835518693e-05
8.183292695e-05
-1.778837601e-05
1.768149119e-05
4.076000611e-05
1.745056466e-05
2.887860684e-05
3.947876796e-05
-1.768320151e-05
0.0003757596921
-0.0003772730146
-0.0004354244146
-0.000129390713
0.0001826390899
-0.0001284652988
0.0002720227005
0.0001289098851
0.0001157102416
0.0002325653071
-0.0002325721978
-0.0001157033509
3.605542772e-05
-3.603051284e-05
0.0001146940924
-3.519875197e-05
0.0001392193294
3.488731272e-05
0.0001338079866
-0.0001337921216
-0.0001158477672
-3.606068607e-05
6.533671103e-05
-3.616638457e-05
8.65754674e-05
3.616748913e-05
-3.614159072e-05
8.972065438e-05
0.0001113674023
3.605293797e-05
0.0002190820186
0.000115840433
-0.00021921221
-8.953874306e-06
4.919614841e-05
9.030011739e-06
-4.927228584e-05
7.222805368e-05
-7.250063882e-06
8.241085294e-06
-7.321907509e-05
6.425803051e-05
9.244130396e-06
-6.42371844e-05
-9.264976504e-06
0.0003335566387
-5.352125477e-05
2.114079449e-05
2.83427462e-05
-0.0001651591353
-0.0001643597893
0.0001409008659
-0.0001436614474
-2.737649341e-05
3.475878784e-05
-1.727728306e-05
-3.467023515e-05
1.718873036e-05
-4.56731288e-05
-6.981201028e-05
4.565961416e-05
6.982552492e-05
4.56306545e-05
-7.88817659e-05
7.890160301e-05
-4.565049161e-05
5.888261634e-05
-8.474201361e-06
2.58557359e-05
-7.626415088e-05
4.969255532e-05
-9.00580868e-06
-4.964062095e-05
3.269006388e-05
0.0001020943403
-3.275157682e-05
-5.132475076e-05
-5.070807662e-05
1.075001136e-05
-1.097304762e-05
4.991559158e-05
-1.076230662e-05
5.778380967e-05
1.186111329e-05
1.087447524e-05
-1.44043718e-05
4.493063217e-05
-4.140073561e-05
4.939227756e-05
1.055388221e-05
9.914255432e-05
3.278194788e-05
-5.004987194e-05
-4.918456637e-05
3.233101508e-05
0.000129393915
-0.0001295244935
-3.220043663e-05
1.06997791e-05
-1.075769348e-05
6.431594488e-05
-6.687025842e-06
7.009039773e-05
8.824681789e-06
-5.840926138e-05
-1.03679946e-05
5.801494936e-05
-6.357337794e-05
6.347112014e-05
1.08020369e-05
0.0001252832131
3.244492197e-05
-0.00012539712
9.67988936e-06
-6.400913691e-05
-5.817169205e-05
-8.711770689e-06
1.692363689e-05
2.626037142e-05
-2.631508137e-05
-1.686892694e-05
-9.826171999e-06
3.108485366e-05
9.814130504e-06
-3.107281216e-05
2.553731218e-05
1.693757848e-05
-2.555125378e-05
3.283316682e-05
7.750978063e-05
-3.284020575e-05
-3.913790093e-05
-3.836484077e-05
9.925088672e-06
-9.916663244e-06
3.793536871e-05
-3.794379414e-05
4.335351546e-05
1.017144824e-05
-4.265048846e-05
-9.845218614e-06
3.185817354e-05
-3.183912693e-05
3.715952225e-05
9.911833764e-06
-3.714626734e-05
7.439612443e-05
3.27868128e-05
-3.758797407e-05
-3.676179633e-05
1.693423604e-05
2.154854487e-06
-2.133493057e-06
-1.695559747e-05
1.447356998e-06
1.687431833e-05
-1.387439291e-06
1.67156174e-05
1.422862671e-05
-1.420698148e-05
-1.673726262e-05
1.347686878e-05
1.670174298e-05
-1.346299436e-05
1.642024265e-05
-2.176593949e-05
2.173502493e-05
-1.638932809e-05
-2.236417565e-05
1.658976508e-05
2.219465322e-05
1.749224073e-05
-9.699869093e-06
9.578815816e-06
-1.737118745e-05
-1.052587768e-05
1.751579795e-05
1.050232046e-05
-8.187845807e-05
8.189860675e-05
1.637118113e-05
-3.404938134e-05
3.419711453e-05
-1.651891432e-05
1.623591362e-05
3.489405536e-05
-1.023516931e-05
0.000157201438
1.137566704e-05
7.414432697e-05
-7.422567871e-05
-7.168712145e-06
-1.794199929e-05
-1.054029996e-05
1.795642157e-05
-4.590219003e-05
-2.182677928e-05
4.58940939e-05
2.183487541e-05
4.585093554e-05
-3.083606245e-05
3.085054415e-05
-4.586541724e-05
-4.594298899e-05
-9.796575729e-06
4.593300683e-05
9.806557889e-06
-1.881296211e-05
1.882352608e-05
-4.5912754e-05
-1.787581113e-05
-9.76605725e-06
-4.576148007e-05
-5.781990941e-05
4.57438239e-05
5.783756558e-05
-6.688908356e-05
6.691617508e-05
-4.570022032e-05
-1.737637295e-05
-3.395029145e-05
-3.606137354e-05
-6.601224706e-07
2.163438418e-06
3.600541459e-05
-4.5985421e-05
2.21439928e-06
4.5976037e-05
-2.205015283e-06
-6.794150121e-06
6.803343678e-06
-4.595218254e-05
1.379441124e-05
4.199917803e-06
-1.393608189e-05
-4.058247151e-06
1.953618829e-06
-1.433648265e-05
-1.821546395e-06
1.420441022e-05
-1.675910404e-05
-1.575279154e-06
1.671515409e-05
1.619229105e-06
-1.738141823e-05
-2.247772226e-05
1.749496484e-05
-4.579068206e-05
-4.581687455e-05
4.576555576e-05
4.584200085e-05
-5.479707269e-05
5.481635053e-05
-4.578075791e-05
-3.381241798e-05
4.583616154e-05
3.382719198e-05
-4.283596215e-05
4.285516031e-05
-4.580988022e-05
-1.735735316e-05
-2.179000456e-05
1.660304657e-05
-1.884048854e-05
1.893518966e-05
-1.669774769e-05
1.404352093e-05
1.933408964e-05
-1.415598812e-05
-1.922162245e-05
-1.444997881e-05
1.710663363e-05
-1.700553078e-05
1.434887597e-05
1.291790131e-05
-1.296406133e-05
-2.841776304e-05
2.846392306e-05
-1.303413655e-05
-2.508086489e-05
1.327819669e-05
2.483680475e-05
-1.770454776e-05
-2.534077921e-05
1.785431731e-05
2.519100965e-05
1.669386544e-05
-6.667576024e-06
6.561193089e-06
-1.65874825e-05
1.334828907e-05
6.214995016e-06
-1.335537387e-05
-6.207910217e-06
4.923528596e-06
-4.777215086e-06
1.364809773e-05
1.635973318e-05
-1.454921431e-05
-1.626049767e-05
1.411074187e-05
-1.485756583e-05
-1.40061303e-05
1.475295426e-05
-1.732070621e-05
-1.364594158e-05
1.723347344e-05
1.373317434e-05
1.697551531e-05
-3.105127101e-05
3.121145565e-05
-1.713569996e-05
1.282198302e-05
-1.284840656e-05
-3.149866559e-05
3.152508912e-05
-2.918916502e-05
1.290393792e-05
2.920312842e-05
-1.214024964e-05
-3.609790844e-05
1.30285605e-05
3.520959758e-05
-1.619915462e-05
-3.69213207e-05
1.664429389e-05
3.647618143e-05
7.396668884e-06
4.745440025e-05
-8.664765114e-06
-4.618630402e-05
4.850235005e-05
1.376624191e-06
-4.248230536e-05
9.385184933e-06
6.9205938e-05
-6.939464704e-05
-9.196475887e-06
6.862961993e-05
9.099042705e-06
-6.83434777e-05
9.366759032e-06
5.287568891e-05
-1.023277128e-05
-5.200967667e-05
5.185900493e-05
9.231792149e-06
-5.172403805e-05
-1.180956121e-05
5.220138169e-05
1.146718445e-05
-1.405696827e-05
5.290968367e-05
1.391167357e-05
-5.276438897e-05
1.342308752e-05
5.06037692e-05
-5.044050185e-05
-1.358635487e-05
-1.343867054e-05
5.616852683e-05
1.38317717e-05
-5.656162799e-05
5.381494937e-05
-5.374618443e-05
-1.412573322e-05
-1.224056768e-05
5.330669538e-05
-9.512351843e-06
4.861649396e-05
9.398207939e-06
-1.336347392e-05
4.720910449e-05
1.371473383e-05
-4.756036441e-05
1.468556611e-05
4.46291599e-05
-4.479611357e-05
-1.451861244e-05
4.997836117e-05
1.330417352e-05
-4.985944716e-05
4.768377475e-05
-4.7836462e-05
-1.321078667e-05
-9.961678546e-06
4.790372695e-05
-5.869466619e-05
-1.170792169e-05
5.926109034e-05
1.114149754e-05
-1.351109392e-05
5.968976092e-05
1.348729524e-05
-5.966596224e-05
5.709600474e-05
-5.718790155e-05
-1.334677374e-05
1.11067081e-05
5.995942059e-05
-5.944458622e-05
-1.162154247e-05
1.02341566e-05
-5.782211469e-05
-9.445271391e-06
2.892095238e-05
8.490617567e-06
-2.796629855e-05
-1.275850231e-05
2.904277529e-05
1.295783659e-05
-2.924210957e-05
1.475175116e-05
2.703713611e-05
-2.756659948e-05
-1.422228779e-05
-1.299645185e-05
3.138115935e-05
1.28925365e-05
-3.1277244e-05
2.945796141e-05
-2.947367169e-05
-1.274279203e-05
-9.663946443e-06
2.907898019e-05
-2.886030514e-05
-1.468497696e-05
2.228056557e-05
1.457403194e-05
-2.216962055e-05
1.42322054e-05
1.992688298e-05
-1.981325456e-05
-1.434583382e-05
2.59493386e-05
1.493601228e-05
-2.613359971e-05
2.307442909e-05
-2.295875033e-05
-1.480065572e-05
-9.981995552e-06
4.007089998e-05
9.972479299e-06
-4.006138372e-05
-1.43218716e-05
4.043781246e-05
1.419789844e-05
-4.031383931e-05
1.383406263e-05
3.826978146e-05
-3.815566643e-05
-1.394817765e-05
4.365912194e-05
1.468034106e-05
-4.365389689e-05
4.126384809e-05
-4.113225418e-05
-1.445346551e-05
-1.000884186e-05
4.084146238e-05
-4.081461607e-05
-9.839830227e-06
3.412634173e-05
9.827882612e-06
-3.411439412e-05
-1.339829992e-05
3.44441699e-05
1.329054785e-05
-3.433641782e-05
3.214669601e-05
-3.205265346e-05
-1.309049439e-05
3.747054487e-05
1.371651813e-05
-3.735300037e-05
3.511174173e-05
-3.500975538e-05
-1.350028627e-05
-9.886600215e-06
3.479459725e-05
-3.474782726e-05
-1.42111924e-05
4.064029222e-06
1.410715584e-05
-3.95999266e-06
1.380557854e-05
1.783365453e-06
-1.68222083e-06
-1.390672316e-05
-1.47124683e-05
8.053084857e-06
1.471152191e-05
-8.052138464e-06
4.858496602e-06
-4.732593841e-06
-1.433709516e-05
-1.341671579e-05
1.332361146e-05
2.046723159e-06
1.302444748e-05
4.30871894e-06
-1.313324862e-05
1.033477927e-06
1.370449366e-05
-9.323930459e-07
-1.205447848e-06
1.298498734e-06
-1.350976668e-05
-1.370175217e-05
1.620773717e-05
1.356203042e-05
-1.606801541e-05
1.315223023e-05
1.395763772e-05
-1.381903429e-05
-1.329083366e-05
1.916844496e-05
1.410439129e-05
-1.904063085e-05
1.695673496e-05
-1.682063866e-05
-1.383784848e-05
-1.256929267e-05
1.108228289e-05
1.256421435e-05
-1.107720456e-05
9.50718804e-06
-1.009672575e-05
-1.41229306e-05
1.322030793e-05
1.301177673e-05
-1.307985444e-05
1.13489612e-05
-1.120833128e-05
-1.27099226e-05
2.221768822e-05
1.328999041e-05
-1.358615287e-05
-2.192152576e-05
2.012127409e-05
-2.000004208e-05
1.392228892e-05
-1.96221775e-05
1.651876135e-05
1.970646272e-05
-1.208164165e-05
1.204347605e-05
2.015943969e-05
1.169820973e-05
-1.192844683e-05
2.244792533e-05
-1.213099278e-05
1.211087778e-05
1.712674862e-05
-1.209167348e-05
1.934412147e-05
-2.24578463e-05
1.120476344e-05
2.295129259e-05
-2.441502944e-05
2.407581634e-05
-1.736533465e-05
-1.136607323e-05
-2.303975545e-05
2.137169213e-05
-2.205694685e-05
1.288909096e-05
9.252220093e-06
1.548559388e-05
-1.548497648e-05
-9.252837494e-06
5.731060004e-06
-6.286743113e-06
1.390397218e-05
-7.334093165e-06
1.686673731e-05
7.161221291e-06
-1.203869562e-05
1.195845755e-05
5.811298076e-06
1.267909785e-05
-1.32811921e-05
9.854314348e-06
1.289611176e-05
5.05186431e-06
6.603937379e-06
-1.242763798e-05
-1.220338675e-05
1.218311941e-05
1.413100921e-05
-1.214795331e-05
1.637669372e-05
-1.076113871e-05
1.238452579e-05
1.105571077e-05
-1.335564427e-05
-1.222866891e-05
1.338092642e-05
-1.288644578e-05
1.296869341e-05
-1.740295384e-05
-1.497066391e-05
-1.324254618e-05
-1.055880339e-05
1.528325857e-05
1.273247177e-05
-1.276245335e-05
-3.449954206e-05
3.452952364e-05
-3.225038629e-05
1.280384056e-05
3.226852875e-05
-3.180107748e-05
1.682169264e-05
3.195490016e-05
-3.638475669e-05
3.626031676e-05
-1.60747147e-05
-1.245059843e-05
-3.669503517e-05
3.700538397e-05
-3.521213925e-05
1.267797335e-05
3.526663766e-05
-3.598120617e-05
-1.273830626e-05
2.623230947e-05
3.596407174e-05
-4.605182036e-05
2.625940188e-05
4.60427216e-05
-2.625030312e-05
4.602717858e-05
1.725199433e-05
-1.724681434e-05
-4.603235858e-05
3.820332008e-05
-4.608320405e-05
4.607803166e-05
-3.819814769e-05
2.92603916e-05
-2.925264734e-05
-4.605956463e-05
-1.49797868e-05
-3.600411617e-05
2.923132351e-05
1.42528749e-05
4.602200032e-05
-1.424769665e-05
5.222695112e-06
-5.209100031e-06
-4.599901608e-05
-2.956595291e-06
-3.611682123e-05
5.166897473e-06
1.710617373e-05
5.159418798e-06
-5.16404906e-06
-1.710154347e-05
1.543990142e-05
-1.55783983e-05
4.996993479e-06
-1.560913223e-05
7.895524668e-06
1.576669242e-05
-1.51019041e-05
8.999959901e-06
-1.37033307e-05
1.090372464e-05
1.388188896e-05
-1.669891959e-05
1.053699265e-05
1.675834873e-05
-1.059642178e-05
4.842759277e-05
9.00885815e-06
-4.840643918e-05
1.440573496e-05
5.705838382e-05
-4.560838287e-05
6.258726295e-07
-7.689002351e-05
5.021182041e-05
-9.147667904e-06
-5.006996118e-05
5.046065686e-05
-1.122188408e-05
1.196005762e-05
-1.226281419e-05
5.076341343e-05
1.167603481e-05
5.01996144e-05
4.714030659e-05
-2.43790453e-05
-3.716563309e-05
1.309268004e-05
-1.249591188e-05
4.654353842e-05
1.307482206e-05
4.494849016e-05
1.142182655e-05
4.964648582e-05
-4.864633923e-05
1.118906238e-05
4.88791034e-05
1.033513575e-05
-1.334256799e-05
6.324930044e-05
1.347189566e-05
-6.337862811e-05
6.067856621e-05
-6.066246773e-05
-1.35271924e-05
-1.203186716e-05
6.028336605e-05
-6.462326657e-05
1.104748406e-05
6.325567186e-05
-7.595959686e-06
2.635802374e-05
-8.338533062e-05
-6.334761208e-05
-8.257484507e-06
-6.35822234e-06
-5.118759708e-05
5.691715422e-05
-7.896224275e-06
-5.537915229e-05
-9.478917293e-06
5.768430083e-05
4.011267726e-05
-4.052142068e-06
-3.606053519e-05
2.073901376e-05
-1.029707763e-05
2.967074113e-05
1.393475675e-05
2.817329997e-05
-2.136904295e-05
1.125791696e-05
-1.134432068e-05
3.117125738e-05
-3.032013616e-05
1.115378027e-05
3.042427285e-05
9.778193427e-06
-3.028419909e-05
1.07388666e-05
-1.074483326e-05
2.053654124e-05
-2.053057458e-05
1.074478047e-05
1.974215192e-05
-1.974806578e-05
1.144582049e-05
2.616468107e-05
-2.367574481e-05
1.092024547e-05
2.467164235e-05
-2.414606734e-05
3.863446971e-05
-9.916426233e-06
-3.863470672e-05
1.208384913e-05
-1.21835702e-05
3.873419077e-05
1.199244838e-05
3.802676946e-05
1.285887896e-05
4.356945855e-05
-4.236567451e-05
1.265142858e-05
4.257312489e-05
1.002012536e-05
-4.221435162e-05
3.266198349e-05
-9.853759596e-06
-3.265344251e-05
1.142329337e-05
-1.149968776e-05
3.273837788e-05
3.193714623e-05
1.191678619e-05
3.723518444e-05
-3.635482251e-05
1.183649244e-05
3.643511625e-05
9.908505579e-06
-3.635149433e-05
1.488348986e-05
-1.502422514e-05
1.924100737e-06
4.20199194e-06
1.53019387e-05
4.473645104e-06
1.703471676e-05
-4.402188137e-06
-8.349902355e-07
8.703045786e-07
-1.679441838e-05
-1.446947995e-05
-1.072450552e-06
1.173589301e-06
1.474337848e-05
1.403194436e-05
-1.415644101e-05
1.408213437e-05
-1.452608822e-05
1.632975776e-05
1.440406763e-05
-1.679647541e-05
1.648500183e-05
1.677409078e-05
-1.646261719e-05
1.060669566e-05
-1.062248314e-05
1.446897324e-05
-1.445318576e-05
1.058602995e-05
1.371993948e-05
-1.369927378e-05
1.069058312e-05
1.893966772e-05
-1.888547037e-05
1.068233019e-05
1.821378425e-05
-1.820553132e-05
-6.403514802e-06
1.784188425e-05
-1.143836945e-05
1.056813694e-05
1.296993529e-05
-1.295204228e-05
1.223367234e-05
1.053487118e-05
-1.220040658e-05
1.126531658e-05
-1.128216658e-05
-1.668206959e-05
-1.371312739e-05
1.13587579e-05
1.334001754e-05
1.391223476e-05
-1.846088757e-05
1.855710293e-05
-1.425220348e-05
1.50401681e-05
-1.831937375e-05
-1.518168192e-05
1.488906084e-05
-1.90705152e-05
-2.760623675e-05
-1.308159896e-05
2.772377438e-05
1.583931256e-05
-1.603251335e-05
-2.741303596e-05
1.568372772e-05
-2.82621782e-05
1.625271183e-05
-1.6272072e-05
-2.506150471e-05
2.660494689e-05
-2.638474842e-05
2.680154462e-05
1.371872121e-05
-1.380522102e-05
-4.099281331e-05
4.107931313e-05
-4.196877459e-05
4.209543651e-05
-3.074476635e-05
-1.287484211e-05
3.077120191e-05
1.529833569e-05
-1.541747944e-05
-3.06256226e-05
1.517544399e-05
-3.137577388e-05
1.554620639e-05
-2.90516437e-05
2.997616021e-05
-2.984743326e-05
3.000525601e-05
1.28089317e-05
-8.804652855e-06
-3.752588655e-05
3.35216077e-05
-3.95042843e-05
3.850799498e-05
1.359507072e-05
-1.368760126e-05
-3.60053779e-05
4.08711481e-05
-3.608073024e-05
5.389970861e-05
4.760708194e-05
-4.72629889e-05
6.379168297e-05
-6.241505878e-05
6.47564864e-06
7.072611755e-05
-5.961688e-06
5.861629826e-06
6.892855987e-05
1.300054703e-05
-2.582708837e-05
6.619880376e-05
6.640848242e-06
6.337087943e-05
-5.701118064e-05
5.440114828e-06
6.783126426e-05
-8.89003533e-05
6.851337976e-05
5.456732852e-05
-5.039436484e-05
5.097341219e-05
-5.088928795e-05
1.144997798e-05
-1.090684035e-05
4.807335633e-05
-4.881084561e-05
4.776491171e-05
4.798053914e-05
1.097054538e-05
4.819905614e-05
4.796743198e-05
-1.415648642e-05
9.441606163e-06
-5.472970596e-05
6.240946283e-05
-5.020792552e-05
6.183540443e-05
-2.122966216e-06
-5.458379763e-05
-8.550829683e-05
-5.716312057e-05
5.791835988e-05
-8.271824055e-06
-5.678752079e-05
-5.665233258e-05
1.034986969e-05
-1.070405033e-05
2.927513301e-05
-2.967922894e-05
2.973202101e-05
-2.524075344e-05
2.96055173e-05
-2.949127032e-05
1.09768199e-05
2.978247767e-05
2.935174976e-05
1.07556613e-05
-1.077145281e-05
2.207534998e-05
-2.205955847e-05
2.131427976e-05
-2.130345172e-05
1.080964813e-05
2.366241323e-05
-2.355181588e-05
2.284831279e-05
-2.281011747e-05
1.228140496e-05
-1.237558253e-05
4.016507755e-05
-3.931679529e-05
3.941463005e-05
-3.926074222e-05
4.162618876e-05
-4.161490527e-05
1.251160273e-05
4.176601461e-05
4.097748258e-05
1.156832817e-05
-1.165317464e-05
3.42111882e-05
-3.344420173e-05
3.351284214e-05
-3.347007871e-05
3.555117609e-05
-3.552927073e-05
1.17490541e-05
3.563861444e-05
3.48904767e-05
-3.197457017e-06
1.40095855e-05
3.295027359e-06
-1.148812972e-05
1.147372219e-05
-3.183049493e-06
-1.150941926e-05
-3.938703115e-06
-1.145186672e-05
1.143327387e-05
-1.663627979e-06
2.432715839e-06
-2.41086037e-06
2.535578175e-06
-6.545035067e-06
1.450717207e-05
6.749384905e-06
-1.207406968e-05
1.165295287e-05
-6.123918255e-06
-1.360959035e-05
-6.516617799e-06
-1.155026875e-05
-4.691744348e-06
5.554612084e-06
-5.451927968e-06
5.72468899e-06
2.796034737e-06
1.323038859e-05
-2.702811873e-06
-1.13543918e-05
1.134109283e-05
2.809333711e-06
-1.136926409e-05
2.061595445e-06
-1.132680821e-05
1.130249048e-05
4.333036673e-06
-3.549470763e-06
3.563755382e-06
-3.452330783e-06
-1.850237262e-07
1.360377269e-05
2.857446983e-07
-1.141583542e-05
1.139489862e-05
-1.640869239e-07
-9.149545916e-07
-1.138279132e-05
1.312025966e-06
-5.527659961e-07
5.648732909e-07
-4.587599878e-07
1.06344626e-05
1.597527546e-05
-1.065393632e-05
-1.595580173e-05
1.522142579e-05
-1.520944633e-05
-1.531960928e-05
1.34254487e-05
1.5456191e-05
-1.263554052e-05
1.253735703e-05
-1.272828047e-05
-1.243804257e-05
1.233894776e-05
1.456828769e-05
1.470290273e-05
1.066813692e-05
1.747757391e-05
-1.746338064e-05
1.672141793e-05
-1.670721734e-05
9.40247223e-06
1.068465715e-05
-1.023390005e-05
-9.853229332e-06
1.148736482e-05
-8.488407387e-06
-1.156814973e-05
1.31236431e-05
1.100872098e-05
-1.124004208e-05
1.115925717e-05
-1.16325895e-05
-1.740675881e-05
-6.299557289e-06
1.159438261e-05
1.059509512e-05
-1.23570235e-05
1.286573671e-05
1.250306353e-05
-1.222902862e-05
1.210567746e-05
-1.192330785e-05
-1.091761292e-05
1.170088033e-05
-1.151851072e-05
1.185669443e-05
1.045579465e-05
-1.143943419e-05
-1.069571833e-05
-2.141458223e-05
-1.378186101e-05
2.161029038e-05
1.439579177e-05
-1.456648382e-05
-2.124389018e-05
1.423805164e-05
-2.176378563e-05
1.473101465e-05
-1.984199589e-05
2.074999843e-05
-2.05854676e-05
2.089042634e-05
1.200295952e-05
2.093094287e-05
2.168480306e-05
1.20865608e-05
-1.783886777e-05
1.786318475e-05
1.855199025e-05
1.089354338e-05
-2.167135582e-05
2.198257587e-05
-2.298115609e-05
3.387469947e-05
-2.154810282e-05
-1.279912649e-05
1.571028311e-05
-1.474397088e-05
-2.251441505e-05
-2.360154434e-05
1.421400928e-05
-2.20329045e-05
2.158139135e-05
-2.211135295e-05
3.470026783e-06
1.42042342e-05
-5.715803436e-06
-8.712291459e-06
1.218231824e-05
-1.031047745e-05
7.409484065e-06
-7.20710214e-06
8.130144239e-06
5.761988198e-06
1.271557156e-05
-5.581447992e-06
-1.126666199e-05
1.119073917e-05
5.837911016e-06
5.087692797e-06
-1.096884171e-05
7.262301647e-06
-6.365351724e-06
6.587249182e-06
-6.07741815e-06
1.216513772e-05
-1.486401496e-05
1.488199666e-05
-1.561241457e-05
1.562959897e-05
1.226966265e-05
-1.1768072e-05
1.188293514e-05
-1.258767559e-05
1.262866933e-05
-3.374579824e-05
-1.2784262e-05
3.37676069e-05
1.480930003e-05
-1.49327997e-05
-3.362229858e-05
1.467506337e-05
-3.43653054e-05
1.505419337e-05
-3.212913566e-05
3.299848926e-05
-3.287709559e-05
3.301806782e-05
-3.635732079e-05
-1.258464912e-05
3.649137149e-05
1.408184067e-05
-1.434084514e-05
-3.609831632e-05
-3.630079577e-05
1.453515452e-05
-3.507223041e-05
3.586234211e-05
-3.566803273e-05
3.595566634e-05
0
0
0
0
0
0
0
0
0
0
0
0
0
0
0
0
0
0
0
-8.403816589e-08
0
-1.970707689e-05
7.888087892e-06
-9.431959062e-07
8.958548041e-06
0
0
0
-3.377887841e-05
-2.705730701e-06
-8.063044831e-05
1.722176314e-05
-7.207123386e-06
6.56423474e-05
0
0
0
-9.338528196e-05
-7.046833399e-06
0
0
0
0
0
0
0
0
0
-2.601585361e-06
0
-7.232557985e-05
3.893101975e-05
-1.850853753e-05
3.846772992e-05
0
4.529478571e-07
-0.0001139208619
-3.195000438e-05
-0.0002614696521
0.0001002941331
-6.887217743e-05
0.0002108536319
3.567586519e-05
2.187479442e-05
-0.0003105865507
-7.52425723e-05
-0.0004316991996
9.173056231e-05
-6.907674121e-05
0.0003971245384
0.0001293873943
3.118611757e-05
-0.0004590448963
-5.870401224e-05
0
0
0
-4.778356615e-05
3.416259333e-05
-1.768406495e-05
1.679205931e-05
0
1.266127322e-06
-9.288679477e-05
-4.095707809e-05
-0.0002884560526
0.0001755084211
-0.0001354919857
0.0002160483388
7.428067961e-05
6.595803002e-05
-0.0003641192441
-0.0001645656563
-0.000583027887
0.0002525956632
-0.0002130857654
0.0005138875562
0.000287408942
0.0001356236172
-0.000645787807
-0.000212631369
-0.0007845785931
0.0001879638094
-0.0001648295461
0.0007471944553
0.0004948633599
0.00011580721
-0.0008128229223
-0.0001361038232
2.545963995e-06
-1.953747289e-05
-8.371156244e-06
-0.0001608521945
0.0001429311127
-0.0001129503585
0.0001003371138
3.469790985e-05
5.59115132e-05
-0.0002317708222
-0.0001635044198
-0.0004745181273
0.0003427206642
-0.0002995777699
0.0003948569019
0.000264403697
0.0002175207127
-0.0005513762087
-0.0003345116055
-0.0007550080519
0.0003919548136
-0.0003601683417
0.0006937749045
0.0005766655124
0.000290949469
-0.000803490633
-0.0003443070105
-0.0008999013339
0.0002540996728
-0.0002423151471
0.0008771699874
0.0008056761033
0.0002090381686
-0.0009147889512
-0.0001962742703
2.147784192e-05
-5.340896836e-05
-4.713672702e-05
-0.0002209352753
0.0002466817913
-0.0002279491628
0.000156111814
0.0001199700395
0.0001727545326
-0.0002962856859
-0.0002957217007
-0.0005173249546
0.0004786843883
-0.0004526807784
0.0004460755692
0.0004185004109
0.0003852660323
-0.00058258802
-0.0004773856954
-0.0007287800713
0.0004637545241
-0.0004492276415
0.0006894169084
0.000718877983
0.0004120775851
-0.0007558064216
-0.0004126600372
-0.0007676835147
0.0002576115055
-0.0002621670561
0.0007719952624
0.0008666498588
0.000261808834
-0.000764683559
-0.0002091007573
3.249630625e-05
-6.47811604e-05
-9.204198961e-05
-0.0002104836634
0.0003185851426
-0.0003077360974
0.0001556960386
0.0001615225127
0.0002712746821
-0.0002684375462
-0.0003812944735
-0.0004373311245
0.0005425543422
-0.0005313266941
0.0003842333426
0.0004350843445
0.0004994059515
-0.0004846629836
-0.0005457513665
-0.0005712701992
0.0004875456932
-0.0004846145093
0.0005538182978