/*--------------------------------*- C++ -*----------------------------------*\
| =========                 |                                                 |
| \\      /  F ield         | OpenFOAM: The Open Source CFD Toolbox           |
|  \\    /   O peration     | Version:  v2012                                 |
|   \\  /    A nd           | Website:  www.openfoam.com                      |
|    \\/     M anipulation  |                                                 |
\*---------------------------------------------------------------------------*/
FoamFile
{
    version     2.0;
    format      ascii;
    class       volVectorField;
    location    "2.63";
    object      U;
}
// * * * * * * * * * * * * * * * * * * * * * * * * * * * * * * * * * * * * * //

dimensions      [0 1 -1 0 0 0 0];


internalField   nonuniform List<vector> 
3019
(
(99.99953152 0.001190643087 -3.711653327e-21)
(99.99918224 0.004446646569 -2.643382333e-25)
(99.99837584 0.01066396846 -3.711939586e-21)
(99.99687752 0.02211902307 -3.699606166e-21)
(99.99968547 0.01861234469 3.586776713e-21)
(99.99832499 0.03257373829 0)
(99.99733506 0.05517259636 0)
(99.9969233 0.08748441967 -6.519271957e-21)
(99.9958165 0.1322017768 7.730294717e-22)
(99.99479047 0.1904218958 -5.278120507e-21)
(99.9943278 0.2586466722 5.475476919e-22)
(99.99518342 0.326406537 0)
(99.99576358 0.002794860195 1.484486614e-20)
(99.9922138 0.01098730953 3.714506352e-21)
(99.98465757 0.02734413577 2.599453801e-20)
(99.97164041 0.05910417924 -1.113518841e-20)
(99.97192205 0.08667510851 3.60996959e-21)
(99.95090943 0.1541276378 -2.928895447e-23)
(99.92259384 0.2617019694 0)
(99.90591872 0.364673136 -6.475997977e-21)
(99.86908713 0.5579381384 -6.115717903e-21)
(99.83224048 0.8145189944 -1.100914836e-20)
(99.80738342 1.124427281 -4.747072083e-21)
(99.81611902 1.445876128 -6.745237233e-21)
(99.98957667 0.00221882189 -1.481181108e-20)
(99.97968344 0.01074262833 -2.97082935e-20)
(99.95876219 0.03168540856 -6.683603969e-20)
(99.92425341 0.07336761141 8.898876437e-20)
(99.90136722 0.1298802391 -7.355415158e-21)
(99.84055847 0.2429888318 -7.225702484e-21)
(99.75410504 0.4231798453 -1.257352748e-20)
(99.69816046 0.6303507834 0)
(99.58071151 0.9876720939 2.522316018e-20)
(99.45992413 1.476168557 1.139237004e-20)
(99.37521431 2.110918744 -1.936192815e-20)
(99.41943803 2.802704067 0)
(99.9858979 -0.001907304804 -7.447268747e-21)
(99.96707734 -0.0007416179015 5.218466253e-20)
(99.92740405 0.01631538053 -1.492500162e-20)
(99.86238074 0.05649936359 0)
(99.80719846 0.1330300205 0)
(99.68594525 0.274460062 -5.804728033e-20)
(99.51406925 0.506751807 -1.163784073e-19)
(99.363395 0.8042709612 2.764415275e-20)
(99.10085429 1.308388246 -4.464067714e-19)
(98.79644043 2.086605804 -9.379085957e-20)
(98.58224641 3.168971786 -1.992890493e-20)
(98.64426804 4.43101165 -1.986247873e-18)
(99.99298752 -0.01042019608 0)
(99.96384369 -0.02616366103 0)
(99.90305974 -0.0245489032 7.48439164e-21)
(99.80205681 0.002955727611 1.13506635e-20)
(99.70564314 0.08591152436 1.879985668e-20)
(99.50835786 0.2297444691 0)
(99.2287977 0.4724481982 0)
(98.94446883 0.8302905557 1.717014401e-19)
(98.44456968 1.478833618 2.095677119e-19)
(97.82011901 2.579783624 -1.583880571e-18)
(97.26726773 4.306277946 -1.468219605e-18)
(97.41116381 6.503311237 3.082193716e-19)
(100.0202746 -0.02359098015 0)
(99.98064252 -0.06608748792 0)
(99.89909766 -0.09209933325 -1.502150201e-20)
(99.76188307 -0.09282424554 3.046222444e-20)
(99.6135255 -0.01907630661 0)
(99.33885679 0.09775579304 0)
(98.93836141 0.3138621074 2.382428939e-20)
(98.48955541 0.681939168 3.496363407e-19)
(97.66800992 1.390695176 4.38118458e-19)
(96.48521008 2.715738508 -1.107967345e-18)
(95.13595609 5.140336009 3.127431214e-20)
(94.78487128 9.01101349 0)
(100.0768517 -0.04111488169 3.65883107e-21)
(100.0277847 -0.1195054933 -3.684019655e-21)
(99.92799443 -0.1845941202 7.507584019e-21)
(99.75878181 -0.2280669722 -2.750998599e-20)
(99.55960964 -0.1822939361 7.614445237e-23)
(99.21237583 -0.1217428103 2.33731113e-20)
(98.70198246 0.02425943165 1.697457889e-20)
(98.07111224 0.3391203943 2.32150655e-19)
(96.91252075 0.9418152338 -4.596479453e-19)
(94.99120404 2.161101492 0)
(92.17101822 4.539093071 0)
(88.68373561 9.996780988 0)
(100.170533 -0.06214505188 -3.659220002e-21)
(100.1141861 -0.1837799031 3.685348904e-21)
(100.0008418 -0.2969224721 -4.669042918e-21)
(99.80801649 -0.3947337243 -3.129301553e-21)
(99.56379915 -0.3937405623 1.331705286e-20)
(99.16172807 -0.413415319 7.895285252e-21)
(98.56882307 -0.3784901862 2.767458699e-20)
(97.79479788 -0.1911974056 0)
(96.38613415 0.1282248908 0)
(93.94145612 0.7550879359 1.036224443e-21)
(90.0578388 1.640144172 0)
(83.12868304 2.802545582 0)
(100.3070887 -0.08538396409 -1.761457635e-21)
(100.2464497 -0.2548628697 -1.323051951e-21)
(100.1258468 -0.4215269406 -4.530054327e-22)
(99.92044359 -0.5805602059 1.368119627e-21)
(99.6427187 -0.6362939995 -2.466597305e-23)
(99.2103419 -0.7506762312 0)
(98.57501275 -0.8481943932 6.203605448e-21)
(97.73212646 -0.834902413 4.69631567e-19)
(96.23666107 -0.8731320361 -3.41720361e-20)
(93.75121927 -0.9483998007 1.482157563e-19)
(90.36235824 -1.464616574 -4.242776045e-19)
(86.68733628 -3.30014501 9.406068819e-19)
(100.4894859 -0.1092563592 3.471485241e-21)
(100.4279191 -0.327881708 5.209063854e-23)
(100.3070086 -0.5494009275 0)
(100.1012377 -0.7718430928 1.792955758e-22)
(99.80379137 -0.8906329701 -1.826099587e-21)
(99.36779225 -1.102646046 1.933663089e-21)
(98.73278212 -1.334291591 -3.23521172e-20)
(97.89089559 -1.500121459 -3.39788053e-21)
(96.44961842 -1.859868083 -4.909444344e-19)
(94.1865563 -2.418537201 1.851065006e-20)
(91.49753675 -3.37765984 -1.068578319e-20)
(89.17372923 -4.758902071 -1.96147245e-19)
(100.7175739 -0.1322259952 -1.709879896e-21)
(100.6583046 -0.3979845458 1.723678427e-21)
(100.5435049 -0.6715667367 1.681551045e-21)
(100.3503001 -0.955119089 -1.566832408e-21)
(100.045299 -1.137358708 -1.800562288e-21)
(99.63033165 -1.439157874 0)
(99.03192416 -1.792708964 -1.751926091e-20)
(98.23902747 -2.119201939 0)
(96.92324881 -2.729167529 3.585395745e-21)
(94.9185494 -3.579828003 1.405710317e-19)
(92.62948261 -4.659324989 3.587819936e-19)
(90.6584803 -5.733332578 0)
(100.9881368 -0.1528918269 6.291337303e-21)
(100.9341086 -0.4606916887 0)
(100.830413 -0.7785413418 -1.678275908e-21)
(100.6587404 -1.122912593 0)
(100.354705 -1.360010251 0)
(99.98501415 -1.735310161 -5.35542373e-21)
(99.4506131 -2.189953204 -6.967286465e-20)
(98.73718186 -2.648987217 5.2612174e-20)
(97.58515472 -3.44436294 0)
(95.82227264 -4.499842605 -1.573500586e-20)
(93.74484382 -5.711736257 3.231305094e-19)
(91.7967917 -6.796004781 -4.022832771e-19)
(86.20435928 -2.98560061 -4.77704141e-19)
(88.95196738 -4.617310388 -1.962840476e-19)
(90.50158953 -5.619570866 0)
(91.65176511 -6.646228769 -3.248199473e-19)
(83.31885875 4.142138602 0)
(91.20422431 -2.981750227 -3.91790196e-19)
(89.20283583 -4.372515256 4.619959888e-21)
(87.11933739 -2.863415776 0)
(92.3531658 -4.370924337 -3.673170111e-19)
(90.71950797 -5.45542219 0)
(89.42321053 -4.528062537 5.636887286e-21)
(89.79230256 -5.157018294 3.687938485e-19)
(89.0447297 -5.876596719 -2.563861057e-19)
(88.22718358 -5.468030396 0)
(93.45816288 -5.459319095 -6.569719772e-19)
(91.87572815 -6.495766666 3.977861477e-21)
(90.87495538 -5.575716363 0)
(91.09437217 -6.093247786 3.549991941e-21)
(90.133743 -6.546650341 -2.44857354e-19)
(89.81171844 -6.20183482 8.309037759e-20)
(92.02218141 -6.642101178 3.177181205e-19)
(92.3561725 -7.268735046 -1.242176812e-21)
(90.8226435 -7.833965016 -4.734701089e-19)
(90.50810917 -7.200480341 0)
(80.92612839 -5.463354011 -1.374219878e-19)
(85.41199705 -5.688829322 8.397512042e-19)
(73.76031839 3.269891448 0)
(79.95546996 -5.116197021 0)
(88.12090261 -5.397956861 -8.927961847e-20)
(87.37543767 -5.109414464 3.706894661e-19)
(88.17504082 -4.145623809 7.481327366e-21)
(87.23930134 -5.235907944 9.526049173e-20)
(87.98907297 -5.492501561 2.651718825e-19)
(85.75746674 -5.610442178 -4.098851225e-19)
(87.11721656 -5.239404823 -3.830414055e-19)
(89.74297182 -6.160987349 -2.499790606e-19)
(89.15128154 -5.914889199 0)
(89.98363676 -5.277785287 -3.678036957e-19)
(88.98764375 -5.988778631 -5.141590843e-19)
(89.60157455 -6.217921971 0)
(88.04073474 -5.534367877 -2.644461991e-19)
(88.93444367 -5.967297312 -9.825393212e-22)
(90.47947666 -7.159058904 0)
(90.15158544 -6.579320531 2.458402096e-19)
(91.23260788 -6.223452998 0)
(89.99884143 -6.592105396 5.129133377e-19)
(90.25268283 -7.183229042 -4.940848571e-19)
(89.6337773 -6.241486748 -5.247873231e-19)
(89.9855314 -6.560307503 2.547662569e-19)
(90.84265169 -7.88523484 0)
(92.43794552 -7.353730151 -2.45951104e-19)
(90.45653851 -7.895068437 -4.842085057e-19)
(90.27947626 -7.22403934 1.457831364e-21)
(90.44952607 -7.846564642 -6.037293754e-20)
(90.13984732 -0.8105114466 -1.387314459e-20)
(86.7142566 -2.509585033 0)
(84.51567933 2.763735478 0)
(84.00089019 -0.6388346516 0)
(80.48737514 -4.17993379 0)
(75.65745251 3.3721676 0)
(87.86269881 -3.971503311 -4.304166821e-19)
(87.24330957 -5.103126003 -1.112511456e-18)
(85.75755429 -5.270512622 0)
(85.39139373 -5.283990153 0)
(81.30661175 -4.571409907 0)
(84.5439845 -1.447469785 5.403962233e-19)
(83.85107027 -8.138163369 -1.328318438e-18)
(60.80618635 3.824994228 0)
(69.94737425 -9.382050977 6.642284686e-19)
(80.49781045 14.73318272 0)
(73.83280303 5.278427452 0)
(90.70661625 -7.506869128 0)
(91.55559699 -7.339848225 0)
(91.77774144 -7.599069221 0)
(80.48077965 -10.35149012 5.73709363e-18)
(83.51454524 -8.399029076 -1.813704683e-18)
(83.31646337 -5.840014528 -4.950028856e-19)
(83.62574233 -8.172788546 1.569322741e-18)
(80.45618104 -9.577660803 4.321206596e-19)
(85.15670515 -6.672347855 -9.386566297e-19)
(83.9355546 -7.947008264 0)
(83.94377963 -5.8318813 0)
(75.67617702 -1.838986288 0)
(70.76055303 -7.850206695 -1.303128291e-18)
(63.37434214 3.775665535 0)
(79.71962775 -9.648276706 8.016859306e-21)
(72.115078 -8.559719946 6.31144827e-19)
(76.73788331 -3.048387434 0)
(71.54354163 -10.06412176 0)
(79.80105461 -10.40765495 0)
(87.61538078 -5.265983902 -2.650508052e-19)
(86.17352617 -5.487817686 -8.101014315e-19)
(87.66194137 -5.287459477 -1.859281318e-22)
(86.49059928 -5.374692516 3.893236564e-19)
(85.86960767 -5.841669087 1.585102108e-18)
(85.24502476 -6.555088187 3.791425766e-19)
(86.16234277 -5.489487331 8.072058106e-19)
(85.91518457 -5.744541595 1.189764823e-18)
(86.67412215 -5.320790266 0)
(89.31565441 -6.085839893 0)
(89.35642723 -6.104512207 0)
(88.45497031 -5.779203629 -2.644422382e-19)
(88.51676602 -5.813973281 5.286591004e-19)
(90.13178304 -6.859249699 -5.275325021e-19)
(90.15034376 -6.89484134 0)
(89.83233083 -6.373973884 -6.16188163e-19)
(89.85538977 -6.396266366 7.397552659e-19)
(91.85616091 -7.689519277 -2.781300153e-19)
(90.43821157 -7.4733774 0)
(90.45066516 -7.514109993 -2.670908697e-19)
(69.3362677 20.02854496 -6.86106813e-19)
(60.79299709 6.571975182 -3.147648042e-18)
(89.98348412 -6.374400899 0)
(90.51428971 -6.189594103 2.974192286e-19)
(90.70299474 -6.364759835 0)
(90.23533602 -5.982764112 3.00775778e-19)
(90.44800226 -6.135471656 0)
(89.95801509 -6.353372657 0)
(91.27753652 -7.015932437 5.756879921e-19)
(91.4852403 -7.256292843 0)
(90.68745728 -7.464242731 2.519454937e-19)
(89.51926502 -6.050830236 -3.32812612e-19)
(89.91667987 -5.790561934 3.034260276e-19)
(90.15973231 -5.933476726 0)
(89.04607015 -6.289456649 3.010861954e-19)
(88.98216694 -6.233911012 0)
(89.50383752 -6.165351211 5.207498147e-19)
(90.32734633 -6.876040105 0)
(91.01331568 -6.70954885 0)
(91.20975713 -6.937366772 0)
(90.76399861 -6.429097578 2.935346457e-19)
(90.94968538 -6.636322656 0)
(90.30436995 -6.838530733 2.497234801e-19)
(90.04429182 -6.703980007 0)
(88.9564199 -6.692581076 0)
(88.97851046 -6.549448065 0)
(88.17077832 -7.11674173 -6.407403698e-19)
(88.16990116 -6.990634287 0)
(90.18613483 -7.050028842 -4.888240102e-19)
(89.72784598 -6.297101477 5.22375536e-19)
(89.13682449 -6.371738243 2.262834876e-22)
(89.07202488 -6.311450152 -9.116590436e-19)
(88.99049774 -6.520389199 -1.155008287e-18)
(89.00504553 -6.468790036 5.620525536e-19)
(89.93976032 -6.481472066 0)
(90.36202531 -7.33510691 1.02113774e-18)
(88.31381683 -7.272249292 -9.685460635e-19)
(88.18984873 -7.171157272 3.224748827e-19)
(88.22632193 -7.6295453 1.624916237e-18)
(90.48622606 -7.715901509 -7.81427292e-19)
(84.47998745 -7.442591684 1.909138011e-18)
(84.6817114 -7.284847024 2.057684873e-18)
(63.42347266 -3.855002312 -7.945230983e-19)
(64.91579284 -5.757601082 2.299972873e-18)
(82.03312004 -9.449606558 -9.234543233e-19)
(82.44047229 -9.135484395 4.572068364e-19)
(82.56335076 -8.816379441 2.353249149e-18)
(82.39557015 -7.34330794 0)
(83.60156501 -7.126886724 1.104526935e-18)
(80.31748662 -7.389754147 0)
(81.92871546 -7.391331317 -1.207585871e-18)
(82.13027319 -9.041399296 0)
(84.82493056 -7.186856111 -1.578819633e-18)
(84.93354506 -6.591792981 3.220672972e-19)
(85.45095944 -6.285565753 -4.505798616e-19)
(83.93835904 -7.030906172 7.095891276e-19)
(84.72519138 -6.701527608 -1.624316144e-19)
(84.62312798 -7.336911821 0)
(76.96311261 -9.772338076 0)
(77.51479455 -6.945950418 0)
(79.68755663 -7.330984522 0)
(75.75983344 -10.99526847 -2.088625633e-18)
(76.98113968 -10.95412327 1.065990352e-18)
(86.33861324 -5.476934471 0)
(87.06090861 -5.409516547 -8.05368107e-20)
(87.12181385 -5.418138393 2.924473382e-19)
(86.87744156 -5.42108599 6.494675297e-19)
(87.01935693 -5.411478527 1.631934065e-19)
(86.2980087 -5.503652401 -1.643704978e-18)
(87.23239181 -5.54232594 5.946044448e-19)
(87.32235583 -5.679420304 -6.069662125e-19)
(87.13333418 -5.437180632 -5.792029464e-19)
(87.20658324 -5.509684589 -5.886317427e-19)
(85.65138135 -6.092911012 -3.98902511e-19)
(86.06985057 -5.870335924 -1.218278768e-18)
(86.33857985 -5.682661695 0)
(85.59262789 -6.193170989 3.044379221e-19)
(85.96436539 -5.944501415 -6.075064451e-19)
(85.57508136 -6.208477795 -1.19795364e-18)
(86.05197965 -5.612470882 -4.008239878e-19)
(86.66711331 -5.491781312 -9.510754143e-19)
(86.82996923 -5.431042018 0)
(86.41393716 -5.630325787 -9.293045407e-19)
(86.60669486 -5.518020287 -6.320391809e-19)
(85.99252468 -5.632043685 -1.607916188e-18)
(88.35811646 -6.183039128 5.845677447e-19)
(88.45373862 -6.220034605 -8.930171239e-19)
(88.21970482 -6.213352841 8.374751586e-19)
(88.33419111 -6.182332364 -5.796582074e-19)
(88.59081984 -6.229683468 0)
(88.63393275 -6.290372872 0)
(88.49335823 -6.226340943 1.493667389e-18)
(88.57828704 -6.223433912 -1.522619976e-18)
(87.6179858 -5.932103019 6.280225012e-19)
(87.8237468 -6.03358672 0)
(87.36500767 -5.737282272 -1.222690442e-18)
(87.54996609 -5.891806355 -6.22248836e-19)
(88.1481375 -6.156080171 -3.246372945e-19)
(88.20016645 -6.201735139 -5.597857249e-19)
(87.89221128 -6.061712913 0)
(88.09142778 -6.134796178 0)
(89.04186804 -6.86538929 9.378864518e-19)
(88.97208518 -6.751631711 6.040031282e-19)
(90.06414234 -6.744598122 0)
(87.98434861 -6.707692128 -1.375023898e-18)
(88.08426468 -6.807296762 -6.955878299e-19)
(88.02556262 -6.467107027 -3.3652926e-19)
(87.96226843 -6.633964727 0)
(88.05675237 -6.829836581 -1.406705146e-18)
(90.17870725 -7.004629007 -8.213209969e-22)
(88.30133437 -6.951643342 0)
(89.01586766 -6.898683515 0)
(88.98274858 -6.432088369 -2.648493947e-19)
(89.1504959 -6.400699712 2.944268513e-19)
(89.75594635 -6.319689362 0)
(88.70901513 -6.400957523 0)
(88.09166082 -6.393708846 3.048779266e-19)
(88.65811944 -6.314941708 0)
(88.69834111 -6.377934661 0)
(88.08419064 -6.406916489 0)
(88.05007251 -6.441665104 2.008607401e-18)
(88.07566115 -6.391873423 0)
(88.08499644 -6.40042225 7.430105425e-22)
(89.9212205 -6.459018056 0)
(89.0026376 -6.457925233 1.115767123e-18)
(88.98046874 -6.442347814 0)
(88.35484836 -7.338940292 1.637596824e-18)
(88.33962713 -7.288014796 -3.242189406e-19)
(90.38596479 -7.368348035 2.580697418e-19)
(90.48067714 -7.660234321 2.003597171e-19)
(88.23173255 -7.562480295 5.285583074e-19)
(88.33850415 -7.364385811 3.292501308e-19)
(88.69623491 -5.731843583 0)
(89.12913667 -5.379438027 3.162589907e-19)
(89.44741186 -5.546941754 0)
(88.68788288 -5.124486746 -3.225571707e-19)
(89.0196235 -5.318137838 3.178290578e-19)
(88.57571984 -5.672164379 -2.205240843e-22)
(89.54807977 -5.598449967 0)
(89.8295695 -5.743272866 0)
(89.43536244 -6.017112773 3.343329937e-19)
(89.13922591 -6.028014598 2.56458521e-19)
(88.68256281 -6.163566653 -1.091779408e-18)
(88.54373205 -6.15434095 0)
(88.50280052 -6.140270747 0)
(88.3655146 -6.095659855 0)
(88.76268464 -5.915017144 0)
(84.12013254 -7.848314062 -4.484295033e-19)
(81.09010067 -10.10642659 -6.590870145e-18)
(80.23571493 -10.56795743 0)
(83.1639896 -8.62370539 0)
(83.29345524 -8.384772193 0)
(83.32668962 -7.997555755 -1.137833407e-18)
(83.66021641 -7.815295449 -7.491480371e-19)
(85.07092976 -6.833811295 -3.445145557e-18)
(85.20525002 -6.726694377 -1.299384511e-18)
(85.33172578 -6.601038644 -1.293515245e-18)
(83.96594857 -7.627950295 5.466541521e-21)
(84.23797657 -7.443818435 1.120948768e-18)
(84.20359158 -7.713405248 -1.589209131e-18)
(74.21651694 -5.28846639 0)
(76.72176484 -6.579250736 0)
(75.85232586 -9.693319558 -2.044537217e-20)
(73.04544099 -10.6121086 -5.578870282e-19)
(72.88144918 -12.61836602 -2.487940657e-19)
(71.01102994 -11.61999593 1.003211342e-18)
(79.68514225 -10.87373086 -5.122275773e-18)
(78.95786665 -11.24559183 -4.5961886e-18)
(79.00473437 -10.59844032 0)
(86.17780938 -5.406143209 -2.915593268e-18)
(86.53255792 -5.424041579 0)
(86.45094466 -5.430680067 -3.869674913e-18)
(86.52224715 -5.494851754 0)
(86.55965305 -5.493609608 7.27140447e-19)
(86.20080135 -5.495685759 -8.122132506e-19)
(86.40895495 -5.620686066 -1.906634442e-18)
(86.41049698 -5.692717768 0)
(86.40143638 -5.445715134 1.752213715e-18)
(86.39777299 -5.460011522 -7.324588562e-19)
(85.79563359 -5.936037501 1.987058488e-18)
(86.03416297 -5.915414213 6.820104995e-19)
(86.107088 -5.83448201 0)
(85.44840256 -6.491661597 1.962613471e-18)
(85.56442254 -6.388613245 -1.987705827e-18)
(85.35582594 -6.451407146 1.58675314e-18)
(86.1505853 -5.518142416 -3.998987115e-19)
(86.45868035 -5.528358681 -3.554472625e-19)
(86.4914935 -5.503827149 -1.43231434e-18)
(86.16681519 -5.758203141 0)
(86.21202903 -5.699313313 0)
(85.93460539 -5.680186161 4.000468744e-19)
(88.82891026 -6.200643607 -1.127745519e-18)
(88.71889468 -6.16890411 1.101921562e-18)
(89.18544017 -6.046364083 -5.144298555e-19)
(89.46960666 -6.145300599 2.602994103e-19)
(88.96056449 -6.224006638 -5.808893885e-19)
(88.86735549 -6.208595736 -5.677458491e-19)
(88.04177032 -5.972490305 -3.024646559e-19)
(87.84246191 -5.870425873 -5.961558128e-19)
(88.26992102 -5.684679942 2.641613965e-19)
(86.86730611 -6.093999878 -1.526419626e-18)
(86.93470629 -6.121553882 1.522276608e-18)
(86.43350275 -5.790255514 -7.663101706e-19)
(86.4939928 -5.880068389 0)
(87.0374923 -6.235632241 2.030854974e-17)
(87.00075657 -6.145933336 1.521872127e-18)
(87.06489613 -6.167070512 -1.524227158e-18)
(88.70280178 -5.88737746 0)
(88.30538418 -6.075397503 0)
(88.10866367 -6.001382113 3.053612449e-19)
(88.95658288 -6.634792508 -1.488763021e-18)
(89.49131003 -6.666531207 -2.839473415e-19)
(89.49809657 -6.714461164 0)
(88.15856848 -7.07281314 1.586623134e-18)
(89.28735655 -7.148442873 -1.066669062e-18)
(89.30318356 -7.185356912 5.386223354e-19)
(89.28823121 -7.065098948 1.284178342e-19)
(89.27526023 -7.111648991 -5.247834068e-19)
(88.14482666 -7.032435686 6.22560158e-19)
(88.51903682 -7.793286143 0)
(88.51733873 -7.817979173 -1.224846999e-18)
(88.2736677 -7.251902065 1.291747637e-18)
(89.38225274 -7.302020041 -8.29074702e-19)
(89.41244977 -7.32738781 1.951185327e-18)
(89.32219333 -7.227386417 -5.458739624e-19)
(89.34943943 -7.268885124 1.10074231e-18)
(88.22641146 -7.22013373 -1.288287026e-18)
(88.67574477 -7.761332322 2.60429011e-18)
(88.54768045 -7.774955299 -7.127235959e-20)
(89.3855112 -7.724251113 -2.4248659e-18)
(88.86948605 -7.738218797 -3.666490577e-18)
(87.81902964 -7.664068046 0)
(84.30907588 -7.611000203 1.803890368e-18)
(84.78796321 -7.039385992 0)
(55.94443191 -3.986026723 0)
(58.13653112 -6.91189543 0)
(66.32069409 -13.17561089 0)
(68.53117999 -13.39492633 0)
(60.83340468 -9.328202156 3.969643153e-18)
(63.70758015 -12.21256621 9.841683205e-18)
(61.86250071 -13.17252187 -3.036866443e-17)
(81.58408031 -9.784208755 1.313947916e-18)
(82.81200887 -8.854504141 1.361502141e-18)
(84.89162455 -6.99893454 0)
(85.06033555 -6.865692308 -6.857809974e-19)
(84.94376532 -7.014551477 4.815886477e-18)
(84.42609655 -7.506079702 -1.59237694e-18)
(84.4759282 -7.274336743 0)
(84.6889336 -7.125969951 0)
(75.7560986 -12.52251305 -4.497498309e-18)
(74.45974029 -12.74322518 -4.185755338e-18)
(74.4387292 -10.89971035 9.692463604e-19)
(70.56109395 -13.36806518 6.127910351e-18)
(72.28690813 -13.35815346 0)
(78.06891921 -10.80464825 0)
(78.0659191 -11.6929563 0)
(76.97502049 -12.15316681 0)
(86.68775078 -5.477951736 -3.752860353e-19)
(86.71415469 -5.459222907 -1.475837995e-18)
(86.35389289 -5.43396409 1.9761369e-18)
(86.24326907 -5.506552744 -1.632419872e-18)
(86.6042524 -5.494215012 7.332797174e-19)
(86.65301524 -5.490425665 3.69647975e-19)
(86.41249032 -5.52889186 -2.463513832e-22)
(86.41113837 -5.567284536 -7.607854626e-19)
(86.40661011 -5.477122146 5.521746025e-22)
(86.41123217 -5.499855446 7.535055382e-19)
(85.87624409 -6.078873088 1.349411218e-18)
(85.95703127 -5.993720184 6.738531885e-19)
(85.71943612 -6.009503548 -3.584162819e-18)
(85.4749762 -6.33490511 1.183944656e-18)
(85.67971931 -6.282425664 -6.654905494e-19)
(85.78517573 -6.17590562 1.342573192e-18)
(86.35680049 -5.601732107 3.517969105e-19)
(86.41329726 -5.565827976 3.531639477e-19)
(86.11420005 -5.568232782 -7.472367549e-22)
(85.95433126 -5.64601006 8.018571902e-19)
(86.25323003 -5.659180868 -3.477478779e-19)
(86.3008622 -5.630030084 7.005562736e-19)
(88.3839258 -6.193114084 -5.877217427e-19)
(87.65919882 -6.177185595 1.388450529e-18)
(87.64694583 -6.16575396 8.036585098e-22)
(87.72669718 -6.210743196 1.391648568e-18)
(87.68612436 -6.196404846 1.39122603e-18)
(88.41594993 -6.207464713 -1.77483029e-18)
(88.26088374 -6.208419776 8.459348332e-19)
(87.58826709 -6.22166563 -2.016152325e-18)
(87.55654435 -6.248700243 -3.219379277e-19)
(87.64112641 -6.167936123 1.377888349e-18)
(87.62457354 -6.189118259 0)
(88.30324633 -6.193327661 -5.747978783e-19)
(88.60164552 -6.244241174 0)
(87.84599421 -6.201283055 0)
(87.84948704 -6.186884224 0)
(87.86028518 -6.256282092 0)
(87.84789197 -6.225386834 0)
(88.6152392 -6.265224986 0)
(88.52956495 -6.226973681 0)
(87.81275384 -6.207355118 -3.486308163e-19)
(87.77232623 -6.213311261 -1.044348567e-18)
(87.85145958 -6.184399518 2.793452921e-18)
(87.84040807 -6.194291425 -1.392376374e-18)
(88.5582682 -6.224397826 3.019274215e-19)
(86.72920633 -6.027782746 1.906295581e-18)
(86.79842523 -6.06346329 -3.824597657e-19)
(87.68621005 -5.969151456 3.171079634e-19)
(87.35775533 -6.023656351 -6.633673931e-19)
(87.28738666 -5.987413301 -1.984639816e-18)
(87.49883654 -6.085333926 -1.676518487e-18)
(87.42855198 -6.056013697 0)
(87.75495987 -6.002906401 3.183550255e-19)
(86.5783831 -5.940525029 1.151759004e-18)
(86.6582817 -5.98627144 3.83204606e-19)
(87.2245468 -6.222981857 -3.012025008e-19)
(87.26209463 -6.226850407 8.036776885e-19)
(88.20266689 -6.185121789 1.244804509e-18)
(87.87321785 -6.231836888 -3.441413886e-19)
(87.81290927 -6.206567488 6.976571334e-19)
(87.57811824 -6.260617432 0)
(87.6373614 -6.250021729 -8.379917596e-18)
(88.19666814 -6.188576675 -1.171107015e-18)
(87.95995684 -6.087459637 3.231987613e-19)
(87.63646149 -6.136444406 0)
(87.56827676 -6.11215408 -1.011253109e-18)
(87.76670368 -6.182495824 -6.909897783e-19)
(87.70229438 -6.159837157 6.826162986e-19)
(88.02658112 -6.111564255 -9.793031382e-19)
(87.12553028 -6.188178665 0)
(87.1853451 -6.206116921 1.153760517e-18)
(89.02590522 -6.834510279 -3.075881628e-19)
(89.55721294 -6.84570753 0)
(89.57406492 -6.881400118 2.960624246e-19)
(89.51315667 -6.763579167 -1.158737494e-18)
(89.53504427 -6.807737515 -5.854358784e-19)
(89.00024353 -6.798954205 6.087862904e-19)
(88.02884383 -6.756188811 0)
(88.06630772 -6.786105277 0)
(87.99861578 -6.505340365 3.385025165e-19)
(87.97176714 -6.558224026 1.019179626e-18)
(88.02089706 -6.837445814 -1.734087847e-18)
(87.60027743 -6.859351022 0)
(88.50896405 -6.921360231 1.194560409e-19)
(89.45297179 -6.968662146 1.069114133e-18)
(89.35336921 -7.008384165 -5.137483575e-19)
(89.57163973 -6.915370125 0)
(89.56522881 -6.961573988 1.138810705e-18)
(89.0005896 -6.933735344 -1.515560071e-19)
(88.32797016 -6.387317025 0)
(87.56608667 -6.341783747 0)
(87.90406173 -6.338111937 0)
(88.18410361 -6.39412897 0)
(88.68299165 -6.336252111 0)
(87.90900488 -6.30164082 0)
(87.88376287 -6.28282688 0)
(87.91566566 -6.333819705 0)
(87.92811622 -6.315892808 -7.195956076e-19)
(88.70551298 -6.355655823 6.484243987e-19)
(88.07976107 -6.414640658 1.327902246e-18)
(88.06860835 -6.425105635 -3.334142081e-19)
(88.081701 -6.392104635 0)
(88.08473621 -6.39524512 1.312517223e-18)
(88.3588444 -7.320200022 -1.630345349e-18)
(89.45656158 -7.396763664 0)
(89.45813326 -7.425296598 -5.785372938e-19)
(89.43452595 -7.349505697 0)
(89.448728 -7.371991409 0)
(88.35350545 -7.303486101 0)
(88.2761374 -7.469273278 1.524831494e-18)
(89.42727548 -7.567000691 -9.110676514e-19)
(89.38825855 -7.644494807 -3.092310037e-19)
(89.45302266 -7.460164893 0)
(89.44075417 -7.506821555 -8.951824185e-19)
(88.30968255 -7.407658797 1.327152478e-18)
(99.7640358 0.5702698808 -1.303976942e-20)
(99.69951456 0.7983404246 6.267615281e-21)
(99.89695822 0.4972902867 6.307934323e-21)
(99.67285395 0.8876405217 -1.879070691e-20)
(99.60660115 1.199057518 -5.915701482e-21)
(99.86777309 0.7361288255 -3.546235164e-22)
(99.58079953 1.316873648 -8.688601528e-21)
(99.53440342 1.713665214 -3.342106016e-19)
(99.84821496 1.033346208 4.746177144e-21)
(99.51885083 1.858355644 3.12111996e-19)
(99.53671505 2.303767908 -4.332662039e-20)
(99.85665454 1.357677369 -1.908418393e-21)
(99.55162527 2.445665121 -4.788081391e-19)
(99.45699766 0.7720234498 -1.373672275e-20)
(99.29620162 1.107185621 -1.351026892e-20)
(99.6130547 0.8868897576 0)
(99.23749218 1.241125466 2.328836634e-20)
(99.05229237 1.737571788 -9.653729689e-20)
(99.4912595 1.340823371 0)
(98.99058747 1.938771796 -9.107343785e-20)
(98.84678444 2.635393899 -2.598028572e-18)
(99.39184745 1.94031492 1.993227401e-20)
(98.81918252 2.894371918 1.298356078e-18)
(98.83116953 3.720538429 5.912265365e-20)
(99.39452471 2.633839024 9.751856528e-22)
(98.87812767 3.990943965 1.034553626e-18)
(99.05454435 0.8403568217 4.455315282e-19)
(98.7451531 1.269057108 -5.359371324e-19)
(99.17195398 1.162500754 1.343701507e-20)
(98.62372305 1.455737782 4.231577032e-19)
(98.23083944 2.175379698 -5.660757245e-21)
(98.87211192 1.861362279 9.440634261e-20)
(98.09818872 2.474925167 -1.897688787e-19)
(97.74055873 3.587005474 -2.342692948e-20)
(98.61841719 2.87197579 1.318913716e-21)
(97.66033769 4.024278216 0)
(97.6800244 5.451496475 -1.185397598e-18)
(98.59333909 4.117067937 7.013301981e-20)
(97.80584701 5.926485663 1.20459045e-18)
(98.60349591 0.7367734633 0)
(98.07463546 1.223769634 -4.431473097e-19)
(98.58760195 1.278291352 -4.203835098e-19)
(97.86671646 1.441778855 8.498121109e-19)
(97.13122406 2.331251228 -8.429357087e-19)
(97.98212615 2.252241527 1.779482816e-18)
(96.8489453 2.735412981 8.29767667e-19)
(96.00024204 4.336555025 -9.053505969e-19)
(97.37238213 3.813491409 2.334632997e-20)
(95.76186325 5.009096988 0)
(95.49126821 7.467264982 -8.859536574e-19)
(97.26318558 5.947836404 -8.078073859e-20)
(95.65579931 8.384947673 7.613925688e-19)
(98.1674057 0.4432750125 -2.316689432e-19)
(97.40615159 0.8873149734 4.439223763e-19)
(97.90037975 1.171512584 4.317513187e-19)
(97.0874746 1.091786621 -9.133573557e-21)
(95.85534834 1.974797758 0)
(96.81682371 2.29973866 4.292933286e-19)
(95.35089744 2.383477744 0)
(93.58466874 4.102519719 -6.496665876e-19)
(95.44559254 4.409047776 0)
(92.93612887 4.903712235 0)
(91.09895612 8.443484921 0)
(94.65610985 7.914892929 -2.524605364e-19)
(90.69888475 10.26954598 0)
(97.84377453 -0.04362942886 6.005485661e-20)
(96.89813787 0.2286282694 -1.150829952e-19)
(97.25843315 0.7504493259 0)
(96.48093935 0.3594955737 -4.728574183e-19)
(94.82724791 0.9158888839 2.66561152e-19)
(95.55629096 1.772811297 -4.906186954e-19)
(94.12647689 1.164325195 2.1297888e-19)
(91.47000357 2.123037535 3.695871712e-19)
(92.95806433 3.782092219 0)
(90.35343572 2.514587321 0)
(84.69472269 3.857348173 0)
(89.58133036 8.077630246 0)
(86.31347353 8.323717685 0)
(83.89827106 13.09857377 0)
(88.98752918 13.36288333 0)
(97.72641137 -0.66818898 -4.697288302e-19)
(96.69676092 -0.637956076 8.943937873e-19)
(96.81973167 0.02357649768 0)
(96.23699659 -0.6176981855 5.501527447e-19)
(94.45593418 -0.5457215715 -7.209327023e-20)
(94.66840434 0.5667400909 -2.552533429e-19)
(93.72377791 -0.5329124899 7.396840456e-20)
(91.12265358 -0.6567531537 3.796810273e-19)
(91.2009037 1.409223082 -3.743493407e-19)
(89.94681607 0.7599556366 -4.155485699e-19)
(88.686671 0.7976362435 0)
(88.76028066 1.854932009 -4.531424298e-19)
(83.22001607 1.522057655 0)
(81.70946422 1.284136171 0)
(81.50371373 2.807006748 0)
(97.83199486 -1.335800286 9.290780711e-19)
(96.81807934 -1.540731954 -4.888720362e-19)
(96.69783883 -0.8662832568 -9.265905417e-19)
(96.36874419 -1.621863862 0)
(94.69419341 -1.938273685 2.798858103e-19)
(94.46861358 -0.9124019942 -2.856442965e-19)
(94.04085839 -2.081930761 -1.316151137e-20)
(91.91761522 -2.696852127 3.853454977e-19)
(91.26741946 -1.248694238 3.778048682e-19)
(90.62626597 -2.037168847 0)
(89.79517219 -2.356040469 1.212122522e-19)
(89.43327191 -1.750035443 -3.260693969e-19)
(87.1228135 -3.558879595 -4.55549164e-19)
(86.82747193 -4.050901575 -5.7368557e-19)
(86.33796518 -3.851421312 -1.187904102e-19)
(98.13623281 -1.971290179 0)
(97.19764942 -2.368045706 0)
(96.89144474 -1.757296053 5.11627381e-19)
(96.78462675 -2.52544272 0)
(95.28505053 -3.091287392 2.666218283e-19)
(94.81705444 -2.249750336 0)
(94.71715592 -3.314757739 -1.341927853e-19)
(92.93348032 -4.085767244 -8.082685281e-21)
(92.16579712 -3.089239498 -1.086363032e-18)