/*--------------------------------*- C++ -*----------------------------------*\
| =========                 |                                                 |
| \\      /  F ield         | OpenFOAM: The Open Source CFD Toolbox           |
|  \\    /   O peration     | Version:  v2012                                 |
|   \\  /    A nd           | Website:  www.openfoam.com                      |
|    \\/     M anipulation  |                                                 |
\*---------------------------------------------------------------------------*/
FoamFile
{
    version     2.0;
    format      ascii;
    class       volVectorField;
    location    "2.71";
    object      U;
}
// * * * * * * * * * * * * * * * * * * * * * * * * * * * * * * * * * * * * * //

dimensions      [0 1 -1 0 0 0 0];


internalField   nonuniform List<vector> 
3259
(
(99.99787483 0.4083185922 0)
(100.0009173 0.4193197027 7.195077868e-22)
(100.0038185 0.392248823 -1.321065287e-21)
(100.0053211 0.3371385925 8.824904128e-22)
(100.00556 0.2704570009 0)
(100.0052601 0.2055431381 1.530128675e-21)
(100.0050263 0.1480005584 6.302099481e-21)
(100.0027055 0.1052179619 -1.790718544e-21)
(100.011202 0.1214627546 -1.561407366e-20)
(100.0077815 0.07529591896 0)
(100.0058078 0.04039621759 -1.968776863e-21)
(100.0056036 0.01280486945 -1.387233381e-20)
(99.88433589 1.838853578 2.175691708e-21)
(99.9752781 1.910250431 -1.517223688e-22)
(100.0665996 1.803945836 -4.511719828e-22)
(100.1264665 1.559151966 4.530367961e-21)
(100.1453745 1.250909842 -9.118413605e-21)
(100.1330888 0.9531968367 0)
(100.1455433 0.7271570202 -2.689147942e-20)
(100.1055401 0.5009100045 5.199495645e-20)
(100.1053596 0.3482338168 1.511969876e-20)
(100.0746552 0.2151089635 3.127043167e-20)
(100.0566133 0.1157506854 -3.136299363e-20)
(100.0497188 0.0367087077 1.584185163e-20)
(99.68299448 3.603210326 -3.90420153e-19)
(100.0429278 3.760497727 0)
(100.3636549 3.51882572 0)
(100.5529397 2.996998457 1.745704375e-21)
(100.5988498 2.368224233 -9.834982363e-21)
(100.5393934 1.759601437 -2.366895226e-20)
(100.484177 1.25006202 -1.613407715e-19)
(100.3602146 0.8481213122 -3.606487101e-20)
(100.2927463 0.5304750833 -1.555399699e-20)
(100.2102069 0.3256895676 3.537731842e-20)
(100.1600799 0.1752108189 -3.981159734e-21)
(100.1380814 0.05525076298 0)
(99.33720403 5.782309684 0)
(100.2670813 5.964303444 -2.546442665e-19)
(100.9923605 5.410687489 -8.545682711e-19)
(101.3376805 4.468568305 5.847306349e-19)
(101.3685128 3.41550909 0)
(101.2130395 2.469881847 0)
(101.0130252 1.666640491 5.912510296e-20)
(100.7478798 1.103322093 -4.592824409e-20)
(100.556668 0.642286236 -3.991022216e-20)
(100.4013335 0.3892740379 2.02386405e-20)
(100.3044725 0.2072015149 -4.064985109e-21)
(100.2600833 0.06479567547 0)
(98.86724563 8.788471264 0)
(100.9875873 8.823221334 0)
(102.3215397 7.511117126 1.327826326e-18)
(102.7349614 5.830918035 -1.678008733e-18)
(102.578314 4.284132462 -4.651299959e-19)
(102.1547417 2.966493263 -6.198119901e-22)
(101.707788 1.900925885 -9.889934253e-20)
(101.2420533 1.223682623 8.245450255e-21)
(100.8659207 0.6536827496 0)
(100.6191701 0.390637928 4.15710712e-21)
(100.4646636 0.2033055011 -3.121791962e-21)
(100.3926866 0.06273984264 -1.035547018e-21)
(97.87523039 13.537741 -7.86341166e-21)
(102.8796412 12.88059888 0)
(104.9487096 9.620946968 0)
(104.9719505 6.802531797 -1.50072023e-19)
(104.2646771 4.718332105 3.032439807e-19)
(103.3676005 3.139126355 0)
(102.5030119 1.868723284 2.55237962e-20)
(101.7873175 1.162886289 -1.713999436e-20)
(101.1834067 0.5482434138 0)
(100.8303545 0.3183519483 0)
(100.6122944 0.1575745609 -1.053039507e-21)
(100.5102225 0.04747175615 -3.163862306e-21)
(93.65783162 22.49543135 -1.283025665e-20)
(108.370731 18.83132106 0)
(109.5762847 11.01576364 -4.125267824e-19)
(108.0657232 6.819575538 -8.462852876e-19)
(106.3230249 4.385198672 8.040269526e-19)
(104.7141954 2.78052314 1.651617417e-19)
(103.2999486 1.497109862 0)
(102.3081491 0.8713273286 9.467197918e-21)
(101.4562995 0.3231837635 2.782068294e-21)
(100.9961613 0.1652379546 -3.286964157e-21)
(100.7178447 0.06885621071 -3.737982512e-21)
(100.5864892 0.01888385979 8.986444315e-21)
(122.653136 22.17115529 0)
(116.0555596 9.346910942 -1.281762705e-18)
(111.4554486 5.089885404 0)
(108.3236911 3.02870999 0)
(105.9468333 1.774917744 -3.773756973e-19)
(103.9459254 0.7645882335 -5.074336984e-21)
(102.7001436 0.3607760618 2.142509705e-20)
(101.6240178 -0.01538336745 -3.403947528e-21)
(101.0772176 -0.05818901554 2.781169386e-21)
(100.7517157 -0.05709780198 -5.345680857e-22)
(100.5958367 -0.02161804681 -8.458830833e-21)
(135.5195765 7.502067977 -2.243848845e-18)
(120.7125695 3.108184234 -7.684179617e-19)
(113.7705862 1.479371196 -1.393242812e-19)
(109.6300211 0.6883249232 3.371983496e-20)
(106.718129 0.2241785143 -4.161402635e-19)
(104.2820123 -0.2442364928 -5.21335762e-21)
(102.8677051 -0.3181726659 1.21040815e-20)
(101.640141 -0.432841523 1.175044901e-21)
(101.0421599 -0.3305757045 0)
(100.6889837 -0.2087306107 4.274316138e-21)
(100.517351 -0.07057242905 4.220292887e-21)
(133.3455034 -8.31662274 2.235574061e-18)
(120.651428 -4.415056098 7.993835029e-19)
(113.940008 -2.872278098 -6.561246961e-19)
(109.7600026 -2.074833292 0)
(106.776773 -1.586604759 -5.208325772e-19)
(104.199148 -1.378190157 4.418030036e-20)
(102.7543023 -1.077407793 0)
(101.4770849 -0.881336714 -1.150375185e-21)
(100.8728721 -0.6220397839 -4.736636773e-21)
(100.51512 -0.3706703902 5.286007065e-22)
(100.3388072 -0.1230206879 0)
(124.9541697 -17.19400388 0)
(117.0756433 -10.04796648 6.318864242e-19)
(112.1534063 -6.569492894 -1.17746381e-18)
(108.7260436 -4.582798411 -9.819345496e-19)
(106.1020939 -3.296313962 -5.857139946e-19)
(103.6892312 -2.446523909 0)
(102.3595753 -1.804245336 -2.873028114e-20)
(101.132008 -1.307490639 -1.431049432e-20)
(100.5678367 -0.8996933234 1.080291639e-21)
(100.2282578 -0.5261218684 -3.406561909e-21)
(100.0583312 -0.1735905303 4.994596053e-22)
(115.8904605 -20.49740745 0)
(112.1209132 -12.96319016 0)
(109.248994 -8.910222126 0)
(106.8866181 -6.37217957 2.322903056e-20)
(104.86265 -4.606740881 -6.957812712e-19)
(102.8383902 -3.298642141 2.282003924e-21)
(101.7290805 -2.409873035 -3.476022989e-20)
(100.633844 -1.671742869 8.48220783e-21)
(100.1428594 -1.134810589 0)
(99.83882499 -0.6605496684 3.925402631e-21)
(99.6843113 -0.2175786073 0)
(137.6558228 10.62889703 2.888553707e-19)
(123.675317 24.95245637 0)
(136.1797118 -7.450425145 -1.459246878e-18)
(138.2827621 8.058141053 -8.858708496e-19)
(127.1680354 -17.71221087 0)
(135.2670623 -9.201380914 -5.282833327e-19)
(117.4280961 -21.54336672 -1.182634526e-18)
(125.9299584 -18.47931301 -8.712926516e-19)
(116.2537444 -21.70026403 5.732468236e-19)
(91.89626373 21.18287973 -2.660833998e-19)
(120.6643613 25.49727039 -7.117085019e-19)
(106.4659298 20.46129242 -2.757228519e-20)
(145.4639342 29.55700427 -1.094515435e-18)
(125.7540436 43.25406773 0)
(134.8802647 9.764004308 1.069148154e-18)
(122.4018666 5.94838127 8.124925317e-19)
(117.5895079 11.14583799 -5.426335946e-20)
(148.9888271 -2.509106895 2.099110728e-18)
(151.1523718 10.57268922 5.742342294e-19)
(134.1184604 -6.693337693 4.846230022e-20)
(123.5798631 -3.045670228 8.28018845e-19)
(123.2850963 3.729524455 -8.119493779e-19)
(136.4481416 -19.68296769 1.683275484e-18)
(143.0481865 -13.45226089 0)
(126.0965262 -16.44044265 8.77549875e-19)
(119.9634662 -10.11405458 4.044345956e-20)
(123.006946 -5.099941041 -1.614521066e-18)
(124.060626 -25.74215276 0)
(129.3682152 -23.84154438 0)
(108.4882133 -31.71214189 4.401873849e-19)
(112.6394339 -26.64047714 4.067903499e-19)
(117.5511876 -26.82379278 1.065844604e-18)
(151.1545957 11.58450078 -1.144084797e-18)
(146.2139341 28.43020015 2.322694557e-20)
(133.7550702 18.15120853 0)
(144.6693497 26.74420126 3.51514085e-19)
(150.0667866 11.53935318 5.573069734e-22)
(143.4533986 -12.90703739 -3.083831159e-18)
(148.7310603 -3.266808294 1.027472085e-18)
(137.6826475 -0.9024153333 1.07526162e-18)
(148.034675 -2.951126048 1.01367098e-18)
(143.0431905 -12.49113844 -9.822736831e-19)
(150.1092966 10.54966919 5.655837285e-19)
(148.2794112 -2.21097167 0)
(137.8283696 0.1987825071 1.102976772e-18)
(130.1442926 -23.47870551 1.110699728e-18)
(136.0009683 -20.02565111 0)
(130.824986 -14.8047401 0)
(135.526289 -19.44717114 -1.309247781e-18)
(129.9124705 -22.68847839 -8.785558172e-19)
(142.6511377 -13.03323549 1.936184248e-18)
(136.3863633 -18.83509114 5.075864133e-19)
(132.0071329 -13.60754406 -1.068712193e-18)
(118.2633699 -26.77430483 0)
(123.3193438 -25.93092062 0)
(106.1573852 -31.59281665 5.269023688e-19)
(105.7560872 -31.46242385 -8.773238879e-20)
(111.9454213 -26.60622132 -7.57568292e-19)
(108.4487344 -31.70677311 0)
(149.4596848 52.94025382 0)
(123.4204346 65.44755644 1.512506741e-18)
(122.5576574 -27.2658923 0)
(116.9890926 -20.31763297 0)
(114.393232 -13.89799088 -5.736822302e-19)
(118.6603336 -11.36667768 -3.987100837e-21)
(104.6266937 -30.35219508 5.12228985e-18)
(114.8374772 -29.90010711 1.255360505e-19)
(117.3186103 -29.6976879 -4.564893501e-19)
(125.3820314 39.64980819 1.859040207e-19)
(143.2098442 28.94606571 0)
(131.7073202 20.37282481 1.030680133e-18)
(117.6907757 -29.62776479 0)
(120.1762726 -29.32257677 -1.304371744e-18)
(121.0298147 -20.66943007 -7.133189838e-19)
(123.1734478 -25.1665597 0)
(118.1822625 -26.01256955 5.326142065e-19)
(129.1466021 -23.0478131 0)
(123.904309 -24.9705478 0)
(122.2471404 -20.23747226 7.517195648e-19)
(83.83079704 30.97707896 -2.865782159e-19)
(121.9973205 43.23394081 0)
(104.8326911 34.76582011 0)
(86.33176526 33.59336582 4.515423379e-20)
(150.8752498 49.76863999 0)
(139.2731436 37.78023813 0)
(149.5173807 49.7436795 1.67958596e-17)
(123.6626769 61.06947457 0)
(147.3129012 52.3172984 0)
(136.3410687 39.75512705 0)
(150.22066 3.18084288 1.236828978e-18)
(150.3877116 4.043954037 1.230877129e-18)
(139.5807571 -17.19473974 2.792032422e-18)
(140.0292439 -16.76618926 0)
(122.8935455 -28.69267271 -1.25006192e-18)
(123.222634 -27.42487324 2.259228827e-18)
(126.3079628 -25.05903587 1.792687117e-20)
(125.5320158 -27.44356856 -2.631437598e-18)
(123.553726 -28.34134457 6.12266955e-19)
(126.300652 -25.98839516 3.345040505e-18)
(125.5997713 -27.32932562 1.325274455e-18)
(127.0654077 -24.78972182 6.105181365e-19)
(111.9118606 -29.61763913 4.248333374e-19)
(114.1119067 -29.87115355 0)
(105.760838 -30.60266278 -8.559613914e-20)
(149.9632432 19.00702583 1.170753878e-18)
(149.6688214 20.16391284 -2.360617892e-18)
(146.0412086 -8.689157487 2.331714952e-18)
(146.3766817 -8.043589947 -1.160068627e-18)
(145.8849325 -7.725491431 1.330230393e-20)
(141.7525767 -5.574740823 -1.220531584e-18)
(142.9218304 -1.916152561 3.758614473e-18)
(139.6538188 -9.881827985 2.687477046e-20)
(141.281202 -6.718538494 -1.384965876e-20)
(145.560171 -8.369534501 0)
(149.6549129 4.188076699 -1.188649292e-18)
(143.8627099 4.995526752 -2.612748673e-18)
(143.6239457 9.580152353 0)
(143.2171294 -0.6085418755 -1.865525924e-20)
(143.7908786 3.54094223 2.602320688e-18)
(149.5143699 3.331562798 -1.165850063e-18)
(132.6538815 -22.00377754 -7.381862899e-19)
(126.6148382 -25.72986192 -7.423644975e-18)
(133.0599856 -21.73779958 7.502717063e-19)
(123.189769 -28.42928227 0)
(120.7202686 -28.89483161 0)
(121.1295218 -26.39398275 0)
(120.5062219 -29.26291928 1.298102137e-18)
(122.5931793 -28.79986554 1.191192454e-18)
(102.0132679 -30.02492994 0)
(111.1761603 -29.49195489 0)
(117.2294042 87.16181428 0)
(114.3194639 -31.06166437 8.747644709e-19)
(114.7389845 -30.79283887 -1.511954862e-18)
(38.81571777 6.746416904 6.643963067e-18)
(114.5999911 -30.64320921 -4.990601144e-19)
(114.0292833 -30.12705672 1.280212399e-18)
(69.360053 41.6471013 5.497170462e-20)
(118.6550725 64.46229109 -1.631207249e-18)
(99.49914251 51.29961617 1.947309632e-19)
(76.10533651 48.55213361 -1.776310837e-19)
(149.5975993 -0.1291060105 0)
(153.8730193 10.42510128 0)
(153.3089052 7.256223973 3.074154689e-18)
(150.950923 7.65900921 1.201922683e-18)
(137.7752403 -18.72937006 -8.635222664e-19)
(138.0319019 -20.2222912 0)
(136.7449157 -21.13089049 -2.77590947e-18)
(143.2494737 -14.92114038 3.833537528e-18)
(141.7594031 -16.52540783 4.420545935e-18)
(141.7881471 -14.97043941 2.810258554e-18)
(150.8445445 14.68064834 0)
(153.7985186 14.77039668 6.20298843e-18)
(154.0551833 11.51409015 0)
(148.5402523 19.75999308 -1.157316119e-18)
(141.311438 17.7558443 -1.225131425e-18)
(138.4259999 22.67733369 1.128638669e-18)
(143.3707321 11.17920382 1.278775095e-18)
(141.9989712 16.08559605 -1.255090701e-18)
(148.8084174 18.67092552 1.13203072e-18)
(144.6187199 -11.18072505 1.092263019e-18)
(145.1161355 -12.49773827 -1.341757722e-18)
(143.7341283 -14.35902998 0)
(147.8045735 -5.445907218 6.282403744e-18)
(136.277969 -21.44025849 2.796412324e-18)
(134.8751624 -22.23751797 -1.657074758e-18)
(134.708665 -20.78931375 -8.002159274e-19)
(133.0513513 -21.01392892 7.060499806e-19)
(131.3705086 -18.58281544 8.95507637e-19)
(133.5281237 -16.96017542 -9.572695951e-19)
(139.7477555 -16.31621341 0)
(137.0842121 -13.46687406 -1.081012928e-18)
(139.0467084 -10.84886457 1.154690188e-18)
(134.250703 -16.34647289 9.776719913e-19)
(136.3912978 -14.2524535 -2.056004768e-20)
(139.3175588 -16.74184177 -8.874780733e-19)
(120.4111265 -26.51469953 0)
(120.369558 -28.95776931 0)
(118.0391793 -29.06156567 5.940873668e-19)
(103.3386169 -30.711405 0)
(140.5091193 61.95922257 0)
(119.0609541 83.54214975 0)
(136.6173201 64.37331841 -1.123440678e-18)
(123.789761 -26.77645267 3.742294776e-18)
(124.0638489 -26.63957845 4.413163377e-18)
(113.5429826 -31.13661346 0)
(114.1938006 -31.06679435 0)
(104.4161371 -29.94502003 0)
(51.56429146 -9.272372237 0)
(45.70577044 6.734774547 3.775716222e-18)
(54.88798049 -11.03148862 4.659070543e-18)
(116.1559246 -29.7461608 -5.916421255e-19)
(116.6220545 -30.2263693 1.571306896e-18)
(119.1254707 -29.47773229 0)
(113.2142577 -29.81623618 -8.814924827e-19)
(112.7125529 -29.34008224 -5.654179342e-18)
(153.0649324 41.94962552 -8.339522445e-17)
(147.9077495 39.46199461 2.230333644e-18)
(143.1508242 44.0265805 0)
(151.9213624 33.14744576 -1.177541623e-18)
(149.1547454 37.88509474 0)
(141.3061273 45.49478722 0)
(134.9212801 49.25588654 9.031445067e-19)
(139.0192029 58.49684749 0)
(152.0119237 2.575663766 1.530499163e-18)
(150.9039896 -0.09338646989 0)
(149.7436856 0.6733546927 -1.109497639e-18)
(150.8357871 6.722856868 0)
(153.0584167 6.247748596 0)
(152.2816891 3.469951534 -2.28664769e-18)
(140.0121549 -18.58826969 4.380643526e-18)
(138.5163778 -19.8585767 0)
(138.2294978 -18.37650459 0)
(137.4087346 -20.4416583 6.730023909e-18)
(139.1896099 -19.11229189 -4.883224573e-18)
(136.1840777 -21.53584267 2.007822258e-18)
(136.9041254 -20.80682094 -6.19408074e-18)
(139.6969314 -18.55451007 -6.843623455e-19)
(141.3552861 -15.43380977 0)
(141.2453733 -16.94546074 -4.044907481e-18)
(140.4831119 -18.10598685 -1.677043154e-18)
(123.2340294 -28.32458364 -1.579652141e-19)
(123.368054 -28.13011647 -1.349806784e-18)
(124.8206239 -27.96424691 -2.555371071e-18)
(125.4478211 -26.73738867 -1.225333254e-18)
(126.575218 -26.42177041 -1.276926561e-18)
(126.4912778 -26.62753192 1.254742592e-20)
(128.4982822 -25.67979594 0)
(129.6579225 -25.19157407 7.092343304e-19)
(126.9492652 -26.24876716 1.275708921e-18)
(128.1102582 -25.83614761 6.761141224e-19)
(126.3140223 -26.81803837 -3.181938716e-18)
(107.4020708 -31.38540906 0)
(112.3230201 -31.07937784 -7.37129111e-19)
(113.2582122 -31.11989507 3.90350172e-19)
(153.69746 19.70216153 -5.323740229e-18)
(153.7331316 16.0258641 2.783264883e-18)
(150.666078 15.72789027 -1.170442509e-18)
(154.5131124 16.09726917 -3.815784442e-18)
(154.7042235 19.79359959 5.96391853e-19)
(154.3409096 14.75756643 0)
(153.7110737 26.8493713 5.716225179e-18)
(152.6199013 31.5417206 0)
(154.7406605 21.0383303 -2.140954324e-18)
(153.9350941 25.39934003 0)
(148.5189051 23.61289067 -1.152743368e-18)
(152.7870009 25.02384118 0)
(153.6424279 20.98594535 -1.172490735e-18)
(146.7742556 -9.802895588 -8.416361039e-18)
(145.5623934 -11.83000363 -9.452941412e-18)
(144.9895093 -10.57619947 9.083847195e-21)
(147.443503 -6.116642897 5.408736238e-18)
(147.9532556 -7.251134374 0)
(147.11666 -9.104594922 1.433015208e-18)
(131.5424895 -24.27686626 1.117128968e-18)
(132.7056626 -23.70545752 8.230437852e-19)
(130.0524937 -25.01754209 -1.477741327e-18)
(131.1949478 -24.44334963 -1.505780864e-18)
(126.9830065 -25.05130751 -6.762854576e-18)
(134.4194071 -22.61062609 0)
(135.7841833 -21.84233431 0)
(133.0800066 -23.4712499 -8.280826783e-19)
(134.0171421 -22.85648044 -3.264799515e-18)
(112.070606 -29.11032647 0)
(121.509161 -29.08192887 -5.598689406e-19)
(115.2167121 -28.92928282 -6.800844507e-18)
(115.4197679 -29.46060646 0)
(115.3937565 -28.81333814 -7.018842638e-18)
(121.8113254 -28.98887583 -2.860171719e-19)
(102.1332673 -30.45444849 -3.102363474e-18)
(120.1324379 22.73062089 9.956130336e-19)
(115.5292538 12.09490946 -5.901655e-19)
(109.7548305 12.56300205 0)
(107.8233826 -30.06395326 4.97670872e-18)
(108.0806233 -29.98083023 5.960593658e-18)
(112.9380184 -14.36580317 0)
(107.4275934 -29.74636472 -1.710183666e-17)
(117.4850818 -26.07622566 -5.32797266e-19)
(113.0215659 -25.65128761 -6.84533682e-19)
(112.8189433 -21.80146072 4.671929493e-19)
(55.08128156 52.75555222 0)
(53.61360423 29.37066746 -5.617332331e-18)
(41.22431204 16.0501364 0)
(103.6724167 90.81140451 -1.912346845e-18)
(88.81245098 69.48224165 -7.308036569e-19)
(61.78612342 61.70284109 0)
(112.8644854 24.34300534 0)
(108.1623571 32.17299184 1.823217016e-19)
(122.1697775 39.72174364 1.429327383e-18)
(142.8058009 33.29022649 1.065139165e-18)
(147.1675486 36.60799724 3.209762284e-20)
(150.1344775 32.20962336 1.235622997e-20)
(110.9363581 -30.89745445 6.727342458e-19)
(111.9791115 -31.09598534 3.596790096e-19)
(107.8327787 -31.46732812 9.049327509e-20)
(117.3079372 -29.11833515 0)
(115.1148496 -29.11460291 0)
(115.4282568 -26.86472125 -9.388486129e-19)
(150.9273057 30.77062796 -1.704269502e-20)
(152.4286946 26.40175101 0)
(148.0299711 24.75498562 1.157584141e-18)
(102.2811135 -30.93324517 0)
(105.2500128 -31.37266154 3.77356243e-19)
(100.0269428 -30.39714017 0)
(101.1757619 -30.59998233 -1.501671461e-19)
(110.5691723 -30.88365439 0)
(147.5005527 55.67987789 -1.117192221e-17)
(122.9846734 -27.10793568 0)
(109.6540498 -31.21422929 0)
(109.415376 -31.01780374 1.801741096e-18)
(105.0496209 -30.24943301 3.677512673e-20)
(116.2064307 -30.67868599 -4.801566021e-19)
(115.3427899 -30.79039593 -8.740757481e-19)
(116.2329173 -29.68205369 8.573068127e-19)
(137.1558543 24.24929115 0)
(132.4244889 28.37619486 0)
(137.1542862 35.04756611 0)
(118.7751857 -29.56980666 -4.873232936e-19)
(116.7533329 -30.37270638 -1.23844842e-19)
(116.3945481 -30.62447914 0)
(112.5173155 40.00592505 -1.187497928e-18)
(104.3240064 48.55731826 0)
(119.795232 60.46791671 9.058242813e-20)
(151.1673718 47.1781026 -9.711310643e-18)
(149.0118299 46.30017325 2.412909314e-18)
(147.2108238 48.45648499 0)
(154.3094678 33.71659742 0)
(153.9943296 35.85607581 -1.522764161e-17)
(123.1197824 -28.54132107 -9.605520056e-19)
(121.0738944 -28.55389136 9.950805565e-22)
(121.046289 -28.7375658 -2.362009992e-18)
(120.452198 -27.26079541 2.946522381e-17)
(121.0507957 -27.54501666 4.060223806e-18)
(123.6687073 -27.68705233 -5.479218538e-19)
(123.928559 -27.14934999 -1.157158926e-18)
(125.0585905 -26.89377862 5.984672154e-19)
(124.4979879 -28.06905782 1.864717379e-18)
(125.8041205 -26.25385395 6.602657616e-18)
(128.3606547 -26.13151314 -5.432591857e-19)
(128.5691457 -25.88463365 -1.504366419e-18)
(106.8025881 -30.95326367 -2.082706655e-18)
(110.3254054 -31.43939995 8.028986695e-19)
(110.0256667 -31.29507559 -3.976053623e-19)
(129.5830376 -24.38193289 -4.931817121e-18)
(130.0726649 -24.17472581 1.050932282e-18)
(128.8614105 -25.66939705 -1.591360871e-18)
(129.1949335 -25.46029561 0)
(127.0438044 -25.52197106 2.530874587e-19)
(130.3787119 -23.9413827 0)
(130.0729747 -23.66576636 2.880848708e-17)
(134.2842158 -21.08593724 -7.768177829e-19)
(134.4451434 -22.47352421 3.220185502e-18)
(133.2375989 -23.05219374 -7.826630626e-19)
(102.6718946 -30.27326333 2.405517733e-18)
(107.0314566 -30.27569378 0)
(107.4828044 -30.16036192 0)
(111.7771668 -30.46346245 1.090384368e-18)
(111.890868 -30.66771253 -6.310371977e-18)
(114.6641008 -30.93872627 3.440863626e-18)
(39.98316808 0.1731167367 -9.48168584e-18)
(29.97673325 10.24101754 -2.869221589e-18)
(42.79392883 -5.81432883 0)
(114.3851079 -30.55252843 -2.551037479e-19)
(109.9971261 -29.93103159 2.529554366e-19)
(110.9750477 -30.15849742 7.171234011e-18)
(110.4585319 -29.66448585 -1.342909612e-18)
(110.4435413 -29.78616945 -1.557181053e-19)
(114.2460959 -30.34268696 0)
(107.8556366 59.54099784 2.042286692e-18)
(95.45702912 67.0330312 0)
(110.8591324 82.40760493 0)
(150.5034764 -1.566490346 0)
(150.6804851 -0.7592225415 9.185507308e-18)
(149.9350913 -3.107656547 -1.350335992e-18)
(150.2364774 -2.340013577 1.32762735e-18)
(153.6906944 9.362237294 -4.498546688e-18)
(152.9212833 9.457553161 1.324127643e-18)
(153.0575381 10.49556094 2.537628592e-18)
(152.6072167 7.428437836 6.345125421e-21)
(152.7746009 8.435935711 -1.308709174e-18)
(153.511097 8.311571778 -1.549504672e-18)
(142.7621919 -15.4963125 -3.750849116e-18)
(143.2704513 -14.87498657 4.179153017e-18)
(143.7147259 -14.31759575 0)
(142.3541691 -15.90636304 2.42036552e-18)
(142.8148994 -15.41566683 -2.013885895e-18)
(142.2410458 -16.05872857 0)
(154.0234985 13.73449619 0)
(153.1274913 13.82682301 0)
(152.9861241 14.92092295 -4.983204081e-18)
(153.1672739 11.56858929 -1.23250665e-18)
(153.201259 12.69047683 1.176804187e-18)
(154.1368427 12.64989863 0)
(144.6712356 -13.10315259 0)
(144.9783818 -12.54277535 -1.157273128e-18)
(145.378859 -11.92981606 0)
(144.150223 -13.74744419 0)
(144.5707579 -13.15072195 1.142857748e-18)
(144.2150383 -13.73030393 0)
(149.3596498 -4.75833558 -3.247791624e-19)
(149.6602297 -3.90765871 -1.334626036e-18)
(148.5888691 -6.228707911 0)
(149.0119326 -5.531566091 0)
(97.92351217 -30.12421191 4.094190768e-18)
(99.32810259 -30.0957726 0)
(100.2313727 -30.33246734 -4.049801713e-18)
(104.5780956 -31.07519931 -3.823640938e-19)
(97.2479536 -29.91553817 0)
(143.0222517 63.60002767 0)
(146.7218668 59.2079908 0)
(144.6509717 58.90162828 0)
(130.0170167 77.48774491 -2.490805119e-17)
(128.7050754 75.42146919 -1.617482196e-19)
(120.9244738 77.68684619 0)
(140.5980356 67.31870353 3.40922308e-17)
(135.190653 71.4353065 1.966730584e-17)
(123.317715 -26.93675616 1.380673974e-17)
(123.6765769 -26.41841589 -6.326367177e-18)
(105.1000199 -30.16211889 5.213165657e-18)
(109.1093246 -30.81089618 -7.096316434e-19)
(108.1254168 -30.49679335 1.851895093e-19)
(48.56299862 -5.959951413 0)
(112.2529354 -29.59637372 0)
(109.7919385 -29.4230922 1.80819712e-17)
(112.6851951 -29.45749947 5.195501429e-18)
(151.923159 41.74703396 0)
(150.5876018 44.16341019 0)
(152.3317756 44.77669835 0)
(151.1085841 34.66852657 1.215897839e-18)
(152.7443136 35.49773797 0)
(153.4197778 33.56556907 0)
(153.5591451 37.62468206 0)
(152.9229705 39.61892522 0)
(151.7107811 1.72715026 -9.383306929e-21)
(151.3389189 1.985625859 0)
(151.5525537 2.844098683 -1.389583537e-18)
(150.8376704 0.09824310183 -9.098277588e-18)
(151.2058933 1.159313376 1.229122327e-17)
(151.4453489 0.9516619647 -1.634613476e-17)
(152.7880987 5.308829639 1.507762256e-18)
(152.1956735 5.519594641 1.337445492e-18)
(152.4109946 6.453246905 1.332485618e-18)
(151.7651709 3.718789638 2.148949151e-18)
(151.9800487 4.612121576 -6.914370587e-19)
(152.5354291 4.380242626 1.515673193e-18)
(139.5231563 -19.05613295 -1.040812468e-18)
(139.5996122 -18.61743609 9.866230276e-19)
(140.0820908 -18.17434241 0)
(137.9880669 -20.05615813 -1.393859847e-17)
(138.5966985 -19.63358765 6.01793742e-19)
(136.3527241 -21.24933366 2.465866923e-17)
(134.7324095 -21.55338374 -3.156252036e-17)
(134.8361441 -21.89943048 0)
(136.3140191 -21.12541361 3.634142789e-18)
(140.0517541 -18.08109781 4.690275663e-20)
(140.0402298 -17.65107223 0)
(141.2032141 -17.20153587 -4.223180286e-19)
(141.4840931 -16.80485985 -3.890689804e-18)
(141.9162604 -16.36655417 -3.866967275e-18)
(140.5626558 -17.72222281 1.046221199e-18)
(141.0374632 -17.26309507 -2.024046688e-18)
(140.9111031 -17.64123783 1.117520159e-18)
(119.8936306 -28.1835014 5.139634495e-18)
(120.5720186 -28.32470604 -8.673060967e-18)
(123.1961128 -28.40435808 6.197586083e-19)
(117.5625811 -28.11318497 -2.211919916e-17)
(117.9039799 -28.46600876 3.191294548e-18)
(118.139626 -28.33837671 0)
(123.6041716 -27.93224022 1.784763341e-18)
(120.8265788 -27.77496658 -8.449443574e-19)
(120.4411171 -28.00301395 -2.293232946e-18)
(127.9564623 -26.4649103 -7.554553094e-19)
(128.1787714 -26.28263185 -2.170891747e-18)
(126.2658412 -26.39462001 2.456989731e-18)
(153.7117409 18.46937959 0)
(152.6956117 18.32548446 0)
(152.5923022 19.5276248 3.052301795e-19)
(152.8593507 15.98227609 4.988177971e-18)
(152.7726502 17.14359701 0)
(153.7299977 17.22898069 2.852654982e-18)
(154.6236525 17.2586186 3.299432829e-20)
(154.6540088 18.55384824 -1.596663928e-18)
(153.4935675 28.33563312 2.622792911e-18)
(154.697176 28.5532621 0)
(154.7560634 27.04707868 7.095618004e-18)
(154.093343 31.84421201 0)
(154.5407079 30.1673247 1.188276444e-17)
(153.1539158 29.91866146 0)
(154.601642 22.31502682 7.422686598e-18)
(154.8920762 25.68191099 0)
(155.0532123 23.82341291 -4.399480687e-17)
(154.2584658 23.71427273 0)
(146.3947394 -10.51123207 0)
(146.5155061 -9.993001938 1.236866853e-18)
(146.8581468 -9.323464276 2.571959234e-18)
(145.7689285 -11.29477668 4.87282369e-18)
(146.1487981 -10.64731814 -3.728629637e-18)
(145.9886989 -11.1624387 5.429236104e-18)
(147.7818674 -7.798011931 3.502517835e-18)
(147.9287736 -7.34911054 -1.291659258e-18)
(148.3553756 -6.689073352 0)
(147.1868297 -8.658199555 0)
(147.5333263 -8.003301111 3.952361819e-18)
(147.4572718 -8.440876428 -1.491227269e-18)
(128.8185419 -24.77579503 0)
(129.2254762 -24.57040179 0)
(127.3254024 -25.33177269 4.716810344e-18)
(129.417995 -25.22135218 4.293618738e-19)
(129.2618256 -24.94076099 2.456631003e-18)
(134.8474703 -22.35502864 9.248402332e-19)
(133.2923485 -22.73631974 -1.05686206e-18)
(132.7814726 -22.99734354 1.020409162e-18)
(134.4088976 -22.21772794 0)
(133.8259899 -22.49207971 8.89116768e-18)
(135.3036173 -22.10945039 -9.605893477e-19)
(133.3825566 -23.25604707 -1.580943232e-18)
(132.0869393 -23.54060312 0)
(132.1520373 -23.77128245 8.979605274e-19)
(132.3501352 -23.24092703 0)
(131.8234503 -23.44867039 0)
(133.6773192 -23.09307761 1.982908208e-18)
(114.9515027 -29.07860951 -1.941875166e-18)
(118.4877628 -29.47914994 0)
(118.6099147 -29.33299738 5.025323783e-18)
(118.6351494 -29.7598237 -8.114575842e-19)
(118.5031962 -29.66768364 8.042915322e-19)
(114.5087501 -29.25062465 2.241305572e-18)
(117.0943534 -28.74647473 2.397370516e-18)
(117.564307 -28.60799419 8.420184522e-18)
(118.5576022 -29.14542368 4.846058606e-19)
(117.9174482 -28.9074023 7.876702218e-18)
(114.7391578 -28.58995381 -2.055863936e-17)
(102.5990077 -30.36865198 3.830725996e-18)
(99.70822619 3.059515072 -2.374018152e-19)
(99.92424121 1.785555381 -1.658442259e-21)
(99.75836665 3.14023447 2.499767038e-19)
(99.96077521 3.270766527 -7.6529217e-20)
(100.0185548 1.907191553 -1.431026726e-22)
(100.022865 3.274472628 1.415685856e-23)
(100.2249628 3.153626523 1.583877506e-21)
(100.1081763 1.852040105 0)
(100.2710063 3.076103334 -7.024651918e-20)
(100.4018046 2.759123611 -1.273517429e-20)
(100.1705533 1.639254201 0)
(100.4206263 2.633903074 1.86536637e-21)
(100.4652323 2.230735662 4.893441832e-21)
(100.1897722 1.339831779 -3.96669877e-21)
(100.4581385 2.091844688 -2.284697296e-21)
(100.4332483 1.689179723 0)
(100.1749287 1.032681454 -1.046498006e-20)
(99.26096911 5.027830669 -5.310038489e-19)
(99.6140626 3.514015619 9.089397867e-21)
(99.43136993 5.178293161 5.65707807e-19)
(99.99498432 5.387304803 0)
(99.95592994 3.760057241 0)
(100.1798324 5.366354425 -8.592375669e-21)
(100.6617566 5.075733114 0)
(100.2989914 3.611401628 -1.603879309e-21)
(100.7862863 4.917869732 -3.728517602e-19)
(101.046273 4.324704282 0)
(100.5242465 3.143980392 6.528475306e-21)
(101.0945501 4.101378075 0)
(101.1497108 3.399343413 -8.947130513e-20)
(100.6032787 2.5272134 -1.830199188e-20)
(101.140477 3.165554745 8.863683256e-20)
(101.0592393 2.505721755 -2.857642828e-19)
(100.5619759 1.903875093 -1.138919857e-20)
(98.60726623 7.661986377 -6.902796293e-19)
(99.12177485 5.610103113 0)
(99.00818277 7.930454909 -6.012485944e-20)
(100.3292972 8.137101552 -2.832322207e-19)
(100.0397243 5.999093256 -2.235571843e-21)
(100.7356258 8.023152576 7.451965326e-19)
(101.6833962 7.293710989 8.799627002e-19)
(100.8461187 5.599418154 0)
(101.8967881 6.968753544 1.182315576e-18)
(102.2642633 5.894611335 -8.806324309e-20)
(101.2859506 4.722427715 -5.251277795e-20)
(102.3115313 5.518174456 9.113808129e-20)
(102.2852367 4.436803123 0)
(101.384354 3.679666024 -1.331200161e-21)
(102.2318264 4.096681621 0)
(101.9872144 3.148226786 0)
(101.2626196 2.68715694 0)
(97.28744722 11.53238558 1.221341898e-20)
(98.38992437 8.468054658 -8.775927887e-20)
(98.25637971 12.07826179 -7.318718735e-20)
(101.3653912 12.14267786 0)
(100.4981565 8.983803975 5.849435163e-20)
(102.2248072 11.70357998 0)
(103.8532134 9.807609656 2.156382113e-19)
(102.087202 7.901413412 0)
(104.1251673 9.114644053 -1.031448992e-19)
(104.3844038 7.196117586 -7.203307911e-20)
(102.6969348 6.25426728 -1.508797946e-18)
(104.3318967 6.62403574 1.487582953e-19)
(103.9667717 5.110598779 0)
(102.6547322 4.652275742 3.523422427e-19)
(103.8006114 4.666765437 -8.837568779e-19)
(103.2396681 3.485496693 -1.365462419e-19)
(102.2709491 3.268692532 -3.034585521e-20)
(93.08062201 19.59948078 -3.855952662e-19)
(96.65147132 12.85135035 1.20502278e-19)
(94.47173783 20.70237465 -1.434251452e-19)
(104.6227626 18.98062049 3.686507459e-19)
(101.8425682 13.48743468 0)
(106.2985754 17.26972615 1.176161889e-19)
(108.2085409 12.18172278 -4.962646777e-19)
(104.6842174 10.44823402 -2.09464944e-19)
(108.2104162 10.83255556 0)
(107.5416805 7.729519002 1.622244972e-21)
(105.0727677 7.431549418 1.525419497e-19)
(107.2189773 6.944398226 -7.948691286e-19)