/*--------------------------------*- C++ -*----------------------------------*\
| =========                 |                                                 |
| \\      /  F ield         | OpenFOAM: The Open Source CFD Toolbox           |
|  \\    /   O peration     | Version:  v2012                                 |
|   \\  /    A nd           | Website:  www.openfoam.com                      |
|    \\/     M anipulation  |                                                 |
\*---------------------------------------------------------------------------*/
FoamFile
{
    version     2.0;
    format      ascii;
    class       volScalarField;
    location    "0.91";
    object      k;
}
// * * * * * * * * * * * * * * * * * * * * * * * * * * * * * * * * * * * * * //

dimensions      [0 2 -2 0 0 0 0];


internalField   nonuniform List<scalar> 
3019
(
36.90869541
36.90874279
36.90881403
36.90890579
36.95441521
36.95487168
36.95568425
36.95751789
36.96116511
36.96749775
36.97676367
36.98708587
36.72746312
36.72766821
36.72789134
36.72833681
36.77393163
36.7762432
36.78104374
36.81057361
36.82746131
36.85690459
36.90033641
36.95015464
36.54738894
36.54787932
36.54847471
36.54950259
36.59600808
36.60182917
36.61336112
36.65401649
36.69502581
36.7650084
36.86594228
36.96164706
36.36870394
36.36922427
36.37020108
36.37255735
36.42063354
36.4327461
36.45697814
36.51984274
36.6054256
36.74865995
36.90885268
37.05146663
36.19190955
36.19262164
36.19440695
36.19903488
36.25030283
36.27179341
36.31826604
36.41566999
36.58346163
36.80425494
37.0534528
37.2858264
36.0166521
36.01765919
36.02065595
36.02860545
36.08587738
36.12229318
36.20305016
36.35607215
36.60995007
36.93959351
37.35464562
37.8170476
35.84375064
35.84545702
35.85063313
35.8633304
35.9281725
35.98471682
36.11264288
36.33938209
36.68510078
37.17195804
37.88655108
39.04658992
35.67381739
35.67644674
35.68435459
35.70320128
35.77954036
35.86100458
36.04762588
36.34554956
36.79507689
37.47335738
38.62385154
41.15799754
35.50868044
35.51286592
35.52485683
35.55270633
35.64078666
35.75222243
36.00250595
36.36426419
36.92294868
37.78106735
39.28681613
42.98541193
35.34930934
35.3551678
35.37153511
35.40978323
35.51116214
35.65723539
35.96992159
36.39175362
37.05096796
38.05075005
39.76081318
43.78939037
35.19759618
35.20584018
35.22801758
35.27907096
35.39118586
35.57413561
35.94548954
36.42469874
37.1744308
38.28912517
40.15270314
43.81585272
35.05335186
35.06371306
35.0911246
35.15438183
35.28086546
35.4999714
35.92600716
36.46094089
37.29360915
38.51457733
40.53350327
43.42094033
42.84012919
43.73410072
43.84741182
43.4832544
40.83495931
39.65429369
42.87003306
42.14164463
40.05894752
43.27427573
42.95100362
43.88652047
45.45850236
46.35267247
40.44916976
43.22721887
43.28394898
43.69184156
42.15459456
43.96216542
43.20995555
43.20163848
37.75247778
40.00588012
46.78854166
48.41458794
43.17502032
46.42585854
46.46368571
47.14463389
43.45583015
47.7300697
46.53682224
48.47977394
47.86914746
44.13594375
45.30783487
43.89083564
45.00530796
43.33764718
46.45971664
45.10844498
40.13072428
42.04121742
43.64449283
41.16537562
38.83178975
43.22521665
41.29418378
37.58922708
43.16896941
35.80796247
38.69737176
36.00261768
39.14214656
42.00828578
40.54351187
42.03757037
45.52391437
42.79725205
43.35727885
47.22484928
47.33429968
47.18714773
45.80581229
42.27734281
53.39371235
44.99892497
51.52342746
40.89750086
42.7693826
38.97702312
42.76585358
42.43690896
57.18259324
53.80248038
47.60894705
54.07871514
55.01841465
50.18136415
53.78060015
47.8316767
44.66449242
49.41735016
44.4436892
54.35158908
50.10473247
45.17417638
52.14094636
57.01755517
47.16687349
43.58571982
47.09050168
48.33481246
46.71158643
49.68591978
43.94940183
46.31807868
48.23590624
44.24761856
44.13983784
45.87351822
45.78809953
40.24278505
40.08339162
42.32242395
42.19126415
42.3228653
37.75482337
37.61985121
42.36235838
44.62424606
42.9651142
44.21163574
43.97183772
44.51101422
44.28869558
43.09636484
43.17206599
42.86953334
39.10817402
44.6614872
44.77474511
44.58087325
39.97482416
40.45455966
43.68810408
41.09934556
43.54465047
43.26810776
43.88918348
43.63325056
41.22754356
40.77944347
35.7627701
36.06303654
33.55092383
33.75353407
39.28945331
42.84934509
39.2105271
39.8397801
36.18228294
36.51680963
41.67910848
38.29674791
33.2598855
33.48296954
32.77290813
36.9032789
51.58481451
51.4906779
47.4397658
48.23867047
55.95506614
55.45629488
55.06100577
50.3338928
50.86424092
49.37177255
50.11844889
55.34230624
52.37881479
51.01753734
50.83198261
50.97190792
51.03794875
52.63218164
52.82590681
48.23133037
49.11978278
55.52919135
55.93581259
42.30038671
47.26362377
46.45806839
48.02317974
47.48176999
42.82876469
45.33589617
44.77735316
46.17722915
45.52793198
47.90633834
50.09990115
49.60019989
50.7075722
50.26041342
48.33289504
44.89988771
48.73737563
48.20533732
49.42984639
48.91237121
45.24494277
39.54930886
39.080378
40.36360795
39.71394524
38.33276199
37.87533582
38.93221966
38.46904948
43.87971949
43.34797461
44.59662967
44.06183109
42.28585886
40.7808066
43.15353334
42.6191356
35.3419017
35.64619809
40.64972293
33.96926169
33.75240361
34.26569442
34.05509718
33.65235118
39.48462881
33.83414135
35.09650736
37.26494247
38.94822466
42.72208728
36.92728065
35.1995214
37.78180977
37.10760486
34.63649893
34.36317541
35.06523996
34.74433136
41.80675725
36.63560807
37.03454566
32.99231161
33.19262063
38.16284835
37.13379498
32.80427027
32.93716818
45.8719708
45.14866564
45.03572668
45.24911544
45.17909211
45.99871072
44.99017595
44.83317724
44.82874545
44.68211936
41.90408676
42.50201186
42.79080606
43.6761849
45.41693456
52.71832027
56.90987757
57.62057073
54.39508278
54.42592514
53.44581307
53.28904944
50.70174776
51.61673532
51.26870207
53.12438504
52.92283144
53.38761043
46.88366175
47.94416491
52.33890562
53.51467644
58.32162223
55.04172224
58.59431219
58.93004234
56.4744909
40.80891293
42.7970502
42.3036036
46.18077528
45.96247474
43.36438969
40.35259441
40.13072546
41.8992024
41.57743273
47.10496088
49.10511518
48.80236654
50.94512109
50.63464307
49.21810262
44.22426539
46.74813763
46.49086338
48.4971613
48.19990335
45.95351493
41.25027566
41.73656251
44.57728086
43.79879172
40.60875605
41.091389
44.5539491
45.02415109
46.13281226
38.81282657
38.67551264
39.93315314
39.75605993
36.73008972
38.46500883
38.35017159
45.5097609
43.89533538
44.39051396
35.84543947
37.96160705
37.84008039
33.63108664
34.89563989
34.80248657
35.18732093
35.00662853
33.69335302
32.79972605
32.76125282
33.33862216
34.56505542
34.4792746
34.7238794
34.64339002
33.40776729
32.91313248
32.85090233
33.45592349
33.06174736
32.92924467
52.39318333
49.87552812
48.82901659
51.61057375
57.68715707
59.1926764
52.45221807
56.5773692
60.08765305
56.48062494
54.87590828
52.32906365
51.98044305
51.20101838
53.1074543
52.74978551
52.50376064
59.49881594
59.15309152
54.70284907
59.61155259
61.6723174
56.32034749
59.34715322
59.48886487
44.90128462
44.75347699
42.23252289
42.97761682
45.60956767
45.45442638
40.81012067
40.57349425
41.30560589
41.05048552
49.71327409
49.40704533
47.4906842
48.77176894
50.32796518
50.02066663
47.32295863
47.04886228
44.59351747
45.57509044
47.90003624
47.61482095
39.38738308
36.81244384
36.95332609
36.55639565
36.68924247
39.23526039
40.09535906
37.41626492
37.62659463
37.0909791
37.24777912
39.89320867
38.16820385
35.81088281
35.94566556
35.59289719
35.725765
38.04888701
38.77603652
36.30087989
36.4365853
36.0465373
36.18588036
38.6307953
39.17622601
39.01849354
43.7042067
41.78361092
41.96113143
41.4150281
41.57685874
43.51838825
39.55174639
39.37861678
37.751733
37.60204227
42.03245463
40.15435386
40.21891622
37.93623552
38.3827335
41.38075989
42.99352072
41.05851406
41.19264423
40.69568768
40.79337862
42.77183228
38.1275997
38.03316528
35.42604277
37.42553661
37.29735416
37.70146709
37.58637145
35.5725382
33.91089093
33.81526293
34.19736345
34.10905715
33.62279698
33.64243144
34.00551494
36.16159548
35.53192389
37.0411958
36.78863526
34.80336557
35.62576472
34.89048976
35.09073442
35.36836754
37.57096395
35.37932981
35.52006213
35.16404728
35.31304219
37.49172702
34.54701234
34.44333081
34.9551978
34.84170685
33.05739764
34.22710723
34.13826661
34.39752669
34.30875312
33.11907495
32.84386799
33.86495852
33.74114652
34.0552589
33.96576122
32.8906669
36.69147356
36.71491902
36.82198509
36.72489331
36.76615982
36.84776752
36.78229577
36.84352569
36.8878007
36.86528907
36.9343719
36.93743685
36.95280072
36.55086923
36.60029284
36.68262332
36.62239091
36.70957803
36.74497404
36.74584812
36.85454183
36.83935268
36.89028835
36.99049163
36.94052649
37.01896233
36.43885598
36.53839903
36.57889304
36.58265962
36.73010745
36.70985813
36.78297498
36.9492253
36.86911016
37.00503361
37.16307051
37.01974533
37.20810775
36.36637131
36.53435731
36.53232084
36.598105
36.81529346
36.74544515
36.89691747
37.16632198
36.99039576
37.26142923
37.55522645
37.23216608
37.64172309
36.34064938
36.57267277
36.54046208
36.66255575
36.9810662
36.84924246
37.10562874
37.5514762
37.24375958
37.72791268
38.38282344
37.69721092
38.6237492
36.34286145
36.64446067
36.58789174
36.7658292
37.2114745
37.03337581
37.39498371
38.11045828
37.67828617
38.4328288
40.27191262
38.67835356
39.64693375
40.2755075
39.32583464
36.35854648
36.7364537
36.66541538
36.89063237
37.46537429
37.27427435
37.70711934
38.68353661
38.26273098
38.80949009
39.303438
39.07128579
41.47118503
42.11810779
41.72260328
36.38431758
36.83575069
36.761095
37.01933847
37.70138782
37.52691817
37.98695915
39.12766456
38.80676273
39.41911255
40.04644078
39.89097571
43.11887647
44.14538633
43.99903389
36.41618708
36.93472962
36.86064902
37.14394561
37.91309819
37.75627346
38.23140985
39.48371572
39.22178357
39.86313987
40.55588485
40.43872073
43.83423462
44.81009002
44.83989817
36.45167465
37.0316504
36.95924208
37.26405498
38.11104067
37.96346358
38.45860716
39.81850769
39.56643776
40.25199911
41.00646968
40.89110107
43.77813528
44.21486484
44.3738262
37.05562628
38.15961813
39.90213251
40.6486787
41.61861032
41.29558815
43.3553799
43.16118681
43.38592947
43.83629107
43.64477214
42.67497679
44.84288011
44.82939008
43.66443758
44.4224443
44.55671275
43.87205322
43.45713215
43.6621082
43.54074753
42.44265377
40.67888976
39.91462617
39.50777999
40.52789822
40.31697313
40.18711272
39.540826
42.58356398
40.7949097
41.01060607
40.46098958
40.71932009
42.48381028
40.78250746
40.66903124
39.96107682
43.19335207
41.33982728
41.52571927
41.07801452
41.27586012
43.14536448
44.7290698
44.79411744
43.86677414
45.60272972
45.56758508
45.46829966
46.05007221
45.98096624
46.2360844
41.23379172
41.10491015
40.34250733
43.26931764
41.80557064
41.95116964
41.5856417
41.75286493
43.27902875
43.97809548
44.15808134
43.73641298
42.49550993
43.57317031
43.42456384
44.41109778
44.27353097
43.76011842
41.99387133
42.09608798
43.14260153
42.84261776
43.08383504
43.29653725
38.35892553
40.87199068
40.81761507
41.95727943
41.7771471
39.62735599
47.09512357
48.9537045
48.19826593
50.14418645
50.21568223
48.24806634
43.62304039
44.07177353
43.51928314
47.67448592
47.15483027
46.05748597
46.77957418
45.3032273
45.26644188
45.34588247
45.31229574
46.87708323
43.57590269
44.80584189
44.48218785
47.58676038
47.73904524
48.1631995
45.79250413
46.25635797
46.77608712
48.46664149
49.80655276
50.07895261
48.30178524
48.71308287
48.00065698
44.31634356
44.66828027
44.53952522
45.36517862
45.25806185
45.15223255
43.88586803
44.59654314
44.70057783
44.89594911
44.43759718
44.57217265
42.59336724
42.72985438
43.45800547
46.21885808
45.18015582
45.63970529
44.70949346
44.84764689
45.21603448
40.52302038
42.30309213
42.13066401
43.27356486
43.12065328
41.6987254
43.59433452
43.72716384
43.91695204
41.03676356
39.79323135
39.92992671
37.04734965
37.18667208
38.97130369
43.10320786
42.31792242
42.45908506
40.06911295
40.20714011
41.42272265
40.74478665
42.75908067
35.65769267
33.61111619
33.7069173
38.56405348
36.79507128
36.91984977
33.85867241
34.14153258
36.26497088
39.7169388
39.5213396
38.98330324
41.5039897
40.03120077
40.36665885
39.49367567
39.9101608
41.29557907
42.85181802
42.50436153
41.76818188
44.48620105
43.13995896
43.7564762
42.28419545
42.91955744
44.06115987
44.41905073
44.27429092
43.23588165
47.41722197
45.18932986
45.33842363
44.87496251
45.11663164
47.45186709
46.69222582
44.48278817
44.79276994
43.9222504
44.36801463
46.50299433
42.48900668
43.42001519
43.15687158
45.77356331
46.41841521
45.38228897
54.73385612
52.87726718
50.27703931
41.08652869
42.00502955
41.52656274
41.85586415
41.01877941
43.81050661
42.21866434
41.78934331
41.23291098
40.99768237
38.53874928
42.6563805
42.04248511
42.19774827
41.74601491
41.90918572
42.54933807
49.7079987
49.15811516
47.36574268
52.55027083
53.06961263
55.52060955
48.04037709
50.1806151
49.8605795
45.39974323
44.67946559
44.11357084
46.94541231
45.58235391
46.54598021
44.05613475
44.62520271
46.22255583
53.73309249
51.55119804
52.02379189
48.71346284
49.26836996
50.88800039
45.63424752
46.6591112
46.03737523
47.08433015
47.58759545
47.42711186
46.85079502
46.41326189
46.90644808
49.35752909
49.70187153
48.41753161
48.12342342
48.84650441
49.23470826
43.65893902
43.7892765
44.36025345
44.02519058
43.39649333
43.52860234
45.67804509
45.78637223
45.96323932
45.69504405
45.45745677
45.5687885
38.9437987
39.09571569
40.38386977
39.90172853
38.50171985
38.74234674
41.23023685
41.42299322
42.45321741
42.06205874
40.9075993
41.0603628
41.59402583
36.05533364
36.18265679
37.89273261
37.47443496
35.80079451
35.9389789
42.86543939
43.30943526
43.86164646
43.71905939
42.6092999
44.13307734
44.03702054
44.1429044
43.81958963
43.92918418
44.05315314
44.43846954
44.44853152
44.54644966
44.24685993
44.34911209
44.36429685
43.60215488
44.14110823
44.00101046
43.07359102
42.60811288
42.74121092
42.33270433
42.47437682
42.97335827
39.49968666
41.59894349
41.40413074
44.91464012
44.79268144
44.48956697
44.71300585
44.82344426
44.91149041
44.64076277
44.73341923
44.6483746
40.14397634
41.667272
41.51297533
41.96752159
41.81491414
40.29020563
43.57007876
42.86297422
42.99786012
42.64335285
42.4741735
40.66723708
43.4542913
43.12163819
43.24409869
42.87009057
42.99705575
43.36215729
43.80527177
43.59544152
43.70829593
43.36377473
43.4806796
43.72005603
41.58414093
42.96531964
42.80680208
39.52017184
39.65438565
40.90782771
38.22942137
38.09956273
35.96549245
39.12071649
37.34623817
37.55225312
42.01236032
42.17514897
42.98397752
39.50892445
41.04306669
40.8304521
41.36669121
41.20207468
39.64653813
36.28796478
38.50338131
38.36826914
38.78241882
38.64359896
36.40676755
41.55112261
40.34623033
40.48460823
36.5483771
36.67296084
38.43122297
36.59342673
34.64350307
35.22011151
48.94201209
47.19732413
46.30999203
46.08441376
47.46019555
49.51528388
51.82369004
49.82747014
53.57307217
53.53868031
54.73370248
50.53573512
52.00481409
51.85957111
52.11355475
52.09068256
50.7104238
49.63235118
51.05573528
50.67557601
51.65290762
51.38616816
49.88081985
55.51868369
53.39201184
53.55461818
50.98475538
51.69770546
51.80166044
51.30965447
51.51986456
50.92631961
51.03766335
52.04085549
52.09375708
51.8664696
51.95803739
51.05196074
50.72558127
51.15450744
53.32528884
48.54777787
49.58333157
49.20050153
50.29848351
49.92912555
48.8125065
47.05107367
46.21481577
46.47279189
44.9865147
45.57982839
46.76844604
47.84769322
47.26942561
47.47707677
46.818157
47.01094869
47.6580778
45.14712808
43.34286852
43.55572092
42.92973825
43.13476063
44.96097056
45.938206
44.24472164
44.55096636
43.77225362
43.99807752
45.72639683
49.93577443
49.99411311
50.21830963
49.54068433
49.76805169
49.76899418
50.56667018
50.87896276
51.09507213
50.44096592
50.6612228
50.41671833
48.5615711
48.16985273
48.39501881
47.71550672
47.93619998
48.38254626
49.25827806
49.08166806
49.31085201
48.62456759
48.8515257
49.08564228
44.41918002
42.54451998
42.73227347
42.16128519
42.34707634
44.23925567
40.51962125
39.24627028
39.38080832
37.83404866
38.18409607
39.69765116
37.66378766
39.91454228
39.62316313
40.58807232
40.26563989
38.29991037
42.5727422
41.63104256
41.83395559
40.62364732
40.76361572
41.93420815
36.75183005
39.07081158
38.92531158
39.40266136
39.22669871
36.88210083
38.02671549
36.30144442
36.42704445
35.46204132
35.67151748
37.32487624
45.74939682
45.66127569
45.74024254
45.11479471
45.42385593
45.47888357
45.30068843
45.36456038
45.0771146
45.22902789
45.62054129
45.66098363
45.52999803
45.57711237
45.2057855
46.12076763
45.90891539
45.83184939
44.94102992
45.15765758
45.23153292
44.99727011
45.0793736
44.88861185
44.99251363
45.14716816
45.03258076
44.17640997
44.30638343
44.79195506
42.08022633
43.47366682
43.3188088
43.81034452
43.63557654
42.27302482
43.1284342
44.20328438
44.00221487
44.5648657
44.39426124
43.44307993
45.31487767
44.98075527
45.10782952
47.26912501
47.94377981
47.44304048
48.82299599
48.37797918
47.58835954
51.65148504
49.78632889
50.29753094
41.4112664
42.86847422
42.71907144
43.16748936
43.01754583
41.57212034
44.4663558
43.9182691
44.04757144
43.13070803
43.26459448
43.91557954
40.7721113
42.26921375
42.11717687
42.56983702
42.41927295
40.93004957
44.70989588
45.40648754
45.27446126
45.66724469
45.53781562
44.86882589
46.04636096
45.89271315
45.99827111
45.22836736
45.34437675
45.60643291
44.05959382
44.86450007
44.7226432
45.13972391
45.00503569
44.23461777
36.86520649
36.86626336
36.95519601
36.867966
36.87085467
36.9562782
36.87363543
36.87831335
36.95907019
36.88481128
36.89343213
36.96394638
36.90439338
36.91767741
36.97181181
36.93285378
36.94893277
36.98205722
36.96478321
36.97881063
36.99117883
36.68555455
36.68647703
36.77487634
36.68845933
36.69160656
36.77824328
36.69593187
36.68665064
36.80779104
36.76974105
36.77408698
36.81370103
36.79121854
36.79930499
36.83317062
36.82855163
36.84147591
36.86604989
36.88338235
36.90008741
36.91213201
36.94673554
36.96210366
36.9613399
36.50935055
36.5118631
36.5984214
36.51665685
36.52386151
36.60672032
36.53324624
36.53967336
36.64754364
36.61814103
36.62777845
36.66214555
36.66769576
36.68553235
36.70993142
36.75246611
36.78003885
36.78825851
36.86939782
36.89827684
36.89264087
36.97503784
36.9964783
36.98141514
36.33653245
36.34175282
36.42548989
36.35096121
36.36499051
36.44313753
36.38484327
36.41560013
36.5058078
36.49117482
36.51071315
36.53643458
36.59288493
36.62927151
36.63611529
36.75533569
36.7995363
36.78819147
36.93365293
36.97709627
36.94783342
37.09281213
37.1240385
37.07983568
36.16968906
36.17929206
36.25901668
36.19561281
36.22023439
36.29056465
36.25782371
36.32493902
36.38831842
36.39611698
36.43382045
36.44831333
36.58457115
36.64176931
36.63507867
36.8306652
36.89851353
36.86508778
37.11170921
37.18346023
37.11561573
37.38208871
37.43516129
37.33435448
36.00908428
36.0250627
36.1006238
36.05210295
36.09286715
36.15423367
36.15455169
36.27491481
36.30819414
36.34867267
36.41112635
36.4123168
36.62472183
36.70642298
36.68444309
36.98914953
37.09704081
37.03579354
37.46345499
37.59953769
37.46829953
38.02967131
38.16241427
37.92740863
35.85547967
35.87992043
35.95069243
35.92106062
35.98367056
36.0357959
36.07716224
36.25570559
36.26742371
36.33976522
36.42182308
36.41710112
36.71036589
36.82536897
36.79107844
37.24273648
37.41264571
37.32431495
38.05816141
38.33904693
38.11844465
35.71042023
35.74666449
35.81135429
35.80510975
35.89367381
35.93625643
36.02322201
36.25365221
36.25385341
36.34913143
36.45099292
36.44192439
36.82668789
36.97941124
36.93832043
37.55292583
37.79717181
37.69954498
35.57460958
35.62562215
35.68397903
35.70373209
35.82016683
35.85478422
35.98519386
36.26177301
36.25490866
36.37051229
36.49459089
36.4828377
36.95525841
37.14296655
37.10241505
37.85230914
38.15600079
38.07207309
35.44922931
35.5167406
35.56838859
35.61575891
35.75988437
35.7879188
35.95739122
36.27593758
36.26467578
36.39967311
36.54502709
36.53196227
37.08228719
37.29954494
37.26130807
38.11256849
38.45642006
38.38576753
35.33520362
35.41911493
35.46394168
35.53937118
35.70980717
35.73204378
35.93651687
36.29399458
36.27971989
36.43356512
36.59863501
36.58510252
37.2044174
37.44722597
37.41108822
38.34598688
38.72174085
38.65704181
35.36867139
35.68343499
36.29835355
36.46995917
36.65321014
36.63988697
37.32267883
37.5894354
37.55438368
38.57086354
38.97939462
38.91436075
41.26889031
40.85320793
40.51305085
39.75356622
40.04764465
42.77998302
42.04991312
42.13568615
41.46326019
41.57619399
42.26440972
43.25684807
42.61689321
42.66477412
42.21694932
42.29549279
43.02409933
43.2428521
42.84818651
42.86089827
42.70578673
42.74181158
43.2865732
42.26841661
42.85439674
42.75521061
42.87102748
42.87895321
43.18868631
37.94224838
39.25288381
39.12127167
40.95977179
40.84681941
39.88065047
46.5716137
46.18144551
46.11632067
46.52669858
46.47830939
47.05870591
46.50348672
46.60258427
46.61847726
46.37927118
46.30467881
46.40448982
40.25722116
41.17994483
41.0678856
42.66037228
42.56013348
41.92702062
38.98925868
38.8593838
37.44545824
43.13368918
41.85841491
41.21022756
41.3429788
40.16750159
40.36331469
40.81164643
45.2144826
44.55590324
44.81822838
42.59461204
42.92489506
43.18739481
47.29830679
46.60544939
46.56947156
46.35196676
46.4682852
47.42637359
47.02862378
46.10170267
46.23039655
45.05485113
45.27476799
46.06237204
43.03786265
42.60727286
42.40320523
40.04225332
39.91933972
38.8400538
48.58161514
47.58612706
48.17577339
44.34380209
44.77849082
44.99577621
47.2818067
47.36841151
47.25479783
47.00773798
47.09134074
47.18800407
44.89064805
44.16749519
44.01730291
43.41699604
43.32515525
42.84223945
43.24320547
43.56570914
43.50020537
39.24064233
40.27806172
40.15534082
41.85572782
41.74315724
40.96138595
41.34965797
42.06537006
41.95921083
36.69815063
36.73548985
36.72990209
36.74907945
36.74136297
36.70553937
36.81772209
36.77879789
36.78484963
36.73732619
36.76724344
36.75698115
36.79071517
36.77752736
36.75027093
36.84038653
36.80763403
36.81807488
36.80176295
36.81981175
36.80358246
36.85413379
36.83513647
36.82101415
36.87708004
36.85402211
36.86917858
36.89057941
36.89190912
36.87133158
36.93187105
36.91067751
36.91216748
36.92547357
36.91479267
36.93168668
36.9711153
36.96492904
36.9483221
36.97791232
36.985649
36.97305687
36.97423369
36.5646979
36.59518451
36.58349308
36.62496196
36.60880642
36.58102923
36.67134655
36.63901232
36.65252144
36.64798545
36.66467865
36.64333254
36.71587544
36.68855766
36.67690097
36.72598935
36.7051782
36.72792148
36.78197798
36.77956549
36.74565562
36.84519996
36.81217077
36.81780198
36.81186173
36.81004679
36.84077411
36.92553886
36.90922897
36.87722291
36.96802011
36.93934386
36.95891917
36.91650984
36.92550419
36.95169202
37.04452816
37.01719233
36.99381097
37.0366973
37.06616851
36.99752439
37.01428175
36.46676651
36.487649
36.4642441
36.54758288
36.51518249
36.49985451
36.5559528
36.53388429
36.5611692
36.63060209
36.62858532
36.58526549
36.71913793
36.67324647
36.67905708
36.67067291
36.67078607
36.71264675
36.83747944
36.81586811
36.76682914
36.91583378
36.86568664
36.89309288
36.82853194
36.84430137
36.88932602
37.05997076
37.0139481
36.96541214
37.10393537
37.06031824
37.11294628
36.98485415
37.01855941
37.0575751
37.24766137
37.18011426
37.14415261
37.20929909
37.28301144
37.10343029
37.15096981
36.41631368
36.42323612
36.3795366
36.5310212
36.4739641
36.47383453
36.48699989
36.4783408
36.5298909
36.66604532
36.65150166
36.58944343
36.78831372
36.71775364
36.73830369
36.68905987
36.70245443
36.76538747
36.98336051
36.93929001
36.86261848
37.09882951
37.01793116
37.07354545
36.9273163
36.96851032
37.0398616
37.35902153
37.26342789
37.18107332
37.42156795
37.34418761
37.4575864
37.17552939
37.25386966
37.32169021
37.71990741
37.56865622
37.49831225
37.62062754
37.797668
37.37198243
37.48527843
36.41367567
36.41170869
36.34363778
36.55985839
36.48339592
36.49018689
36.47518875
36.4783183
36.5489035
36.76026149
36.73156391
36.64236737
36.93230153
36.82801555
36.86617587
36.76407961
36.79422095
36.88851004
37.24187194
37.16595597
37.04457952
37.43624603
37.29627771
37.39016496
37.13726424
37.21181023
37.33374622
37.92202264
37.74799116
37.58664675
38.0960562
37.91863737
38.14150695
37.58355987
37.74369894
37.89302532
38.88066253
38.49295853
38.29839587
38.64471882
39.26077474
38.00800513
38.29499516
36.43427813
36.42735495
36.34074453
36.62389761
36.52097822
36.53425261
36.4989025
36.50939291
36.60527838
36.89950671
36.86134496
36.73705049
37.14925543
36.99810485
37.04725546
36.90669755
36.95140958
37.090004
37.60204919
37.50514335
37.3170455
37.95997784
37.71756749
37.83794752
37.4922622
37.60210241
37.81487438
38.83163579
38.5756477
38.24339096
39.46539814
38.9668634
39.33682412
38.37599586
38.67968069
39.079791
39.95473551
39.81824611
40.1033141
36.47149925
36.46078393
36.35343248
36.71215307
36.57997661
36.59710994
36.54803938
36.56376469
36.68865577
37.06149985
37.02027752
36.85835686
37.40246149
37.20048666
37.25183603
37.09712125
37.14910752
37.33889783
37.98405087
37.89216871
37.63083051
38.55143176
38.19492958
38.30526901
37.95942847
38.07928322
38.41069382
36.51919714
36.50670521
36.37716021
36.81084966
36.65099584
36.6694268
36.61478544
36.63275719
36.78591733
37.2224703
37.18305414
36.9874584
37.64495609
37.40082843
37.44840435
37.30244267
37.35212624
37.58678502
38.3124747
38.23604259
37.92091466
39.02780868
38.60028597
38.68787326
38.40956985
38.50775817
38.92129611
36.57160442
36.55821592
36.40770621
36.91019905
36.72555001
36.74431574
36.68804319
36.70677195
36.88547589
37.3743233
37.33723606
37.11331096
37.86198158
37.5853493
37.62925763
37.49498031
37.54059945
37.80975196
38.59158379
38.52483514
38.17269095
39.3984885
38.92834537
39.00373189
38.77119445
38.85121142
39.31199354
44.82361148
44.43389089
44.43259341
44.42632958
44.4299229
44.83295332
36.62601876
36.61243767
36.44254305
37.00780495
36.8007849
36.81930965
36.76316677
36.78182836
36.98340382
37.51890584
37.48340471
37.23455428
38.06228301
37.75783021
37.79972839
37.67264359
37.71528593
38.01300137
38.85019595
38.78592783
38.40244487
39.73250418
39.2235436
39.29714005
39.07744288
39.15087389
39.65065442
44.27012252
44.1031238
44.06217191
44.17576984
44.13823041
44.32285491
36.83803933
36.85632545
37.07909861
37.84151923
37.8830263
38.2081599
39.37071564
39.44595316
39.98974347
43.23838992
43.35169703
43.29322035
43.46166781
43.40819578
43.31324812
44.46943524
44.24126818
44.20740287
44.29868427
44.26910713
44.5140805
43.52703154
43.56531864
43.51202907
43.6651145
43.6133003
43.59507513
41.5149368
41.28309527
41.74535452
40.47413692
40.84005634
41.08739957
40.1964401
40.46838312
40.11626316
39.83090405
39.89822996
39.61526026
40.61074576
40.28224063
40.12332599
40.41880817
40.81138631
41.87192784
41.9627723
42.68347976
41.52483354
41.44762897
40.94034292
42.37571845
41.67963394
41.7789729
42.50336856
42.5636038
43.23047871
41.40274025
41.94619332
41.88136492
42.06823814
42.0091924
41.46522729
41.14524643
41.67285234
41.59960714
41.81364146
41.7443044
41.21077305
43.08860463
42.36879639
42.43879008
44.75406531
44.41564891
44.40162788
44.43023062
44.42346067
44.77569278
42.81635635
42.83392339
43.25712819
41.85270169
42.35190576
42.31415289
42.42226219
42.38863116
41.90430826
41.64219222
42.17706781
42.1250407
42.27153436
42.22681029
41.69971338
43.28453577
42.77103291
42.79604326
44.03950548
43.94109815
43.89510985
44.02433915
43.98096015
44.09922299
43.04636386
42.94833495
42.38161964
42.03554776
42.48260649
42.45401572
42.53250585
42.50841695
42.06073646
43.16575015
42.88581025
42.89101976
42.9239138
43.12557839
43.06798257
43.2402195
43.1791101
43.00339642
39.52756865
39.3702098
38.15248476
40.22694356
40.40604098
40.85673744
39.75488921
40.73705901
40.62085142
48.72014879
48.03961733
48.20187838
47.75773443
47.89477716
48.47534315
50.1903103
49.46649621
49.45849299
49.39598688
49.44868898
50.21254467
46.30744571
46.24538047
46.67720334
45.29337796
45.77077021
45.80501304
45.69908587
45.73554034
45.28117959
45.34190043
45.90114276
45.92405057
45.83864331
45.87133629
45.32356071
46.96607898
46.42427935
46.36726315
47.8812612
47.86423203
47.74775355
48.0837706
47.96893497
48.0232985
45.94609631
46.41975534
46.2959344
46.66747112
46.54356136
46.10073259
46.69402113
46.70062606
46.79929739
49.90638736
49.33408261
49.26727839
49.4332091
49.38315675
49.99765988
48.4402262
48.29748312
48.18604816
48.50224326
48.3963992
48.57651107
44.63408486
44.3472791
44.32200561
44.38702087
44.36640023
44.66869235
46.10217544
46.20379902
46.29959658
45.33399957
45.92210844
45.79552623
46.17203693
46.04769667
45.48750398
41.40299931
41.28903218
40.38691773
41.81344146
42.46472628
42.36349107
43.7917066
43.76132863
43.7106326
43.85334107
43.80459163
43.85433903
40.65767376
39.93636171
40.07419418
43.00750188
40.91006904
41.06720125
41.69145296
41.06470632
40.55799625
40.74120898
43.96933794
44.27524647
44.86746141
43.36388964
43.72794857
43.44421578
44.22470833
43.97996929
43.55896027
43.14995444
42.81271346
42.65729562
43.60207526
43.29327632
43.64340101
46.6393179
46.63052444
47.36276538
45.25845065
45.93399403
45.89532179
45.94014707
45.9451977
45.309848
44.96005326
45.65047543
45.55417158
45.82873659
45.7410953
45.03530184
47.46231946
46.5659551
46.62370628
45.81531561
45.96692759
46.8655539
44.59910604
45.23731311
45.10575541
45.45804571
45.34949352
44.69501213
44.08969173
44.63612518
44.43466961
44.96887975
44.80604846
44.22812109
46.29353295
45.47088534
45.65340766
41.38334819
41.62290284
41.54702913
41.49324988
41.71206279
43.16227853
42.95550531
43.31769971
42.12550236
42.39788615
42.6650804
42.07698116
42.24011355
41.88918409
38.69987196
39.79727497
39.6558
49.53367722
48.63937758
48.78918544
48.34502817
48.50140058
49.35659489
50.11132559
49.18582239
49.30429913
48.92087938
49.06262046
50.0038643
46.32682943
47.00124728
47.85318533
46.96503092
46.40733534
46.12454768
45.52216809
45.23537917
45.7688284
47.26313207
47.40074687
47.28308536
47.63669917
47.51451618
47.43140373
46.89670993
46.99491133
46.93310162
46.57251333
46.91493675
46.79116826
47.16159906
47.03839366
46.73599378
49.47749649
49.05288575
48.96465033
49.20489512