/*--------------------------------*- C++ -*----------------------------------*\
| =========                 |                                                 |
| \\      /  F ield         | OpenFOAM: The Open Source CFD Toolbox           |
|  \\    /   O peration     | Version:  v2012                                 |
|   \\  /    A nd           | Website:  www.openfoam.com                      |
|    \\/     M anipulation  |                                                 |
\*---------------------------------------------------------------------------*/
FoamFile
{
    version     2.0;
    format      ascii;
    class       pointVectorField;
    location    "0.93";
    object      pointDisplacement;
}
// * * * * * * * * * * * * * * * * * * * * * * * * * * * * * * * * * * * * * //

dimensions      [0 1 0 0 0 0 0];


internalField   nonuniform List<vector> 
6426
(
(0 0 0)
(0 0 0)
(0 0 0)
(0 0 0)
(0 0 0)
(0 0 0)
(0 0 0)
(0 0 0)
(0 0 0)
(0 0 0)
(-7.342192257e-05 -0.01146087262 0)
(-7.588843999e-05 -0.01154106738 0)
(-7.781575547e-05 -0.01162128115 0)
(8.80067021e-05 -0.01162063632 0)
(9.265552902e-05 -0.01146034942 0)
(0.002626270779 -0.01146655709 0)
(0.002618602444 -0.01178738251 0)
(0.002610800102 -0.01210811714 0)
(0.003291629222 -0.01211152044 0)
(0.003306368999 -0.01146964064 0)
(0.002966446862 -0.01146812975 0)
(0.00511901898 -0.01096623999 3.430866702e-13)
(0.005036384377 -0.01141547914 3.382155667e-13)
(0.005345389235 -0.01073393435 3.179678743e-13)
(0.005482695356 -0.01040941324 3.256006575e-13)
(0.00547042054 -0.007735771206 2.41986986e-13)
(0.005275075004 -0.007882975448 2.33549291e-13)
(0.004879659465 -0.006717245919 1.990629883e-13)
(0.005084384567 -0.006623804313 2.072786387e-13)
(0.003075098448 -0.00323764603 1.014466289e-13)
(0.002889999571 -0.003214467742 9.536815782e-14)
(0.002111349177 -0.002207066472 6.551703624e-14)
(0.002274219231 -0.002250357762 7.055467321e-14)
(0.0003227092428 -0.0002705640776 8.493206138e-15)
(0.0002623251929 -0.0002323556352 6.911138328e-15)
(2.079496819e-05 -1.753397732e-05 5.273559367e-16)
(3.973045738e-05 -3.170864689e-05 9.853229344e-16)
(0 0 0)
(0 0 0)
(0 0 0)
(0 0 0)
(0 0 0)
(0 0 0)
(0 0 0)
(0 0 0)
(0 0 0)
(0 0 0)
(0 0 0)
(0 0 0)
(0 0 0)
(0 0 0)
(-0.0001930840156 -0.01400580411 0)
(-0.0001942885439 -0.01416682014 0)
(-0.0001954943353 -0.01432798581 0)
(0.0001474384397 -0.01433055184 0)
(0.0001498491895 -0.01400837014 0)
(0.002550369203 -0.01402633222 0)
(0.002545548823 -0.01467054597 0)
(0.003219421475 -0.01461946429 3.577971253e-13)
(0.003233754474 -0.01402034965 3.588795927e-13)
(0.004792521257 -0.01266975625 3.239492008e-13)
(0.004678198826 -0.01296344955 3.170241847e-13)
(0.004880335018 -0.0119624868 2.925160114e-13)
(0.005019482594 -0.01174403126 3.00259817e-13)
(0.004594189738 -0.007975740159 2.039479696e-13)
(0.004409122892 -0.008011638142 1.959266083e-13)
(0.00391733135 -0.006550934254 1.60232938e-13)
(0.004186065788 -0.006690991054 1.711270015e-13)
(0.002180322265 -0.002814047093 7.20534743e-14)
(0.001899602177 -0.002564682012 6.279698983e-14)
(0.001289130351 -0.001635672858 4.005129561e-14)
(0.001469196167 -0.001781980786 4.56440441e-14)
(5.40002252e-05 -5.551028801e-05 1.429412144e-15)
(2.439079984e-05 -2.623146216e-05 6.383782392e-16)
(0 0 0)
(0 0 0)
(0 0 0)
(0 0 0)
(0 0 0)
(0 0 0)
(0 0 0)
(0 0 0)
(0 0 0)
(0 0 0)
(0 0 0)
(0 0 0)
(0 0 0)
(0 0 0)
(0 0 0)
(0 0 0)
(-0.0002123672823 -0.01658295841 0)
(-0.0002171887818 -0.01722732181 0)
(0.000468675148 -0.01723245384 0)
(0.0004734966475 -0.01658809044 0)
(0.002509471366 -0.01645528761 3.559652573e-13)
(0.002467467927 -0.0168277272 3.504280199e-13)
(0.003043709809 -0.01631605882 3.396866122e-13)
(0.003118609367 -0.01608308322 3.478189958e-13)
(0.004293264309 -0.01347301805 2.912253771e-13)
(0.004107745586 -0.01338954243 2.786382236e-13)
(0.004166669722 -0.01200625171 2.498418139e-13)
(0.004383092782 -0.01216066246 2.628453011e-13)
(0.003645457616 -0.007497179657 1.620925616e-13)
(0.003385514375 -0.007230549634 1.505184866e-13)
(0.002862524967 -0.005627161118 1.171562847e-13)
(0.003116340516 -0.00589898833 1.275785033e-13)
(0.001214706241 -0.001856430157 4.019007349e-14)
(0.001043426117 -0.001656278782 3.451405828e-14)
(0.0005332632404 -0.0007956183674 1.658395643e-14)
(0.000724563969 -0.001040842294 2.25375274e-14)
(0 0 0)
(0 0 0)
(0 0 0)
(0 0 0)
(0 0 0)
(0 0 0)
(0 0 0)
(0 0 0)
(0 0 0)
(0 0 0)
(0 0 0)
(0 0 0)
(0 0 0)
(0 0 0)
(0 0 0)
(0 0 0)
(0 0 0)
(0 0 0)
(-0.0002175432877 -0.01839548123 3.448352714e-13)
(-0.0002062035716 -0.01812554904 3.28709282e-13)
(0.0004163078453 -0.01782820949 3.232414336e-13)
(0.000436831347 -0.01816736935 3.404776461e-13)
(0.002190133365 -0.01660959921 3.110567359e-13)
(0.002044186921 -0.01600006532 2.899208651e-13)
(0.002446667775 -0.015041383 2.725042414e-13)
(0.002641694048 -0.01573398484 2.946115574e-13)
(0.003323472557 -0.0120250427 2.25111596e-13)
(0.00299458421 -0.01118650644 2.026295798e-13)
(0.002925484082 -0.00966122187 1.75012782e-13)
(0.00328424132 -0.01050427572 1.966482532e-13)
(0.002402902177 -0.005697999778 1.067063105e-13)
(0.002033898915 -0.00498149212 9.027500969e-14)
(0.001583777853 -0.003571545223 6.472600234e-14)
(0.001925403647 -0.004203271334 7.872869023e-14)
(0.0004801728957 -0.0008470803963 1.587618925e-14)
(0.0003091465067 -0.0005635740452 1.021405183e-14)
(6.923989608e-05 -0.0001186883543 2.15105711e-15)
(0.0001600888323 -0.000265521793 4.982125823e-15)
(0 0 0)
(0 0 0)
(0 0 0)
(0 0 0)
(0 0 0)
(0 0 0)
(0 0 0)
(0 0 0)
(0 0 0)
(0 0 0)
(0 0 0)
(0 0 0)
(0 0 0)
(0 0 0)
(0 0 0)
(0 0 0)
(0 0 0)
(0 0 0)
(-0.0001447116052 -0.01519928502 2.511324482e-13)
(-0.0001196730855 -0.01362102134 2.18575158e-13)
(0.000290270339 -0.01320580298 2.118860642e-13)
(0.0003276818805 -0.0147907136 2.443462099e-13)
(0.001476195966 -0.01257003178 2.075700722e-13)
(0.001259248125 -0.01099492936 1.763589275e-13)
(0.001450835229 -0.009974201901 1.599692601e-13)
(0.001720112454 -0.01152235624 1.902644708e-13)
(0.001893673253 -0.007727987082 1.275923811e-13)
(0.001520752579 -0.006378425431 1.022931739e-13)
(0.001379151346 -0.005118566234 8.210099267e-14)
(0.001761049877 -0.006357402648 1.04971587e-13)
(0.0009523235899 -0.002553942149 4.218847494e-14)
(0.0006427296605 -0.001773414432 2.844946501e-14)
(0.0003783522176 -0.0009618946836 1.543210004e-14)
(0.0006297518695 -0.001555795525 2.570166302e-14)
(5.279428362e-06 -1.055892886e-05 1.665334537e-16)
(0 0 0)
(0 0 0)
(0 0 0)
(0 0 0)
(0 0 0)
(0 0 0)
(0 0 0)
(0 0 0)
(0 0 0)
(0 0 0)
(0 0 0)
(0 0 0)
(0 0 0)
(0 0 0)
(0 0 0)
(0 0 0)
(0 0 0)
(0 0 0)
(0 0 0)
(0 0 0)
(0 0 0)
(-5.172011515e-05 -0.007925210901 1.170591402e-13)
(-3.490334962e-05 -0.005984224659 8.611167335e-14)
(0.0001232382153 -0.005670973512 8.160139231e-14)
(0.000164866339 -0.007569772882 1.117994586e-13)
(0.0006165710755 -0.005768507375 8.518186156e-14)
(0.0004300813867 -0.004112389279 5.917488721e-14)
(0.0004564406708 -0.003451676871 4.965472478e-14)
(0.0006745208965 -0.004985199755 7.362166432e-14)
(0.0005463038624 -0.002476228977 3.656797087e-14)
(0.0003094299932 -0.001437715959 2.067790383e-14)
(0.0002115596501 -0.0008711117775 1.253164239e-14)
(0.0004248650458 -0.001705967991 2.520206266e-14)
(4.861426755e-05 -0.0001454941867 2.137179322e-15)
(1.364539397e-07 -4.191459059e-07 0)
(0 0 0)
(5.682255448e-07 -1.568019726e-06 2.775557562e-17)
(0 0 0)
(0 0 0)
(0 0 0)
(0 0 0)
(0 0 0)
(0 0 0)
(0 0 0)
(0 0 0)
(0 0 0)
(0 0 0)
(0 0 0)
(0 0 0)
(0 0 0)
(0 0 0)
(0 0 0)
(0 0 0)
(0 0 0)
(0 0 0)
(0 0 0)
(0 0 0)
(0 0 0)
(0 0 0)
(-5.591008067e-06 -0.001320939694 1.765254609e-14)
(-1.737833721e-06 -0.0004438931011 5.800915304e-15)
(7.63693334e-06 -0.0003634511201 4.74620343e-15)
(2.507470605e-05 -0.001176770545 1.57096558e-14)
(5.318711617e-05 -0.0005428334881 7.244205236e-15)
(6.570206765e-06 -6.857730395e-05 8.881784197e-16)
(1.210474021e-06 -1.002632011e-05 1.387778781e-16)
(4.031097528e-05 -0.0003262982225 4.357625372e-15)
(0 0 0)
(0 0 0)
(0 0 0)
(0 0 0)
(0 0 0)
(0 0 0)
(0 0 0)
(0 0 0)
(0 0 0)
(0 0 0)
(0 0 0)
(0 0 0)
(0 0 0)
(0 0 0)
(0 0 0)
(0 0 0)
(0 0 0)
(0 0 0)
(0 0 0)
(0 0 0)
(0 0 0)
(0 0 0)
(0 0 0)
(0 0 0)
(0 0 0)
(0 0 0)
(0 0 0)
(0 0 0)
(0 0 0)
(0 0 0)
(0 0 0)
(0 0 0)
(0 0 0)
(0 0 0)
(0 0 0)
(0 0 0)
(0 0 0)
(0 0 0)
(0 0 0)
(0 0 0)
(0 0 0)
(0 0 0)
(0 0 0)
(0 0 0)
(0 0 0)
(0 0 0)
(0 0 0)
(0 0 0)
(0 0 0)
(0 0 0)
(0 0 0)
(0 0 0)
(0 0 0)
(0 0 0)
(0 0 0)
(0 0 0)
(0 0 0)
(0 0 0)
(0 0 0)
(0 0 0)
(0 0 0)
(0 0 0)
(0 0 0)
(0 0 0)
(0 0 0)
(0 0 0)
(0 0 0)
(0 0 0)
(0 0 0)
(0 0 0)
(0 0 0)
(0 0 0)
(0 0 0)
(0 0 0)
(0 0 0)
(0 0 0)
(0 0 0)
(0 0 0)
(0 0 0)
(0 0 0)
(0 0 0)
(0 0 0)
(0 0 0)
(0 0 0)
(0 0 0)
(0 0 0)
(0 0 0)
(0 0 0)
(0 0 0)
(0 0 0)
(0 0 0)
(0 0 0)
(0 0 0)
(0 0 0)
(0 0 0)
(0 0 0)
(0 0 0)
(0 0 0)
(0 0 0)
(0 0 0)
(0 0 0)
(0 0 0)
(0 0 0)
(0 0 0)
(0 0 0)
(0 0 0)
(0 0 0)
(0 0 0)
(0 0 0)
(0 0 0)
(0 0 0)
(0 0 0)
(0 0 0)
(0 0 0)
(0 0 0)
(0 0 0)
(0 0 0)
(0 0 0)
(0 0 0)
(0 0 0)
(0 0 0)
(0 0 0)
(0 0 0)
(0 0 0)
(0 0 0)
(0 0 0)
(0 0 0)
(0 0 0)
(0 0 0)
(0 0 0)
(0 0 0)
(0 0 0)
(0 0 0)
(0 0 0)
(0 0 0)
(0 0 0)
(0 0 0)
(0 0 0)
(0 0 0)
(0 0 0)
(0 0 0)
(0 0 0)
(0 0 0)
(0 0 0)
(0 0 0)
(0 0 0)
(0 0 0)
(0 0 0)
(0 0 0)
(0 0 0)
(0 0 0)
(0 0 0)
(0 0 0)
(0 0 0)
(0 0 0)
(0 0 0)
(0 0 0)
(0 0 0)
(0 0 0)
(0 0 0)
(0 0 0)
(0 0 0)
(0 0 0)
(0 0 0)
(0 0 0)
(0 0 0)
(0 0 0)
(0 0 0)
(0 0 0)
(0 0 0)
(0 0 0)
(0 0 0)
(0 0 0)
(0 0 0)
(0 0 0)
(0 0 0)
(0 0 0)
(0 0 0)
(0 0 0)
(0 0 0)
(0 0 0)
(0 0 0)
(0 0 0)
(0 0 0)
(0 0 0)
(0 0 0)
(0 0 0)
(0 0 0)
(0 0 0)
(0 0 0)
(0 0 0)
(0 0 0)
(0 0 0)
(0 0 0)
(0 0 0)
(0 0 0)
(0 0 0)
(0 0 0)
(0 0 0)
(0 0 0)
(0 0 0)
(0 0 0)
(0 0 0)
(0 0 0)
(0 0 0)
(0 0 0)
(0 0 0)
(0 0 0)
(0 0 0)
(0 0 0)
(0 0 0)
(0 0 0)
(0 0 0)
(0 0 0)
(0 0 0)
(0 0 0)
(0 0 0)
(0 0 0)
(0 0 0)
(0 0 0)
(0 0 0)
(0 0 0)
(0 0 0)
(0 0 0)
(0 0 0)
(0 0 0)
(0 0 0)
(0 0 0)
(0 0 0)
(0 0 0)
(0 0 0)
(0 0 0)
(0 0 0)
(0 0 0)
(0 0 0)
(0 0 0)
(0 0 0)
(0 0 0)
(0 0 0)
(0 0 0)
(0 0 0)
(0 0 0)
(0 0 0)
(0 0 0)
(0 0 0)
(0 0 0)
(0 0 0)
(0 0 0)
(0 0 0)
(0 0 0)
(0 0 0)
(0 0 0)
(0 0 0)
(0 0 0)
(0 0 0)
(0 0 0)
(0 0 0)
(0 0 0)
(0 0 0)
(0 0 0)
(0 0 0)
(0 0 0)
(0 0 0)
(0 0 0)
(0 0 0)
(0 0 0)
(0 0 0)
(0 0 0)
(0 0 0)
(0 0 0)
(0 0 0)
(0 0 0)
(0 0 0)
(0 0 0)
(0 0 0)
(0 0 0)
(0 0 0)
(0 0 0)
(0 0 0)
(0 0 0)
(0 0 0)
(0 0 0)
(0 0 0)
(0 0 0)
(0 0 0)
(0 0 0)
(0 0 0)
(0 0 0)
(0 0 0)
(0 0 0)
(0 0 0)
(0 0 0)
(0 0 0)
(0 0 0)
(0 0 0)
(0 0 0)
(0 0 0)
(0 0 0)
(0 0 0)
(0 0 0)
(0 0 0)
(0 0 0)
(0 0 0)
(0 0 0)
(0 0 0)
(0 0 0)
(0 0 0)
(0 0 0)
(0 0 0)
(0 0 0)
(0 0 0)
(0 0 0)
(0 0 0)
(0 0 0)
(0 0 0)
(0 0 0)
(0 0 0)
(0 0 0)
(0 0 0)
(0 0 0)
(0 0 0)
(0 0 0)
(0 0 0)
(0 0 0)
(0 0 0)
(0 0 0)
(0 0 0)
(0 0 0)
(0 0 0)
(0 0 0)
(0 0 0)
(0 0 0)
(0 0 0)
(0 0 0)
(0 0 0)
(0 0 0)
(0 0 0)
(0 0 0)
(0 0 0)
(0 0 0)
(0 0 0)
(0 0 0)
(0 0 0)
(0 0 0)
(0 0 0)
(0 0 0)
(0 0 0)
(0 0 0)
(0 0 0)
(0 0 0)
(0 0 0)
(0 0 0)
(0 0 0)
(0 0 0)
(0 0 0)
(0 0 0)
(0 0 0)
(0 0 0)
(0 0 0)
(0 0 0)
(0 0 0)
(0 0 0)
(0 0 0)
(0 0 0)
(0 0 0)
(0 0 0)
(0 0 0)
(0 0 0)
(0 0 0)
(0 0 0)
(0 0 0)
(0 0 0)
(0 0 0)
(0 0 0)
(0 0 0)
(0 0 0)
(0 0 0)
(0 0 0)
(0 0 0)
(0 0 0)
(0 0 0)
(0 0 0)
(0 0 0)
(0 0 0)
(0 0 0)
(0 0 0)
(0 0 0)
(0 0 0)
(0 0 0)
(0 0 0)
(0 0 0)
(0 0 0)
(0 0 0)
(0 0 0)
(0 0 0)
(0 0 0)
(0 0 0)
(0 0 0)
(0 0 0)
(0 0 0)
(0 0 0)
(0 0 0)
(0 0 0)
(0 0 0)
(0 0 0)
(0 0 0)
(0 0 0)
(0 0 0)
(0 0 0)
(0 0 0)
(0 0 0)
(0 0 0)
(0 0 0)
(0 0 0)
(0 0 0)
(0 0 0)
(0 0 0)
(0 0 0)
(0 0 0)
(0 0 0)
(0 0 0)
(0 0 0)
(0 0 0)
(0 0 0)
(0 0 0)
(0 0 0)
(0 0 0)
(0 0 0)
(0 0 0)
(0 0 0)
(0 0 0)
(0 0 0)
(0 0 0)
(0 0 0)
(0 0 0)
(0 0 0)
(0 0 0)
(0 0 0)
(0 0 0)
(0 0 0)
(0 0 0)
(0 0 0)
(0 0 0)
(0 0 0)
(0 0 0)
(0 0 0)
(0 0 0)
(0 0 0)
(0 0 0)
(0 0 0)
(0 0 0)
(0 0 0)
(0 0 0)
(0 0 0)
(0 0 0)
(0 0 0)
(0 0 0)
(0 0 0)
(0 0 0)
(0 0 0)
(0 0 0)
(0 0 0)
(0 0 0)
(0 0 0)
(0 0 0)
(0 0 0)
(0 0 0)
(0 0 0)
(0 0 0)
(0 0 0)
(0 0 0)
(0 0 0)
(0 0 0)
(0 0 0)
(0 0 0)
(0 0 0)
(0 0 0)
(0 0 0)
(0 0 0)
(0 0 0)
(0 0 0)
(0 0 0)
(0 0 0)
(0 0 0)
(0 0 0)
(0 0 0)
(0 0 0)
(0 0 0)
(0 0 0)
(0 0 0)
(0 0 0)
(0 0 0)
(0 0 0)
(0 0 0)
(0 0 0)
(0 0 0)
(0 0 0)
(0 0 0)
(0 0 0)
(0 0 0)
(0 0 0)
(0 0 0)
(0 0 0)
(0 0 0)
(0 0 0)
(0 0 0)
(0 0 0)
(0 0 0)
(0 0 0)
(0 0 0)
(0 0 0)
(0 0 0)
(0 0 0)
(0 0 0)
(0 0 0)
(0 0 0)
(0 0 0)
(0 0 0)
(0 0 0)
(0 0 0)
(0 0 0)
(0 0 0)
(0 0 0)
(0 0 0)
(0 0 0)
(0 0 0)
(0 0 0)
(0 0 0)
(0 0 0)
(0 0 0)
(0 0 0)
(0 0 0)
(0 0 0)
(0 0 0)
(0 0 0)
(0 0 0)
(0 0 0)
(0 0 0)
(0 0 0)
(0 0 0)
(0 0 0)
(0 0 0)
(0 0 0)
(0 0 0)
(0 0 0)
(0 0 0)
(0 0 0)
(0 0 0)
(0 0 0)
(0 0 0)
(0 0 0)
(0 0 0)
(0 0 0)
(0 0 0)
(0 0 0)
(0 0 0)
(0 0 0)
(0 0 0)
(0 0 0)
(0 0 0)
(0 0 0)
(0 0 0)
(0 0 0)
(0 0 0)
(0 0 0)
(0 0 0)
(0 0 0)
(0 0 0)
(0 0 0)
(0 0 0)
(0 0 0)
(0 0 0)
(0 0 0)
(0 0 0)
(0 0 0)
(0 0 0)
(0 0 0)
(0 0 0)
(0 0 0)
(0 0 0)
(0 0 0)
(0 0 0)
(0 0 0)
(0 0 0)
(0 0 0)
(0 0 0)
(0 0 0)
(0 0 0)
(0 0 0)
(0 0 0)
(0 0 0)
(0 0 0)
(0 0 0)
(0 0 0)
(0 0 0)
(0 0 0)
(0 0 0)
(0 0 0)
(0 0 0)
(0 0 0)
(0 0 0)
(0 0 0)
(0 0 0)
(0 0 0)
(0 0 0)
(0 0 0)
(0 0 0)
(0 0 0)
(0 0 0)
(0 0 0)
(0 0 0)
(0 0 0)
(0 0 0)
(0 0 0)
(0 0 0)
(0 0 0)
(0 0 0)
(0 0 0)
(0 0 0)
(0 0 0)
(0 0 0)
(0 0 0)
(0 0 0)
(0 0 0)
(0 0 0)
(0 0 0)
(0 0 0)
(0 0 0)
(0 0 0)
(0 0 0)
(0 0 0)
(0 0 0)
(0 0 0)
(0 0 0)
(0 0 0)
(0 0 0)
(0 0 0)
(0 0 0)
(0 0 0)
(0 0 0)
(0 0 0)
(0 0 0)
(0 0 0)
(0 0 0)
(0 0 0)
(0 0 0)
(0 0 0)
(0 0 0)
(0 0 0)
(0 0 0)
(0 0 0)
(0 0 0)
(0 0 0)
(0 0 0)
(0 0 0)
(0 0 0)
(0 0 0)
(0 0 0)
(0 0 0)
(0 0 0)
(0 0 0)
(0 0 0)
(0 0 0)
(0 0 0)
(0 0 0)
(0 0 0)
(0 0 0)
(0 0 0)
(0 0 0)
(0 0 0)
(0 0 0)
(0 0 0)
(0 0 0)
(0 0 0)
(0 0 0)
(0 0 0)
(-7.140886364e-05 -0.01138053978 0)
(-0.0001548344552 -0.01138075359 0)
(-0.0001566795768 -0.01146110265 0)
(9.694378712e-05 -0.01129985032 0)
(-6.933355317e-05 -0.0113002074 0)
(0.002633178398 -0.01114539674 0)
(0.00229406299 -0.01114407146 0)
(0.002287020917 -0.01146520087 0)
(-0.000191878878 -0.01384463844 0)
(-0.000363349183 -0.0138433554 0)
(-0.0003645521249 -0.01400452109 0)
(-0.0001587866127 -0.01154137493 0)
(0.0001522599393 -0.01368618844 0)
(-6.884711871e-06 -0.01369008578 0)
(-0.0001674682124 -0.01369651643 0)
(0.002573338266 -0.01338865935 0)
(0.002234090419 -0.01338703377 0)
(0.001892809105 -0.01338516851 0)
(0.00188267916 -0.01370497285 0)
(0.00187479595 -0.01402651499 0)
(0.002279308025 -0.01178598106 0)
(0.001297308893 -0.01017568575 0)
(-0.0002099565326 -0.01626077672 0)
(-0.0005528892457 -0.01625821069 0)
(-0.0005552999955 -0.01658039239 0)
(-0.0003657554435 -0.01416553713 0)
(-0.0001322297972 -0.01025424128 0)
(-4.854984578e-05 -0.01025425386 0)
(0.001268262694 -0.01146093013 0)
(0.001276225225 -0.01113998718 0)
(0.000938490434 -0.01113915112 0)
(0.0009343396236 -0.01129968118 0)
(0.0009300376329 -0.01146001557 0)
(0.001125291637 -0.01033612702 0)
(0.001293992013 -0.01033656625 0)
(3.572123683e-05 -0.0102544654 0)
(-0.0001199756572 -0.0127396707 0)
(-0.0002837958371 -0.01274118353 0)
(-0.000291061008 -0.0129002686 0)
(-0.0001274695215 -0.01289867924 0)
(-0.0001123343964 -0.01258054355 0)
(-0.000276603172 -0.0125818884 0)
(4.557683897e-05 -0.01273872455 0)
(5.319000553e-05 -0.01257967201 0)
(0.001231241643 -0.01274216403 0)
(0.001241184982 -0.01242229843 0)
(0.0009003413386 -0.0124205412 0)
(0.0008885170869 -0.01273977915 0)
(0.0009256174241 -0.01162034907 0)
(0.0009211234014 -0.01178054733 0)
(0.00125980858 -0.01178157009 0)
(-5.976322191e-05 -0.01081801201 0)
(-0.0001452282004 -0.01081747726 0)
(-0.0001456974193 -0.01089834544 0)
(-6.099266979e-05 -0.01089862008 0)
(-0.0006786061275 -0.01210249468 0)
(-0.0006750827464 -0.01202281664 0)
(-0.00076195999 -0.01202182238 0)
(-9.352193602e-05 -0.01210163481 0)
(-8.781695814e-05 -0.01194175988 0)
(-0.0002528016684 -0.01194284497 0)
(-0.0002555632099 -0.01202288787 0)
(-0.0002582499329 -0.01210275175 0)
(-5.861080257e-05 -0.01073741832 0)
(-0.0001446998338 -0.01073668436 0)
(2.46969343e-05 -0.01081819503 0)
(2.618051601e-05 -0.01073772354 0)
(0.0006101952333 -0.01081777225 0)
(0.0006139590989 -0.01065695496 0)
(0.0004465009549 -0.01065689915 0)
(0.0004426917485 -0.01081777597 0)
(0.0004531390933 -0.01033515314 0)
(0.0006208179253 -0.01033531536 0)
(-0.0007960532535 -0.01338577562 0)
(-0.0007941501415 -0.0133056365 0)
(-0.0002640707723 -0.01226261085 0)
(-9.933443303e-05 -0.01226147901 0)
(-0.0006796597038 -0.01218329862 0)
(-0.000690697943 -0.0127458908 0)
(-0.000688363706 -0.01266593449 0)
(0.0004783170274 -0.01594387669 0)
(0.0001353858106 -0.01594131068 0)
(-0.0002075469026 -0.01593874466 0)
(0.002531967652 -0.01593341085 3.585881592e-13)
(0.001850046384 -0.01595414076 0)
(0.001844807568 -0.01659435379 3.590738817e-13)
(0.001862099013 -0.01434338192 0)
(0.001859689383 -0.01466541397 0)
(0.0005938617567 -0.01145964012 0)
(0.0005982126817 -0.01129936596 0)
(0.0004308016397 -0.01129941526 0)
(0.0004264864051 -0.01145971962 0)
(0.0004389186395 -0.01097842858 0)
(0.000606386322 -0.01097840963 0)
(2.31251751e-05 -0.0108986509 0)
(0.001178645833 -0.01401606819 0)
(0.001194549999 -0.01369937491 0)
(0.0008529798126 -0.0136983156 0)
(0.0008357131194 -0.01401350217 0)
(0.0008756008065 -0.01305855997 0)
(0.001221242224 -0.01306192445 0)
(3.769221764e-05 -0.01289765533 0)
(-0.0002027254044 -0.01529438127 0)
(-0.0002003146588 -0.01497219957 0)
(-0.0005432473664 -0.01496963355 0)
(-0.0005456581161 -0.01529181524 0)
(-0.0003621379487 -0.01050748228 0)
(-0.0003030872381 -0.01049664041 0)
(-0.0003278421684 -0.01039406361 0)
(-5.366904477e-05 -0.01049578304 0)
(-5.240933442e-05 -0.01041501058 0)
(-0.0001383624112 -0.01041448715 0)
(-0.0001389852383 -0.0104953841 0)
(-0.0006932325899 -0.01282583065 0)
(-0.0006362724046 -0.01338345438 0)
(-0.0006276600393 -0.01322406512 0)
(-0.000788056471 -0.01322705519 0)
(-0.0001533155623 -0.01337448245 0)
(-0.000144670487 -0.0132158417 0)
(-0.0003069905185 -0.01321812897 0)
(-0.0003139932499 -0.01337738062 0)
(-0.000805112037 -0.01346382593 0)
(-0.0003988586097 -0.01081697121 0)
(-0.0004000375913 -0.01089753477 0)
(-0.0003162653864 -0.01089745824 0)
(-0.000317498665 -0.01081615831 0)
(-0.0004026768297 -0.01113905259 0)
(-0.0003181636988 -0.01113929587 0)
(-0.0003163996063 -0.01105909585 0)
(-0.0003996791848 -0.01105923593 0)
(-6.555692394e-05 -0.01113976433 0)
(-6.395605551e-05 -0.0110595182 0)
(-0.0001476176751 -0.01105953569 0)
(-0.0001492615288 -0.01113976654 0)
(-0.0004782942117 -0.01106084756 0)
(-0.0004853815127 -0.01113942145 0)
(-0.0004600204272 -0.01082686945 0)
(-0.000481037128 -0.01089362139 0)
(-0.0004100630006 -0.01146056852 0)
(-0.0004101365019 -0.01137959153 0)
(-0.0004960039085 -0.01137903881 0)
(-0.0004953297376 -0.01146014002 0)
(-0.0004951797982 -0.01121730161 0)
(-0.0004077533642 -0.01121829998 0)
(-0.0007620472353 -0.01176608223 0)
(-0.0006626004894 -0.01178444033 0)
(-0.0006604902389 -0.01170401843 0)
(-0.0007402806894 -0.01170051815 0)
(-0.000413589518 -0.01178326565 0)
(-0.0004120262895 -0.01170274986 0)
(-0.000495437329 -0.01170291889 0)
(-0.0004967558146 -0.0117835263 0)
(-0.0004955318444 -0.01154095033 0)
(-0.0004104533219 -0.01154133253 0)
(-0.0004234004886 -0.01210364105 0)
(-0.000420736436 -0.01202380693 0)
(-0.0005043290324 -0.01202383991 0)
(-0.0005069664852 -0.01210371913 0)
(-0.0004986256995 -0.01186402483 0)
(-0.0004156115911 -0.01186370318 0)
(-0.0007417359456 -0.0118672041 0)
(-0.0006639639799 -0.01186506237 0)
(-0.000425222996 -0.01071400824 0)
(-0.0001406564338 -0.01057592901 0)
(-5.52509389e-05 -0.01057643338 0)
(-0.000383080682 -0.01057674892 0)
(-0.000309282395 -0.01057574475 0)
(-0.0003205360518 -0.01073424626 0)
(-0.0007829114191 -0.01306725089 0)
(0.002973130463 -0.01114690786 0)
(0.005184058935 -0.01046363312 3.467920395e-13)
(0.004647785967 -0.01075134278 3.564371021e-13)
(0.004607752049 -0.01131997584 3.542721672e-13)
(-0.0001511074007 -0.01121999588 0)
(-6.763066682e-05 -0.01121988721 0)
(-0.00032100171 -0.01121921848 0)
(-0.0003248741901 -0.01146101141 0)
(-0.0003240114443 -0.01138031079 0)
(0.001635411512 -0.01017676401 0)
(0.002653012016 -0.01018075672 0)
(0.002314001583 -0.01017940229 0)
(-0.0002141002919 -0.01025476603 0)
(-0.0002225106256 -0.01033331505 0)
(-0.0001363139277 -0.01033396002 0)
(-5.068441703e-05 -0.01033446607 0)
(3.116993567e-05 -0.01049611856 0)
(3.265979823e-05 -0.01041540767 0)
(0.0002828412065 -0.01049601134 0)
(0.000284525422 -0.01041552639 0)
(0.0002008803385 -0.01041557394 0)
(0.0001991390346 -0.01049608839 0)
(0.0002038539763 -0.01025476569 0)
(0.0002877000703 -0.01025485433 0)
(-0.0005792947215 -0.01146014028 0)
(-0.0005773369541 -0.01137989682 0)
(-0.0006386029211 -0.011389914 0)
(-0.0006601283783 -0.01145625807 0)
(-0.0006022097645 -0.01127739395 0)
(-0.0007182630182 -0.01163419273 0)
(-0.0006576506967 -0.01162393121 0)
(-0.0006814179392 -0.01152167607 0)
(-0.0005784818781 -0.01162230876 0)
(-0.000580197311 -0.01154076577 0)
(-0.0007855330829 -0.01314722001 0)
(-0.0007507632737 -0.01194485059 0)
(-0.0006829139348 -0.01242500638 0)
(-0.0006818671991 -0.01234451666 0)
(-0.0004339051316 -0.01242392147 0)
(-0.0004313060262 -0.01234396715 0)
(-0.0005137236895 -0.01234457759 0)
(-0.0005161747602 -0.01242454799 0)
(-0.0005092824595 -0.01218403474 0)
(-0.0004262636378 -0.0121836832 0)
(-0.0002874230884 -0.01025574384 0)
(-0.0003081822819 -0.01032730152 0)
(-0.000223396571 -0.01049533613 0)
(-0.0002245848101 -0.01041385695 0)
(-0.0004005454588 -0.01097820811 0)
(-0.0005016614488 -0.01095913416 0)
(-0.000537129546 -0.01107182574 0)
(-0.0005587338245 -0.01114050378 0)
(-0.0004101779062 -0.01129852499 0)
(-0.0004981328452 -0.01129735804 0)
(-0.0005810049507 -0.01121130189 0)
(-0.0005800090161 -0.01178380126 0)
(-0.000578526371 -0.01170325493 0)
(-0.0006686499459 -0.01194431269 0)
(-0.000585016274 -0.01194419023 0)
(-0.0005817251046 -0.01186434583 0)
(-0.000404794759 -0.01064770085 0)
(-0.0003183757063 -0.01065392949 0)
(-0.0002304413804 -0.01065511125 0)
(-0.0002259419504 -0.0105755303 0)
(-0.0002315929497 -0.01081671131 0)
(-0.0002322772974 -0.01073555017 0)
(0.002992589078 -0.01018238475 0)
(0.004012562414 -0.0101872632 0)
(0.003332211033 -0.01018401313 0)
(0.005571902783 -0.009971325932 3.304023721e-13)
(0.005611760966 -0.007485619593 2.480515793e-13)
(0.005797383356 -0.008453420087 2.800676357e-13)
(0.005669183856 -0.008765279359 2.741695759e-13)
(0.005296494565 -0.006509767396 2.157718448e-13)
(0.003326999205 -0.003305501862 1.097177904e-13)
(0.004095952363 -0.004347739141 1.442457265e-13)
(0.003845923043 -0.004326160836 1.354888424e-13)
(0.002514855487 -0.002348305773 7.799316748e-14)
(0.0004409327855 -0.0003488307071 1.160183061e-14)
(0.001005435504 -0.0008380150121 2.786659792e-14)
(0.0008315500247 -0.0007344733245 2.305100555e-14)
(7.238353583e-05 -0.01210097564 0)
(7.798451068e-05 -0.01194104007 0)
(0.0005738945876 -0.01210032848 0)
(0.0005793491361 -0.01194036188 0)
(0.0004116881901 -0.01194040932 0)
(0.0004064156463 -0.0121004521 0)
(0.0004218822472 -0.01162003678 0)
(0.0005892739475 -0.01161997237 0)
(0.003256823419 -0.01339310015 0)
(0.004874292713 -0.01226735861 3.286537709e-13)
(0.00445993984 -0.01289990764 3.457095721e-13)
(0.004401953758 -0.01337042497 3.419070582e-13)
(0.004565024908 -0.01187460366 3.51926821e-13)
(0.005142612346 -0.01146087643 3.070182997e-13)
(0.004859668711 -0.008045025463 2.155359224e-13)
(0.005144142138 -0.009314565083 2.494948692e-13)
(0.004919645533 -0.009343211935 2.38850606e-13)
(0.00549082159 -0.008973012004 2.658012699e-13)
(0.004404889591 -0.006714739664 1.799393967e-13)
(0.002361337106 -0.002907004746 7.799316748e-14)
(0.003108302026 -0.004088509556 1.096345237e-13)
(0.002906152889 -0.004007721162 1.025568519e-13)
(0.003645482597 -0.004332047977 1.284805595e-13)
(0.001621653975 -0.001876145814 5.036249195e-14)
(0.0001251634847 -0.0001227238808 3.302913498e-15)
(0.0004841304821 -0.0005000027278 1.341982081e-14)
(0.000343092095 -0.0003714718753 9.520162436e-15)
(0.0007319990839 -0.0006830191033 2.030320356e-14)
(0.0001402073102 -0.01529694729 0)
(0.0001426180599 -0.01497476559 0)
(0.001169003953 -0.01530464534 0)
(0.001171414703 -0.01498246364 0)
(0.0008284819898 -0.01497989762 0)
(0.00082607124 -0.01530207932 0)
(0.0008333023696 -0.01433568387 0)
(0.001176235083 -0.01433824989 0)
(0.003169262108 -0.01569532642 3.531203108e-13)
(0.004440662937 -0.01339354721 3.011618732e-13)
(0.00415508941 -0.01441548746 3.241851232e-13)
(0.004039177494 -0.0145831257 3.152478278e-13)
(0.004314998477 -0.01374677995 3.362587986e-13)
(0.004558035987 -0.01215569578 2.733091531e-13)
(0.003862130499 -0.007636082763 1.717515019e-13)
(0.004260422655 -0.009219766674 2.073341498e-13)
(0.00404953048 -0.009115616882 1.970645869e-13)
(0.004743475487 -0.009431017602 2.305794444e-13)
(0.003399975979 -0.006188200539 1.392080895e-13)
(0.001508632565 -0.002216885174 4.991840274e-14)
(0.002161794861 -0.00339451658 7.641109967e-14)
(0.001848815163 -0.003019169091 6.5336625e-14)
(0.002613585898 -0.003770455209 9.228728892e-14)
(0.0009018648221 -0.001245036307 2.803313137e-14)
(0 0 0)
(9.543666686e-05 -0.0001176575651 2.650657471e-15)
(4.454615465e-05 -5.715117571e-05 1.249000903e-15)
(0.0002587084845 -0.0002930432488 7.188694084e-15)
(-0.0002228381858 -0.0183031885 3.550493233e-13)
(-0.0009047811213 -0.0183691232 3.564232243e-13)
(-0.0008828789683 -0.01851735636 3.471944954e-13)
(-0.0008982312122 -0.01657782638 0)
(-0.0009030527117 -0.01722218978 0)
(0.0004524443022 -0.01816129 3.52190499e-13)
(0.002309532077 -0.01693875242 3.282374372e-13)
(0.001736504201 -0.01751225062 3.394229342e-13)
(0.001658420238 -0.01729724851 3.240047119e-13)
(0.001828210351 -0.01712098838 3.566313911e-13)
(0.002806724291 -0.01616854712 3.132494264e-13)
(0.003621206763 -0.01267324247 2.454425552e-13)
(0.003481493662 -0.01402223236 2.715883074e-13)
(0.003224050186 -0.01342481171 2.513267372e-13)
(0.003889385555 -0.01458780071 3.035904861e-13)
(0.003614167149 -0.011180573 2.16549001e-13)
(0.002757120464 -0.006322336622 1.224853552e-13)
(0.003167452424 -0.007949470874 1.539879335e-13)
(0.002807518348 -0.007285835788 1.364186542e-13)
(0.003794355032 -0.008869972039 1.846162112e-13)
(0.002258933122 -0.004768306667 9.239831122e-14)
(0.0006666698229 -0.001136831239 2.203792704e-14)
(0.001164123917 -0.002120686369 4.110600749e-14)
(0.0009157083219 -0.001725556085 3.233524559e-14)
(0.001640010815 -0.00278151455 5.79397641e-14)
(0.000274585753 -0.000440178124 8.534839502e-15)
(0 0 0)
(0 0 0)
(0 0 0)
(4.269595214e-06 -5.690331713e-06 1.110223025e-16)
(-0.0001685169089 -0.0165050065 2.810390809e-13)
(-0.0007161623679 -0.01673011874 2.849248615e-13)
(-0.0006353936734 -0.01543911037 2.551292511e-13)
(-0.0008428387299 -0.01829214282 3.318179065e-13)
(0.0003614541123 -0.01611791569 2.743916205e-13)
(0.00168306129 -0.01395715212 2.374905828e-13)
(0.001303665055 -0.01484431932 2.526312493e-13)
(0.001153595236 -0.01347128879 2.224886941e-13)
(0.001559032658 -0.01677946351 3.041039642e-13)
(0.001980539916 -0.01291096613 2.196715032e-13)
(0.00227079056 -0.009007866879 1.532524108e-13)
(0.00228120457 -0.01040910548 1.770805724e-13)
(0.001933037074 -0.009071390409 1.49769086e-13)
(0.002934430279 -0.01261412156 2.284977763e-13)
(0.002153885041 -0.007556138342 1.285638263e-13)
(0.001296232148 -0.003375907458 5.745404152e-14)
(0.001645692585 -0.004688511455 7.978340211e-14)
(0.001268450351 -0.003720392603 6.143696663e-14)
(0.002427027153 -0.006504667491 1.178501741e-13)
(0.000923273837 -0.002214673839 3.769207169e-14)
(6.001915184e-05 -0.0001164907863 1.984523657e-15)
(0.0002620968193 -0.0005431581717 9.24260668e-15)
(0.0001154550973 -0.0002465119942 4.080069615e-15)
(0.0006745625448 -0.001313407094 2.381428388e-14)
(0 0 0)
(0 0 0)
(0 0 0)
(0 0 0)
(0 0 0)
(-7.195920776e-05 -0.009904788313 1.502825642e-13)
(-0.0003680488687 -0.01013617159 1.538075223e-13)
(-0.0002831824882 -0.008138425138 1.202232758e-13)
(-0.0005478599618 -0.0138664268 2.225442053e-13)
(0.0002076645593 -0.00951730293 1.443845044e-13)
(0.0008220275543 -0.007521549324 1.140892936e-13)
(0.0006657168693 -0.008311064627 1.260797022e-13)
(0.0005082262708 -0.006475124353 9.563183578e-14)
(0.0009939565786 -0.01188381532 1.906252933e-13)
(0.0009190302717 -0.006635246285 1.006417172e-13)
(0.0008349034192 -0.00369006297 5.596911823e-14)
(0.000923001693 -0.004685318552 7.106815136e-14)
(0.0006351348993 -0.003304907271 4.880817972e-14)
(0.001583351402 -0.007633892776 1.22429844e-13)
(0.0006984289406 -0.002733474685 4.146682997e-14)
(0.0001787296558 -0.0005209168598 7.91033905e-15)
(0.0003473240193 -0.001106309893 1.679212325e-14)
(0.0001533182374 -0.0005013413352 7.410738689e-15)
(0.00091751461 -0.002768113487 4.440892099e-14)
(5.240677466e-05 -0.0001408016317 2.137179322e-15)
(0 0 0)
(0 0 0)
(0 0 0)
(2.476205311e-05 -5.44284887e-05 8.743006319e-16)
(0 0 0)
(0 0 0)
(0 0 0)
(0 0 0)
(0 0 0)
(-1.20948211e-05 -0.002591281125 3.545774785e-14)
(-8.3765543e-05 -0.002716916015 3.717859354e-14)
(-4.196771736e-05 -0.001410218514 1.883215806e-14)
(-0.000205964837 -0.006173034453 8.883171976e-14)
(5.132976276e-05 -0.002385658811 3.264055692e-14)
(0.0001423078884 -0.001420886612 1.944278072e-14)
(0.0001318181848 -0.001782986802 2.439715097e-14)
(5.582877577e-05 -0.0007709156785 1.029731855e-14)
(0.000362997313 -0.004717767168 6.787626017e-14)
(0.0001324607512 -0.001048103139 1.433575481e-14)
(2.940859114e-05 -0.0001434488438 1.970645869e-15)
(6.784676482e-05 -0.0003794197613 5.19029264e-15)
(5.120918668e-06 -2.932524719e-05 3.885780586e-16)
(0.0003903118989 -0.002080930868 2.994826609e-14)
(3.400681298e-06 -1.471035474e-05 1.942890293e-16)
(0 0 0)
(0 0 0)
(0 0 0)
(3.485574899e-05 -0.0001169504911 1.679212325e-15)
(0 0 0)
(0 0 0)
(0 0 0)
(0 0 0)
(0 0 0)
(0 0 0)
(0 0 0)
(0 0 0)
(0 0 0)
(0 0 0)
(0 0 0)
(0 0 0)
(0 0 0)
(-1.428322275e-05 -0.000495340864 6.467049118e-15)
(0 0 0)
(0 0 0)
(0 0 0)
(0 0 0)
(1.134627958e-05 -0.0001600832683 2.081668171e-15)
(0 0 0)
(0 0 0)
(0 0 0)
(0 0 0)
(0 0 0)
(0 0 0)
(0 0 0)
(0 0 0)
(0 0 0)
(0 0 0)
(0 0 0)
(0 0 0)
(0 0 0)
(0 0 0)
(0 0 0)
(0 0 0)
(0 0 0)
(0 0 0)
(0 0 0)
(0 0 0)
(0 0 0)
(0 0 0)
(0 0 0)
(0 0 0)
(0 0 0)
(0 0 0)
(0 0 0)
(0 0 0)
(0 0 0)
(0 0 0)
(0 0 0)
(0 0 0)
(0 0 0)
(0 0 0)
(0 0 0)
(0 0 0)
(0 0 0)
(0 0 0)
(0 0 0)
(0 0 0)
(0 0 0)
(0 0 0)
(0 0 0)
(0 0 0)
(0 0 0)
(0 0 0)
(0 0 0)
(0 0 0)
(0 0 0)
(0 0 0)
(0 0 0)
(0 0 0)
(0 0 0)
(0 0 0)
(0 0 0)
(0 0 0)
(0 0 0)
(0 0 0)
(0 0 0)
(0 0 0)
(0 0 0)
(0 0 0)