/*--------------------------------*- C++ -*----------------------------------*\
| =========                 |                                                 |
| \\      /  F ield         | OpenFOAM: The Open Source CFD Toolbox           |
|  \\    /   O peration     | Version:  v2012                                 |
|   \\  /    A nd           | Website:  www.openfoam.com                      |
|    \\/     M anipulation  |                                                 |
\*---------------------------------------------------------------------------*/
FoamFile
{
    version     2.0;
    format      ascii;
    class       volVectorField;
    location    "0.93";
    object      U;
}
// * * * * * * * * * * * * * * * * * * * * * * * * * * * * * * * * * * * * * //

dimensions      [0 1 -1 0 0 0 0];


internalField   nonuniform List<vector> 
3019
(
(103.9573826 -28.89098978 0)
(107.5141158 -18.41845358 -2.244178539e-22)
(107.234586 -12.7844807 -4.763669024e-19)
(105.8334803 -8.957061966 0)
(104.2432302 -6.38202616 2.73473501e-19)
(102.8284648 -4.640901211 0)
(101.4739179 -3.349774752 -6.451512913e-20)
(100.7584648 -2.483725087 0)
(99.93330826 -1.714866487 0)
(99.57236415 -1.164213103 1.150970489e-20)
(99.34816787 -0.6799742414 2.122237662e-21)
(99.23298563 -0.2240686468 -6.879573207e-21)
(96.94157165 -18.739973 -8.301897801e-20)
(102.4882845 -15.17575558 -1.128674563e-19)
(103.5869466 -11.68067368 3.542023267e-20)
(103.2442049 -8.775923842 -5.502481304e-20)
(102.4070533 -6.570853659 1.096206196e-19)
(101.4939821 -4.939399206 -5.576584985e-20)
(100.5252902 -3.617396473 -8.952921125e-20)
(100.0145404 -2.719016379 -3.370006719e-20)
(99.35365437 -1.866476568 -1.87353339e-20)
(99.06192089 -1.271541883 1.845000093e-20)
(98.87768942 -0.7445252627 0)
(98.78213443 -0.2453176987 1.843744875e-20)
(98.33790291 -12.03889868 0)
(100.4200716 -11.6417025 -1.610082227e-20)
(101.2686297 -9.92411463 -1.601339551e-20)
(101.2643903 -8.005809925 8.25713052e-20)
(100.831815 -6.309645387 -4.761391438e-20)
(100.2621434 -4.928401374 -2.378486032e-20)
(99.5907164 -3.684752833 0)
(99.26138942 -2.821746047 0)
(98.74811345 -1.934743682 -3.480412934e-20)
(98.52102615 -1.327736701 1.717497222e-20)
(98.37605203 -0.7796282575 7.196732655e-22)
(98.299911 -0.2569493684 -1.269578252e-20)
(99.14536881 -9.168847295 -3.879546673e-20)
(99.70054637 -9.119594579 -1.321724063e-20)
(99.94281738 -8.26238913 4.940686545e-21)
(99.86461181 -7.047801892 -1.15405156e-19)
(99.57400219 -5.807126875 0)
(99.19727636 -4.698293193 0)
(98.74087127 -3.604657825 -2.922023757e-20)
(98.53748508 -2.810184172 4.453794581e-20)
(98.14543704 -1.933607851 1.081476559e-20)
(97.97410868 -1.338848785 1.84619576e-20)
(97.86335516 -0.7882131611 -2.096944769e-20)
(97.80429389 -0.2598480209 0)
(99.59674411 -7.377976429 1.551291671e-20)
(99.39010926 -7.3779567 -1.812895658e-20)
(99.16254563 -6.892743081 5.555232474e-20)
(98.90319005 -6.109156261 8.847261405e-20)
(98.60884072 -5.222816856 0)
(98.31853327 -4.354908167 0)
(97.99242917 -3.423924788 0)
(97.86673177 -2.712677222 0)
(97.5677842 -1.878774887 3.738629126e-20)
(97.44034675 -1.313196654 -3.49725598e-20)
(97.35641347 -0.7745986023 -2.365229963e-21)
(97.31088939 -0.2557569277 2.37304924e-21)
(99.81509716 -6.123955448 0)
(99.19527048 -6.115232334 0)
(98.65907206 -5.807386088 -4.331004595e-20)
(98.23186691 -5.279823616 8.808244211e-21)
(97.88185469 -4.636918273 0)
(97.60933351 -3.961209516 0)
(97.34494514 -3.179079092 0)
(97.261144 -2.555796921 0)
(97.02749662 -1.783955078 0)
(96.93174175 -1.257964722 0)
(96.86784827 -0.744539855 0)
(96.83230969 -0.2468465412 0)
(99.91596567 -5.174858418 -1.124604505e-20)
(99.05502387 -5.154796563 -8.58913389e-21)
(98.31751978 -4.942435891 0)
(97.75211525 -4.568971597 0)
(97.3302183 -4.089450913 0)
(97.03840617 -3.557783942 0)
(96.79435082 -2.905053089 0)
(96.72578241 -2.366890997 0)
(96.53186597 -1.665231208 0)
(96.45633686 -1.183596981 0)
(96.405367 -0.7024163179 0)
(96.37741088 -0.2334626072 0)
(99.97439214 -4.42211685 0)
(98.95999823 -4.398184031 0)
(98.07568287 -4.2408575 0)
(97.39769951 -3.963643599 0)
(96.90427108 -3.596499147 0)
(96.57610584 -3.172205771 0)
(96.32847507 -2.62649739 0)
(96.25703174 -2.164815733 0)
(96.0834922 -1.534763973 0)
(96.01875957 -1.098381194 0)
(95.97475166 -0.6533672072 0)
(95.95134651 -0.2176090802 0)
(100.0039452 -3.81211806 -3.85533154e-35)
(98.88480196 -3.785808245 0)
(97.8936904 -3.662874357 0)
(97.12703406 -3.449170264 0)
(96.56896668 -3.161030663 0)
(96.19913754 -2.818443349 0)
(95.9333376 -2.359247772 0)
(95.84822164 -1.962829321 0)
(95.681451 -1.401206237 0)
(95.62020092 -1.008721964 0)
(95.57849004 -0.6012417281 0)
(95.55736607 -0.2006682837 0)
(100.0130627 -3.309537159 0)
(98.82160722 -3.281172242 0)
(97.75092547 -3.181206116 0)
(96.9142457 -3.011220992 0)
(96.30000432 -2.77998489 0)
(95.88899917 -2.499421514 0)
(95.59674867 -2.110794502 0)
(95.49198515 -1.769155795 0)
(95.32278861 -1.270593729 0)
(95.25976786 -0.9193046817 0)
(95.21698667 -0.5488777317 0)
(95.19640182 -0.1835833898 0)
(100.0091282 -2.889424395 -4.899579674e-35)
(98.7667422 -2.8598922 0)
(97.63525857 -2.776228507 0)
(96.74277624 -2.637511534 0)
(96.08041956 -2.44827167 0)
(95.63069788 -2.215272157 0)
(95.30893724 -1.884216962 0)
(95.18119968 -1.58857341 0)
(95.00364832 -1.146880842 0)
(94.93534195 -0.8333096033 0)
(94.889221 -0.4982350916 0)
(94.86791036 -0.1670000841 0)
(99.99663952 -2.534996158 0)
(98.7181383 -2.505022185 0)
(97.53917681 -2.433505703 0)
(96.60167121 -2.317927767 0)
(95.89828289 -2.160417807 0)
(95.41309258 -1.96444725 0)
(95.06137482 -1.680556026 0)
(94.90941114 -1.423529998 0)
(94.71993055 -1.032418696 0)
(94.64414255 -0.7527538661 0)
(94.59324414 -0.4505913578 0)
(94.57032821 -0.1513438232 0)
(99.97852151 -2.234332683 1.595648623e-35)
(98.67449993 -2.204423247 0)
(97.45779987 -2.142288209 0)
(96.48348928 -2.044331972 0)
(95.74510165 -1.911295774 0)
(95.22787779 -1.744582746 0)
(94.84709395 -1.499527156 0)
(94.67094927 -1.274950222 0)
(94.46759133 -0.9284101007 0)
(94.38307875 -0.6788107923 0)
(94.32657596 -0.4067193175 0)
(94.30147428 -0.1368774074 0)
(99.95676559 -1.978556514 0)
(98.63492438 -1.949051506 0)
(97.38777593 -1.894347226 0)
(96.38299614 -1.810113525 0)
(95.614662 -1.696286585 0)
(95.06872362 -1.552983931 0)
(94.66042015 -1.340092537 0)
(94.46089342 -1.142807166 0)
(94.24278968 -0.835284202 0)
(94.14897353 -0.6120523955 0)
(94.08647708 -0.367022477 0)
(94.05883542 -0.1237437158 0)
(99.93276902 -1.760911266 0)
(98.59874163 -1.732034274 0)
(97.32670547 -1.683313348 0)
(96.29640632 -1.609939217 0)
(95.5023345 -1.511388605 0)
(94.93074366 -1.386997558 0)
(94.49674772 -1.20087797 0)
(94.27503264 -1.02654711 0)
(94.04195625 -0.7529800885 0)
(93.93869765 -0.5526389902 0)
(93.87011405 -0.3316434689 0)
(93.8397409 -0.1119998068 0)
(99.90752615 -1.576130325 0)
(98.56541457 -1.54800932 0)
(97.27278165 -1.504142502 0)
(96.22087224 -1.439445082 0)
(95.40455745 -1.353148265 0)
(94.8100617 -1.244128713 0)
(94.35224582 -1.080358288 0)
(94.10969991 -0.9253085626 0)
(93.86180864 -0.6811369566 0)
(93.74924288 -0.5004637622 0)
(93.67466297 -0.3005527809 0)
(93.6414769 -0.1016453498 0)
(99.88174537 -1.420090744 0)
(98.53448545 -1.392768037 0)
(97.22459763 -1.352830151 0)
(96.15419652 -1.295086607 0)
(95.31854056 -1.218653117 0)
(94.70356199 -1.122146333 0)
(94.22372166 -0.9770355321 0)
(93.96172234 -0.8381201786 0)
(93.69937563 -0.6192506782 0)
(93.57779395 -0.4552695216 0)
(93.49741315 -0.273621455 0)
(93.46140457 -0.09264641575 0)
(99.85590706 -1.289489115 0)
(98.50552979 -1.262932509 0)
(97.18101056 -1.226138175 0)
(96.09462169 -1.173950755 0)
(95.24202455 -1.105444326 0)
(94.60864173 -1.019074111 0)
(94.10847172 -0.8895153904 0)
(93.82831771 -0.7640056255 0)
(93.55190864 -0.5667485256 0)
(93.42168141 -0.4167208994 0)
(93.33574094 -0.2506650868 0)
(93.29693823 -0.0849491037 0)
(99.83031856 -1.181660373 -2.170774903e-36)
(98.47814874 -1.155776987 0)
(97.1410688 -1.121445309 0)
(96.04071344 -1.073652375 0)
(95.17316035 -1.011482983 0)
(94.52311095 -0.9334179147 0)
(94.00412955 -0.8166591515 0)
(93.70701585 -0.702028679 0)
(93.41705227 -0.5231066095 0)
(93.2785734 -0.3844571124 0)
(93.18733069 -0.231487874 0)
(93.14579587 -0.07849675326 0)
(99.80516115 -1.094428745 0)
(98.45197166 -1.069090776 0)
(97.10396693 -1.03662543 0)
(95.99127899 -0.9922396755 0)
(95.11042811 -0.9350566342 0)
(94.44535447 -0.8638105786 0)
(93.90847403 -0.7574825543 0)
(93.59560006 -0.6513772096 0)
(93.29210342 -0.4876902091 0)
(93.14574651 -0.3581232337 0)
(93.04940776 -0.2158732095 0)
(93.00516009 -0.07321749545 0)
(99.78053516 -1.026011137 0)
(98.42665299 -1.001085202 0)
(97.06900456 -0.9699584222 0)
(95.94528203 -0.928116905 0)
(95.05246561 -0.8747042236 0)
(94.37373555 -0.8084672932 0)
(93.81973857 -0.7107077313 0)
(93.49197765 -0.6110887261 0)
(93.17667658 -0.4604836272 0)
(93.02284073 -0.3374221855 0)
(92.92166357 -0.2037187486 0)
(92.87486794 -0.06910040662 0)
(99.75647286 -0.9750225657 0)
(98.4018823 -0.9503619517 0)
(97.03556794 -0.9201014516 0)
(95.90180904 -0.8800387157 0)
(94.9980229 -0.8293218694 0)
(94.30640745 -0.7666084241 0)
(93.73650663 -0.6754668284 0)
(93.39447401 -0.5812976057 0)
(93.06290397 -0.4391148261 0)
(92.90104765 -0.3219729334 0)
(92.79490638 -0.1946431908 0)
(92.7452015 -0.06595664236 0)
(99.73291121 -0.940434712 0)
(98.37737501 -0.9158579426 0)
(97.00310372 -0.8860294608 0)
(95.86004158 -0.847051205 0)
(94.9460263 -0.7980723528 0)
(94.24225649 -0.7376798628 0)
(93.65728454 -0.6513263059 0)
(93.30178502 -0.5610599914 0)
(92.9728565 -0.4285955455 0)
(92.80582731 -0.3125816736 0)
(92.6958956 -0.1893988895 0)
(92.64439664 -0.06425538607 0)
(99.70975515 -0.9215615841 0)
(98.35287774 -0.8968309847 0)
(96.97112848 -0.8670008245 0)
(95.81926306 -0.8284515961 0)
(94.89552274 -0.7803124598 0)
(94.18015322 -0.7212019735 0)
(93.58419442 -0.6380550219 0)
(93.21712588 -0.5501967971 0)
(92.80771405 -0.4153822303 0)
(92.62697692 -0.3049932184 0)
(92.50978597 -0.1847943083 0)
(92.45440867 -0.06234072909 0)
(103.806649 -29.66416482 -2.208156204e-19)
(104.6649671 -29.24550499 -1.170256623e-19)
(108.6390826 -20.27521315 3.173358129e-19)
(95.64872869 -19.87094305 2.993706968e-20)
(103.4511665 -29.54023755 6.377868681e-20)
(97.12565175 -20.10083729 4.16971557e-20)
(102.7736512 -17.26268051 -3.346111058e-19)
(107.6886775 -20.06053159 0)
(97.24382885 -12.43779622 0)
(95.63291252 -19.11066799 0)
(107.7796697 -24.875698 8.960930718e-21)
(97.94654061 -25.23661195 0)
(98.48089807 -25.92434805 1.473692909e-19)
(99.45851846 -25.39239111 -8.661949047e-20)
(103.354114 -22.32593356 0)
(106.5669556 -24.35420363 -6.357586471e-19)
(106.0305213 -30.62688701 2.489172085e-19)
(100.9654446 -28.2544369 -3.656852183e-21)
(106.2727881 -30.7208511 1.291363485e-19)
(107.0460006 -30.42572569 0)
(109.180897 -28.09409563 0)
(100.2984418 -27.74242193 2.005120605e-19)
(98.06804588 -13.07106731 0)
(100.2564932 -12.81177782 -2.606310719e-20)
(101.8109599 -16.07866922 -4.103498748e-20)
(106.4171346 -27.13824536 5.668710464e-20)
(108.4758848 -27.89566515 0)
(106.7343606 -30.32621166 1.548135437e-22)
(100.4789794 -18.82795882 3.417982672e-20)
(102.4740067 -21.49687244 0)
(98.92600745 -24.75826941 7.777465916e-20)
(96.10981049 -15.23845113 -1.546478407e-19)
(96.17537082 -29.41774884 1.873584421e-17)
(106.9653672 -30.87014906 -1.494767406e-19)
(92.03338831 -23.71653456 2.40548102e-19)
(96.64368889 -23.01406837 6.735361291e-20)
(98.54507457 -30.18549705 0)
(100.2409203 -30.55657924 -4.069132834e-19)
(105.1348485 -30.28559795 -2.776665714e-19)
(95.98771586 -29.81891812 1.632927222e-18)
(94.00418358 -29.38607706 0)
(97.9742867 -30.23636307 -9.174874026e-20)
(96.42114308 -29.96059023 0)
(85.49576532 -27.94733179 0)
(98.69570629 -29.98216189 0)
(98.3390609 -30.28171339 8.479164708e-20)
(98.09123682 -29.16702432 -2.326710435e-20)
(98.6257682 -29.82125488 -1.464784484e-20)
(86.6755267 -28.04299617 -9.440812764e-20)
(93.1774261 -29.19836283 -8.740932099e-18)
(106.8889917 -30.86525426 2.969161437e-19)
(96.72087253 -29.61543111 1.715007707e-18)
(97.26079986 -29.87941803 3.517033577e-18)
(108.7507939 -19.33915911 -4.703025392e-19)
(108.7066788 -14.14048353 -3.541368096e-19)
(104.8066806 -30.19501902 0)
(100.4604529 -30.62415015 0)
(100.74538 -30.42312099 -1.817964269e-19)
(103.7783759 -30.43621196 0)
(106.9943992 -30.85544888 5.32608229e-21)
(108.2397073 -30.69359998 4.536755555e-19)
(109.6815877 -29.66286075 0)
(88.47699601 -28.54084303 -1.971141589e-18)
(87.65554379 -28.39744713 -1.241679207e-17)
(85.03967651 -27.84317288 0)
(89.46556182 -28.65458344 2.199536698e-18)
(88.20605854 -28.50227409 -2.855471141e-18)
(97.11479136 -27.98127564 -9.580058804e-20)
(97.84488945 -28.95022838 -1.529868638e-19)
(99.36064341 -29.62280993 0)
(100.0542124 -29.96059831 0)
(98.94730645 -29.7197772 2.627254832e-18)
(94.86036875 -29.55284187 -3.481859703e-18)
(90.78312438 -28.83101644 1.605872501e-17)
(91.34883515 -28.97214638 -1.442199585e-18)
(93.73605222 -29.40529881 4.046576073e-18)
(97.38976952 -30.14779046 2.736931846e-19)
(92.03625245 -29.15810329 -1.565818469e-19)
(93.444969 -29.45982729 0)
(91.24198868 -28.95383828 6.73539387e-20)
(90.7539639 -28.95384535 4.075108092e-19)
(96.80548476 -30.11300115 -4.037800028e-19)
(91.71723069 -29.17625554 0)
(90.87946445 -28.9457315 3.885517334e-20)
(85.8099944 -27.9914535 -1.579639711e-18)
(87.85937542 -28.24065122 1.206724229e-19)
(92.93452213 -29.20956288 0)
(92.38634935 -29.17882576 1.236806516e-19)
(96.5685605 -29.65079568 9.076555882e-20)
(101.3557451 -30.470534 -5.370576085e-19)
(101.0468442 -30.28650194 -8.170246719e-20)
(102.098075 -30.68668042 8.16227774e-21)
(101.6336521 -30.64212895 5.564432852e-19)
(96.06273668 -29.68038616 -5.607901202e-19)
(108.3377219 -12.84449088 -1.800895502e-19)
(107.0244118 -9.701422534 8.50893649e-20)
(106.553313 -8.855984764 1.66390987e-19)
(105.1614766 -6.794703722 -7.454654216e-20)
(104.722663 -6.239177064 7.468212385e-20)
(103.5205621 -4.874414297 1.708950855e-19)
(101.8841186 -27.64069255 -2.81260082e-19)
(103.841496 -25.6720252 2.704990995e-19)
(105.7491007 -26.81676595 -5.673750198e-20)
(103.4329875 -16.11593083 5.444319344e-19)
(104.3399658 -12.98796774 -3.139321752e-19)
(107.4763268 -14.00913046 3.126914536e-19)
(104.3693876 -12.05141494 2.156771756e-19)
(104.0389586 -9.596254998 -1.169293622e-19)
(106.2242138 -9.776857821 0)
(103.8382213 -8.893959321 1.235413839e-19)
(103.1078397 -7.08554147 2.46428475e-19)
(104.6320399 -6.933285548 0)
(102.8465913 -6.574114307 1.190080621e-19)
(102.0717036 -5.268633978 2.956650141e-20)
(103.158531 -5.014440896 -2.672791878e-19)
(97.16467481 -15.45954054 1.240640088e-19)
(99.2571588 -15.47866002 7.901660011e-21)
(100.0548407 -17.91875044 -1.426197874e-20)
(100.7449605 -12.4331863 2.79633103e-20)
(101.6162292 -10.92456501 -2.466484946e-20)
(103.5075872 -12.51412436 8.510526967e-20)
(101.7360591 -10.37040836 9.984356843e-21)
(101.7716811 -8.742925837 1.32240474e-20)
(103.4004824 -9.433178748 2.099081497e-19)
(101.7008158 -8.229447593 -8.284105505e-20)
(101.3449133 -6.826920445 1.939280273e-19)
(102.6338381 -7.062003118 -2.815157932e-20)
(101.1969359 -6.406090672 -5.287258055e-20)
(100.7176337 -5.287681805 -4.879385643e-20)
(101.7186353 -5.303682719 0)
(98.44163199 -9.345124173 6.71042807e-21)
(97.33180452 -11.43290604 0)
(98.97513838 -9.753336309 2.270015228e-20)
(99.64120248 -9.787421145 -1.986264363e-20)
(100.0173004 -11.92384292 -5.165939083e-21)
(99.82118046 -9.66225297 2.606560089e-20)
(100.1592621 -8.959611826 -4.119543052e-20)
(101.1581112 -10.40272189 2.572254312e-20)
(100.2072375 -8.654323772 8.997069432e-20)
(100.209428 -7.639475956 0)
(101.3206262 -8.473602403 -1.160355055e-19)
(100.16838 -7.289402013 6.150233496e-20)
(99.95186181 -6.267946484 7.149771499e-20)
(100.9612989 -6.705137844 1.736704289e-19)
(99.85891491 -5.945009637 -1.897285763e-20)
(99.5487065 -5.044997882 0)
(100.4060604 -5.245331003 0)
(99.30345706 -7.558481011 -2.099613944e-21)
(98.70950061 -8.827991103 7.930607291e-20)
(99.51084119 -7.762046283 1.013995152e-20)
(99.46702306 -7.810816031 -1.819137831e-20)
(99.57979772 -9.217743402 6.306771898e-21)
(99.45109017 -7.758850088 9.145709811e-21)
(99.36513137 -7.384474938 8.911465209e-22)
(99.91736961 -8.527109176 9.295893801e-21)
(99.32450572 -7.20612035 -7.784921973e-20)
(99.17272255 -6.569141691 -2.188226395e-20)
(99.90843912 -7.364419195 2.215088534e-19)
(99.11171455 -6.335367431 -5.041695149e-20)
(98.90190215 -5.612135756 -1.572622827e-20)
(99.65996941 -6.107985912 0)
(98.82551829 -5.371398209 0)
(98.59370258 -4.669306173 0)
(99.29017761 -4.958817385 0)
(99.76074618 -6.286125981 -4.642832916e-20)
(99.44836573 -7.204238019 -2.16029582e-20)
(99.7754403 -6.402645116 5.959192916e-20)
(99.36690869 -6.42815891 0)
(99.44053874 -7.422058439 -2.621014638e-20)
(99.2383766 -6.397821012 0)
(98.87669459 -6.168412254 -7.853696905e-20)
(99.22264152 -7.050628202 -5.566375824e-20)
(98.76700623 -6.055590487 4.586543993e-20)
(98.46946871 -5.63575158 -3.395579596e-20)
(98.97161774 -6.321336454 -1.475344494e-19)
(98.37851554 -5.475614392 -1.004419437e-20)
(98.12380412 -4.959892045 0)
(98.68462557 -5.445983109 -4.091594089e-20)
(98.04483351 -4.780845405 0)
(97.83226704 -4.238937485 0)
(98.38631477 -4.56476009 0)
(99.9773175 -5.31727031 -7.938979011e-22)
(99.83193573 -6.020130018 -7.554154811e-21)
(99.89677857 -5.390769492 1.031612307e-21)
(99.28238475 -5.395531657 0)
(99.34359413 -6.143322061 -3.934667527e-21)
(99.08536509 -5.372430049 -2.029633561e-22)
(98.54888902 -5.217900161 -1.081708032e-21)
(98.78248625 -5.90914533 3.583952372e-20)
(98.39117603 -5.141422289 -1.957919171e-21)
(97.97808456 -4.85038663 0)
(98.33013997 -5.426275118 -4.093113997e-20)
(97.85821433 -4.736277528 0)
(97.54469645 -4.357038918 0)
(97.96306023 -4.803633368 0)
(97.45469292 -4.221550547 0)
(97.22926136 -3.799904974 0)
(97.6682386 -4.128301731 0)
(100.0754978 -4.553750361 0)
(100.0093674 -5.11000737 -2.513846151e-20)
(99.96280044 -4.595585898 0)
(99.22252879 -4.58990334 0)
(99.26447424 -5.176166136 4.72018355e-21)
(98.98139218 -4.572021449 0)
(98.32370154 -4.458774109 0)
(98.48539421 -5.01258702 8.99665226e-22)
(98.12944975 -4.403388698 0)
(97.62249639 -4.190558586 0)
(97.87875359 -4.674523872 0)
(97.47716084 -4.105868534 0)
(97.10500433 -3.818911406 0)
(97.42357511 -4.216199942 0)
(97.00110746 -3.714322561 0)
(96.74805455 -3.381738684 0)
(97.09879077 -3.692302805 0)
(100.129233 -3.931187512 0)
(100.0916565 -4.386292947 0)
(99.99886593 -3.953308324 0)
(99.17511727 -3.942675292 0)
(99.21010168 -4.415208084 0)
(98.90227453 -3.927625352 0)
(98.15622704 -3.839661925 0)
(98.27747547 -4.292389678 0)
(97.934891 -3.797426845 0)
(97.35492379 -3.63510862 0)
(97.54871387 -4.042683461 0)
(97.18845955 -3.570082708 0)
(96.76363963 -3.347039777 0)
(97.01171908 -3.694855309 0)
(96.64576827 -3.264619146 0)
(96.36002258 -2.998365023 0)
(96.64325395 -3.28189553 0)
(100.1555832 -3.416018898 3.246568365e-35)
(100.1379947 -3.793444597 3.864771423e-35)
(100.0122325 -3.426649218 -3.238769896e-35)
(99.13221914 -3.412003437 0)
(99.16405276 -3.800351475 0)
(98.83651821 -3.39871589 0)
(98.0254233 -3.327297688 0)
(98.12065915 -3.702607062 0)
(97.78370166 -3.293768021 0)
(97.14676288 -3.165642982 0)
(97.2981497 -3.510328477 0)
(96.96303829 -3.114242046 0)
(96.49282586 -2.936647924 0)
(96.69018527 -3.2389292 0)
(96.36205303 -2.870406716 0)
(96.04373281 -2.653908431 0)
(96.27497147 -2.908191556 0)
(100.1632235 -2.984214519 0)
(100.158966 -3.300998709 0)
(100.0110551 -2.987739564 0)
(99.09239817 -2.970418791 0)
(99.12200552 -3.294105232 0)
(98.77980788 -2.958422098 0)
(97.91950827 -2.898594101 0)
(97.99694702 -3.213018508 0)
(97.66210181 -2.871145246 0)
(96.98024068 -2.767146999 0)
(97.10176094 -3.059882026 0)
(96.78244152 -2.725505481 0)
(96.27368237 -2.581082598 0)
(96.43378723 -2.842886425 0)
(96.13140798 -2.526877064 0)
(95.78254867 -2.348168844 0)
(95.9738251 -2.573566332 0)
(100.1582516 -2.619177478 -4.173324223e-35)
(100.1629756 -2.887230467 4.911078715e-35)
(100.0003845 -2.618157247 4.16369405e-35)
(99.05509226 -2.599196232 0)
(99.08284963 -2.871610267 0)
(98.72978155 -2.588238329 0)
(97.83139569 -2.536986782 0)
(97.89602049 -2.802439354 0)
(97.5616599 -2.513985685 0)
(96.84388129 -2.427658339 0)
(96.94367346 -2.677150911 0)
(96.63455226 -2.393221387 0)
(96.09318503 -2.273621666 0)
(96.22534624 -2.499959159 0)
(95.94081562 -2.228556398 0)
(95.56412659 -2.0790235 0)
(95.72434475 -2.277261725 0)
(100.144807 -2.308905388 0)
(100.1555536 -2.536869873 0)
(99.9834577 -2.304984809 0)
(99.02001982 -2.285104867 0)
(99.04612325 -2.515748151 0)
(98.68499811 -2.275022383 0)
(97.75657941 -2.230378364 0)
(97.81158353 -2.455578059 0)
(97.4769684 -2.210749793 0)
(96.73005015 -2.137779942 0)
(96.81355004 -2.350860343 0)
(96.51120118 -2.108804692 0)
(95.94222307 -2.008198646 0)
(96.05296804 -2.203546453 0)
(95.78105354 -1.970208075 0)
(95.37935809 -1.843556724 0)
(95.51508466 -2.016860851 0)
(100.1257936 -2.044419238 -1.366253242e-35)
(100.1404838 -2.238791254 -1.599252082e-35)
(99.96246108 -2.038689652 1.363218714e-35)
(98.98698423 -2.018385792 0)
(99.01157677 -2.214306946 0)
(98.64447655 -2.009058622 0)
(97.69201177 -1.969648816 0)
(97.73957323 -2.161199333 0)
(97.40436075 -1.952648089 0)
(96.63347043 -1.890027325 0)
(96.7044562 -2.072149259 0)
(96.40668664 -1.865285265 0)
(95.81423942 -1.779493673 0)
(95.90828631 -1.947770875 0)
(95.64541378 -1.747068256 0)
(95.22140894 -1.638611722 0)
(95.33758789 -1.789352817 0)
(100.1032538 -1.818863729 0)
(100.1204241 -1.984612893 0)
(99.93891833 -1.812057753 0)
(98.95582199 -1.791678064 0)
(98.97902441 -1.958205782 0)
(98.60750049 -1.783007887 0)
(97.63553245 -1.747823404 0)
(97.67720427 -1.910781986 0)
(97.34124059 -1.732907181 0)
(96.55037917 -1.67845026 0)
(96.61155597 -1.833947499 0)
(96.31691893 -1.65704488 0)
(95.70442034 -1.582979311 0)
(95.78524127 -1.727509093 0)
(95.52892824 -1.554988579 0)
(95.08508303 -1.461156909 0)
(95.18547917 -1.591585204 0)
(100.0786577 -1.626877092 0)
(100.0972496 -1.767901683 0)
(99.91391132 -1.619489799 0)
(98.92637002 -1.599271618 0)
(98.94830513 -1.740553947 0)
(98.57350525 -1.591172018 0)
(97.58552578 -1.559429849 0)
(97.6224779 -1.697776981 0)
(97.28567596 -1.546185548 0)
(96.47798023 -1.498241415 0)
(96.53136991 -1.630623015 0)
(96.23884987 -1.479495525 0)
(95.60911533 -1.414806577 0)
(95.6793557 -1.53841503 0)
(95.42780286 -1.390380242 0)
(94.96631955 -1.308391794 0)
(95.05388652 -1.420578993 0)
(100.0530761 -1.46423967 0)
(100.0723199 -1.58360619 0)
(99.8882115 -1.45659929 0)
(98.89844969 -1.436688416 0)
(98.91925272 -1.555978717 0)
(98.54201665 -1.429077213 0)
(97.54073128 -1.400135665 0)
(97.57388078 -1.517022731 0)
(97.23617187 -1.388235488 0)
(96.41412725 -1.345510304 0)
(96.46128691 -1.457613334 0)
(96.17013746 -1.328895346 0)
(95.52548845 -1.271741956 0)
(95.58720823 -1.376796648 0)
(95.33907361 -1.250193076 0)
(94.8618844 -1.177824795 0)
(94.93897872 -1.273603995 0)
(100.0272641 -1.327591847 0)
(100.0466212 -1.427757928 0)
(99.86235266 -1.319909379 0)
(98.87186365 -1.300372368 0)
(98.8916865 -1.400269706 0)
(98.51260584 -1.293167954 0)
(97.50012869 -1.266479882 0)
(97.53022355 -1.364438148 0)
(97.19153109 -1.255655267 0)
(96.35712504 -1.21710423 0)
(96.39929318 -1.311238519 0)
(96.1089327 -1.202195811 0)
(95.45128321 -1.151096783 0)
(95.50613234 -1.239573929 0)
(95.26037017 -1.131868868 0)
(94.76913987 -1.067295568 0)
(94.83769765 -1.148260735 0)
(100.001739 -1.214203717 0)
(100.0208401 -1.297159303 0)
(99.83668058 -1.206608055 0)
(98.84638387 -1.187447313 0)
(98.86539937 -1.270048099 0)
(98.484867 -1.180567645 0)
(97.46285918 -1.155654679 0)
(97.49052944 -1.236730714 0)
(97.15075841 -1.145679172 0)
(96.3055886 -1.110436502 0)
(96.34377701 -1.188489523 0)
(96.05372746 -1.096886018 0)
(95.38465318 -1.050628315 0)
(95.4339799 -1.124166756 0)
(95.18974588 -1.033265984 0)
(94.68586446 -0.9749926852 0)
(94.74751239 -1.042459664 0)
(99.97686457 -1.121842662 0)
(99.9954479 -1.189220936 2.175102155e-36)
(99.81140355 -1.114410011 0)
(98.82177046 -1.095584417 0)
(98.84015871 -1.162588381 0)
(98.45842246 -1.088948181 0)
(97.42819208 -1.065388569 0)
(97.45397476 -1.131239971 0)
(97.11301607 -1.056068161 0)
(96.25837184 -1.02340146 0)
(96.29342026 -1.086910958 0)
(96.00327705 -1.010915673 0)
(95.32408467 -0.9684811814 0)
(95.3689966 -1.028440207 0)
(95.12561221 -0.9526040859 0)
(94.61032926 -0.8994017346 0)
(94.66631814 -0.9545083555 0)
(99.95289213 -1.048665906 0)
(99.97078037 -1.101813419 0)
(99.78663846 -1.041433165 0)
(98.79778541 -1.02288454 0)
(98.81572424 -1.075678354 0)
(98.43291954 -1.016416726 0)
(97.39549051 -0.9938363362 0)
(97.41985546 -1.045809293 0)
(97.07757918 -0.9850020802 0)
(96.21448995 -0.9542762046 0)
(96.24712438 -1.004500385 0)
(95.95651053 -0.9425998589 0)
(95.26826087 -0.9030887972 0)
(95.30973274 -0.9506169661 0)
(95.06658016 -0.8883520618 0)
(94.54099902 -0.8390437237 0)
(94.59247852 -0.8828999594 0)
(99.92993801 -0.9932254492 7.877703288e-36)
(99.94705771 -1.033191975 0)
(99.76243754 -0.9861980369 -7.862797652e-36)
(98.77420735 -0.9678575137 0)
(98.79186082 -1.007522603 0)
(98.40803989 -0.9614864535 0)
(97.36419644 -0.9395489113 0)
(97.38755556 -0.9786953286 0)
(97.04381512 -0.9310510748 0)
(96.17308172 -0.9017041197 0)
(96.20393757 -0.9396273539 0)
(95.91248686 -0.8906108206 0)
(95.21598823 -0.853220077 0)
(95.25490362 -0.8892068104 0)
(95.01136426 -0.8393127875 0)
(94.4761991 -0.7928355283 0)
(94.52443223 -0.8261470671 0)
(99.9079782 -0.9544239547 -2.569122026e-36)
(99.92435884 -0.9820005495 0)
(99.73876049 -0.9475868878 2.564338761e-36)
(98.75082345 -0.9293467326 0)
(98.76835197 -0.9567191618 0)
(98.38349272 -0.9230102894 0)
(97.33380872 -0.9014091637 0)
(97.35653324 -0.9285367058 0)
(97.01115677 -0.8931121242 0)
(96.13337614 -0.864638388 0)
(96.16302411 -0.8910186601 0)
(95.87036488 -0.8539253504 0)
(95.16621733 -0.8179442522 0)
(95.20334916 -0.8430645313 0)
(94.95885056 -0.8045978411 0)
(94.41467925 -0.760076054 0)
(94.46055781 -0.7833836817 0)
(99.88690098 -0.9315094834 0)
(99.90263444 -0.9472283731 0)
(99.71547365 -0.9248322673 0)
(98.72739413 -0.9065441322 0)
(98.74498131 -0.9221977577 0)
(98.3589839 -0.900167412 0)
(97.3038575 -0.8786054351 0)
(97.32629849 -0.894296511 0)
(96.97907486 -0.8703811644 0)
(96.09466798 -0.8423058957 0)
(96.12363313 -0.8576990121 0)
(95.82937838 -0.8317846461 0)
(95.11800236 -0.7965536383 0)
(95.15405421 -0.8113181808 0)
(94.90803634 -0.7835165791 0)
(94.35529171 -0.7401099865 0)
(94.39967247 -0.7538747734 0)
(99.86432609 -0.9236374501 -6.895812539e-38)
(99.88180265 -0.9282209176 0)
(99.68966763 -0.9173307263 6.886754574e-38)
(98.70075675 -0.8988701429 0)
(98.7215548 -0.9032289865 0)
(98.33115431 -0.8923357273 0)
(97.27023789 -0.8703683577 0)
(97.29642958 -0.8752277847 0)
(96.94318713 -0.8620598123 0)
(96.05170051 -0.8338732548 0)
(96.08510827 -0.8389526425 0)
(95.78396587 -0.8233557663 0)
(95.06478805 -0.7882214018 0)
(95.10612309 -0.7933098737 0)
(94.85200637 -0.775232808 0)
(94.28991785 -0.7319022047 0)
(94.34066962 -0.7370302966 0)
(104.1377159 -29.88354808 3.757183656e-19)
(103.4903136 -30.1956966 2.834615474e-19)
(103.1858747 -30.02460159 1.77896368e-19)
(105.3678915 -28.54329501 4.091628008e-19)
(106.0808292 -28.8511023 -4.55603087e-19)
(105.3770036 -29.56317429 0)
(111.6929069 -20.88423079 0)
(111.7841471 -24.58701228 -2.199474223e-19)
(108.1232408 -23.66203009 -1.434591043e-19)
(96.33040134 -22.20994685 8.290508382e-20)
(91.96648362 -22.66038081 1.342643285e-19)
(100.7201094 -30.32741035 8.457252441e-20)
(100.2351342 -29.8490118 -1.358796175e-19)
(102.3441732 -29.18473686 0)
(98.51032815 -19.77154758 1.422803646e-20)
(99.0161283 -20.98317317 7.13661816e-20)
(97.2985903 -21.99249186 0)
(104.4981122 -18.32231397 8.506400619e-20)
(103.1493322 -20.63414336 -2.869665929e-19)
(101.1779397 -18.3135082 0)
(106.987585 -23.19959776 2.490554825e-19)
(103.9891877 -21.36335493 3.412360278e-19)
(105.2294802 -18.71696288 -4.278830922e-19)
(96.42178114 -14.39104275 0)
(95.45281149 -17.37048248 -1.668803695e-19)
(109.0387129 -25.31558724 -7.613436769e-20)
(108.8225189 -27.19217449 0)
(106.8026806 -26.45167593 -4.829189537e-19)
(109.5106116 -27.37034093 0)
(110.0696286 -25.21096464 -6.475344288e-19)
(108.7051018 -30.77356665 -4.875553492e-19)
(109.5561872 -30.50386424 4.777839585e-19)
(96.77068994 -25.69777728 -1.96882143e-20)
(96.28403228 -24.93064323 -6.399780231e-20)
(97.45737141 -24.5291265 8.886346633e-21)
(99.05485784 -26.57524188 -2.02598506e-21)
(97.86778625 -27.10568989 7.604199452e-22)
(97.3013759 -26.42159682 -2.759039852e-20)
(101.5417727 -23.81511922 -2.319554812e-19)
(103.2340444 -25.3068532 4.658595473e-21)
(101.236641 -27.13713911 2.375361709e-19)
(104.3350778 -23.09040095 3.731076485e-19)
(103.6245424 -24.15679315 -9.170443022e-20)
(102.5645877 -23.2999431 5.289903631e-20)
(106.1681746 -26.15946194 0)
(104.7906057 -24.93736352 6.399880698e-19)
(105.4108921 -23.76784573 -3.001613273e-19)
(104.832931 -30.83762069 0)
(104.7247482 -30.78038387 -3.609014023e-19)
(105.7595513 -30.53185534 4.80154234e-19)
(93.47295312 -29.10825208 -8.177663971e-20)
(93.24664459 -29.21104933 0)
(88.28874471 -28.29209208 0)
(101.6524453 -28.7412328 7.729698098e-20)
(100.0061546 -29.66450253 0)
(99.16522065 -28.97106587 -1.090805367e-20)
(106.5107826 -30.80561477 5.465735043e-19)
(104.8549626 -30.95136219 -5.704371292e-21)
(104.8561503 -30.88906365 -4.024225711e-19)
(108.245725 -29.57954759 8.08899753e-20)
(108.9684925 -29.75606775 4.370646332e-19)
(107.9774326 -30.65250096 5.808221716e-19)
(109.8978333 -28.26510111 1.6591797e-19)
(109.5052243 -29.01994085 -4.384683729e-19)
(108.7786077 -28.83866147 0)
(110.2290913 -29.17817567 2.810196172e-19)
(110.6174592 -28.41396202 1.773613777e-19)
(99.09313902 -28.35666461 -1.50079558e-19)
(98.46827193 -27.75698047 3.0615966e-20)
(99.66034438 -27.18485032 1.776996812e-19)
(93.97144176 -28.74924304 -3.043257999e-20)
(93.73508949 -28.92461769 2.643639852e-20)
(95.70035718 -26.90971947 -2.623157752e-20)
(96.82180908 -27.70228751 -6.494080775e-20)