/*--------------------------------*- C++ -*----------------------------------*\
| =========                 |                                                 |
| \\      /  F ield         | OpenFOAM: The Open Source CFD Toolbox           |
|  \\    /   O peration     | Version:  v2012                                 |
|   \\  /    A nd           | Website:  www.openfoam.com                      |
|    \\/     M anipulation  |                                                 |
\*---------------------------------------------------------------------------*/
FoamFile
{
    version     2.0;
    format      ascii;
    class       volScalarField;
    location    "0.7";
    object      nut;
}
// * * * * * * * * * * * * * * * * * * * * * * * * * * * * * * * * * * * * * //

dimensions      [0 2 -1 0 0 0 0];


internalField   nonuniform List<scalar> 
3259
(
1.026666489
1.017914585
1.10801147
1.156498088
1.156336508
1.156210034
1.1561057
1.156062984
1.155823369
1.155828166
1.155851624
1.155877633
0.9479337604
0.9307771169
0.9893174622
1.143972759
1.156941323
1.156182182
1.155611871
1.155331725
1.15498412
1.154979954
1.155039811
1.155118228
0.728431573
0.7287344612
0.7846444183
0.909661882
1.119342425
1.156725078
1.155442402
1.154782521
1.154214916
1.154162035
1.154229406
1.154352429
0.4912212939
0.5003056313
0.5570081918
0.6619608143
0.832024845
1.109533578
1.15588884
1.15457151
1.153585639
1.153405586
1.153447367
1.153600097
0.2916367524
0.3088570111
0.3706192364
0.4679624871
0.6138850063
0.8465361074
1.157326621
1.154831127
1.153180029
1.152719348
1.152676106
1.152831469
0.147526003
0.1722007014
0.2392742954
0.3339208945
0.4646189526
0.6626381395
0.9865218289
1.155678985
1.152974338
1.152104863
1.151918809
1.152049712
0.05413563231
0.08612684086
0.1583622081
0.2497912028
0.3691758209
0.5395192953
0.8363337448
1.157126661
1.153012684
1.15157684
1.151162995
1.151231177
0.04981856489
0.121637356
0.2061030238
0.3154028688
0.4691024203
0.7365447776
1.101615791
1.153312603
1.151166972
1.150437191
1.15041225
0.06200385385
0.1201131513
0.1947675094
0.2938392357
0.4343682161
0.6819454437
1.015031252
1.153892033
1.150918832
1.149804046
1.149651263
0.08789281654
0.1375453839
0.2053075029
0.2989357336
0.4319999501
0.6593523631
0.9605231599
1.154748962
1.15091483
1.149360245
1.149056061
0.1198645941
0.1671830843
0.2322554845
0.3203022249
0.4444968399
0.662633984
0.9331102203
1.155839434
1.151181802
1.149178489
1.148707898
0.1570205384
0.2088862587
0.2754756666
0.3625983124
0.4824260799
0.6901492415
0.9355444696
1.157187704
1.151758069
1.149316004
1.148677434
0.05544636505
0.04285490412
0.08093266094
0.05852344184
0.1135499348
0.0847729378
0.1440124337
0.1183505254
0.1479901078
0.05449650263
0.04420225207
0.08188524388
0.02795343016
0.01856082701
0.05939366764
0.1019081237
0.1030510615
0.02576628915
0.03863147409
0.08445810371
0.1182353542
0.1045375276
0.04555110462
0.03210192113
0.1157622343
0.1463132255
0.1243479174
0.0869784032
0.06291952845
0.01526360236
0.1351186984
0.1190303233
0.03967661069
0.0292731456
0.04692921115
0.03099716367
0.04932178519
0.03177427359
0.02561989223
0.07014786421
0.0383478312
0.04358955916
0.05043033194
0.03855582886
0.06857695785
0.05976264313
0.04670343021
0.1011601906
0.06529874563
0.08452985674
0.04404269718
0.06274010452
0.09685766048
0.115318749
0.09077261499
0.0127181088
0.0121722112
0.1372139143
0.01684148144
0.01419263372
0.008193568104
0.010153207
0.1500957368
0.1833703351
0.1547399356
0.01231685667
0.0486330028
0.04206417379
0.02126613473
0.02927602527
0.04526456384
0.04076773633
0.02969389039
0.1326996312
0.112491727
0.1314575014
0.087658215
0.1093201284
0.1295735756
0.02156656232
0.01870910929
0.02855976147
0.02062984089
0.01384800217
0.02217550674
0.01782082144
0.009729357193
0.01553487867
0.02105211222
0.03308790935
0.03366632893
0.0388269746
0.03788444631
0.01556710074
0.01041300436
0.07614071595
0.01319267647
0.02353723635
0.009951316221
0.01181121139
0.07259567913
0.06246355696
0.05216281206
0.01195917854
0.04040322383
0.03949509249
0.03043002778
0.0301910512
0.04136341887
0.06830386017
0.0636383985
0.0747005835
0.07000193866
0.04161486947
0.04633300185
0.05564618847
0.05041624263
0.06196750041
0.0571153826
0.04546514263
0.05632086092
0.009823317538
0.05515031193
0.02497477657
0.0359315103
0.1016782516
0.02786092953
0.01670042061
0.008161258465
0.06617901411
0.003726967196
0.01605653249
0.01291327329
0.005836305788
0.01197970819
0.01121302183
0.009015214386
0.008293024253
0.01204659226
0.008563603334
0.02792359
0.01180257883
0.01113866342
0.03612940217
0.04226421153
0.01199245626
0.01655513185
0.008570227701
0.008731711335
0.03360590387
0.04542716628
0.01337588868
0.01190471447
0.03816537088
0.04190616457
0.03739027317
0.04872880683
0.04352306374
0.04011884087
0.03108313311
0.008574770159
0.008556159722
0.02677246187
0.01757541997
0.01914084693
0.05000465304
0.0729307142
0.1015142219
0.09398257114
0.04972943119
0.08224243045
0.07662765311
0.09124503042
0.084435721
0.05078420159
0.1053802592
0.03785777808
0.0521579897
0.01232523317
0.01196588074
0.006378486516
0.01153978
0.0101423663
0.009937602796
0.02346216522
0.01788858001
0.007977334462
0.01089178197
0.00698809282
0.01143670416
0.01097726583
0.01217522985
0.03441559999
0.01113314397
0.0110647437
0.01328980449
0.02150312648
0.01785291513
0.02446495651
0.02229378286
0.01733102341
0.01542313787
0.01233721624
0.01020231413
0.007981136726
0.0295892697
0.03552163936
0.01091813116
0.01029683389
0.0112873296
0.01174926776
0.04118084816
0.008973988656
0.008844594499
0.01020679259
0.009068538812
0.008782887555
0.03461471874
0.008600084629
0.01115096791
0.01166078236
0.01089374459
0.01718492481
0.0434950209
0.03905231942
0.01037177391
0.0315678232
0.0270647188
0.03747737
0.03332009868
0.01049880912
0.01184338354
0.03053123098
0.02561520463
0.01885380279
0.01786034323
0.04512819102
0.01298837472
0.01294776411
0.01006287586
0.01881250719
0.02236385906
0.01336086802
0.01898831788
0.03463311618
0.02605973914
0.01976232105
0.00874589256
0.008622947553
0.03088899489
0.02793815432
0.008508560373
0.008782260079
0.02013239646
0.01717391409
0.02576058317
0.02171352514
0.006607831043
0.01118604629
0.01057688108
0.01604861145
0.01144835545
0.007377405898
0.02328843137
0.01105295729
0.01092185709
0.01073845478
0.02171183174
0.0124079525
0.051040769
0.1077106154
0.1382984677
0.01188685772
0.01138023866
0.1947091687
0.007838886711
0.1359682348
0.1419223503
0.1597310359
0.004669862072
0.007053566869
0.005229056482
0.00486090679
0.005576176054
0.004365993845
0.05428189089
0.03386713035
0.02154483127
0.02466543415
0.02297954394
0.02644764746
0.03665890321
0.03214985965
0.01215098497
0.05564647865
0.06617584723
0.1277597142
0.02690207799
0.02700797227
0.03284238417
0.01227510984
0.01200136283
0.01263309102
0.01242553226
0.03793717871
0.01387593286
0.01031092582
0.01159574861
0.01149133072
0.01223087647
0.01974779073
0.02453040568
0.04856422332
0.03597916043
0.03280197385
0.02417027217
0.03602056906
0.0134127239
0.01789923576
0.0220789979
0.01402893234
0.009782093992
0.01608161637
0.01853407879
0.01732804837
0.01238248238
0.0155831692
0.01431797482
0.01054365004
0.01084617231
0.006902543144
0.01037690424
0.01039985509
0.04960802502
0.04490802739
0.01869588373
0.009896385205
0.01186403406
0.01103295488
0.01187481271
0.01290069532
0.01203217756
0.009538687665
0.009499490709
0.01082892323
0.01048602634
0.009783833279
0.00933430041
0.006519966798
0.05113027107
0.0199097293
0.02429324622
0.01195606189
0.0120464766
0.01200583696
0.01133285127
0.01137103644
0.013809359
0.006300796255
0.004094522873
0.007322120853
0.01141484946
0.01162731406
0.01150405008
0.01122046642
0.01164982975
0.01107926801
0.009835596345
0.00645464294
0.005204014834
0.01012484543
0.01043361594
0.009750208024
0.009873952509
0.011524444
0.01761348503
0.01783825789
0.01726243758
0.01744261871
0.01140258909
0.008587940232
0.01310059284
0.01309289848
0.0135373433
0.01320115056
0.008542911286
0.01267616124
0.01985263401
0.02207278112
0.01810759082
0.0186796154
0.01227724071
0.008575540361
0.01312209178
0.01313839156
0.01306617054
0.0131092388
0.008565309295
0.009443795441
0.009606595135
0.009153844866
0.009554189575
0.01234028807
0.008628161485
0.01229238352
0.01208211826
0.008563990388
0.01057453475
0.01122042774
0.01441900119
0.004877117498
0.009137289147
0.006901560935
0.007379423848
0.007720906724
0.01020063319
0.006718104111
0.01171860776
0.0115655479
0.01170450504
0.008084222055
0.01147117855
0.007539515539
0.011393344
0.01656817376
0.01843369364
0.01604090547
0.02493187763
0.02043699182
0.01575888222
0.01478255028
0.01606040215
0.009738945407
0.01552477408
0.01643420661
0.01115133969
0.01546431519
0.01034889606
0.01073096316
0.01691461285
0.01707393392
0.0165179564
0.01675553893
0.01057114039
0.01147807171
0.01969451973
0.01934136324
0.008961635351
0.008900660604
0.009438773198
0.006604399075
0.009029653896
0.008944641599
0.00865600659
0.007114784664
0.009500521784
0.01627573575
0.01451893287
0.01882090051
0.01784461387
0.01052480964
0.01044461074
0.01062256069
0.01282333995
0.007069699221
0.01074769992
0.01052614238
0.01080785493
0.01043274134
0.01056869905
0.01491540447
0.01332196995
0.01001724703
0.01877929061
0.0271139407
0.02752929521
0.02462335876
0.02546952422
0.01771946959
0.01219224573
0.01307588155
0.02010653158
0.01410206795
0.01344667096
0.01510352408
0.01434914619
0.02038842219
0.01377490855
0.01435541353
0.01128004666
0.01468146735
0.008669612475
0.01322527898
0.01326385561
0.01317715248
0.01321625197
0.008651788619
0.008796450446
0.01236353308
0.01079094285
0.01321479834
0.01300818066
0.008814479415
0.009577459034
0.009660423092
0.00959037852
0.01026760014
0.009807250638
0.01092088797
0.009323805062
0.009364434419
0.009147633048
0.009233768877
0.01084428963
0.01437603286
0.009603878533
0.01023502602
0.009438034209
0.009331214854
0.01247670661
0.01115954011
0.01105079224
0.01092631094
0.0126400889
0.0115354909
0.01119536458
0.01078001562
0.01086848146
0.01072752537
0.01081792728
0.007265259998
0.01244083449
0.815925926
0.9558007871
0.8006855147
0.7790438285
0.9290484425
0.7838890174
0.8232399985
0.9760425839
0.8406978914
0.9386279762
1.121925848
0.9720477167
1.136524943
1.157168695
1.157957926
1.156796623
1.156343387
0.553968654
0.7506603323
0.5491889052
0.5492328717
0.7238784557
0.5555423877
0.5932333037
0.7663459531
0.6118129105
0.6881943535
0.8739456581
0.7202152522
0.8461759062
1.061887047
0.9005511454
1.09517895
1.157083336
0.3426264437
0.4963090791
0.3361175497
0.3435956541
0.4935468979
0.3516656166
0.3922696485
0.5384943292
0.4108187668
0.4815477156
0.6310026941
0.5093570626
0.61951844
0.7826377779
0.6625435997
0.8223677466
1.024321112
0.1836165647
0.3019543181
0.1802307669
0.1908087625
0.2999517348
0.20126503
0.2477506519
0.3517782098
0.266580499
0.3358896891
0.4379790855
0.3624819291
0.4582061098
0.5725086884
0.4961875551
0.6370314978
0.7684125418
0.06504304908
0.150841455
0.06497770676
0.09120592256
0.1606791838
0.102742424
0.1546795939
0.2198573193
0.174486461
0.2414636593
0.3074909669
0.2668280367
0.3539039294
0.4276853395
0.3881362404
0.5144027819
0.6019548527
0.02664133036
0.03478690482
0.05850382392
0.06676857948
0.08840208783
0.1031544215
0.1268223322
0.190099524
0.2250361497
0.2137241071
0.2944531418
0.3355581889
0.3257096353
0.4384869143
0.4908091516
0.05098783021
0.0725965846
0.07482836552
0.1182601388
0.1739120547
0.18308305
0.1950904473
0.2683290296
0.2848934792
0.2967915532
0.3998424452
0.4247762824
0.07159650526
0.08694263916
0.08034730842
0.1318037492
0.1806231227
0.1741650715
0.1999673058
0.2689189972
0.2661634258
0.2959831523
0.3958136187
0.3938074499
0.09940442433
0.1136587502
0.1030085011
0.1587192406
0.2059429916
0.1865115845
0.2241128576
0.2878464863
0.2716125461
0.3125246177
0.4020795866
0.3977011822
0.1323918638
0.1484561926
0.1348700171
0.1970657165
0.2446868548
0.2141123119
0.2629348447
0.3256261988
0.2956768233
0.3502784972
0.4362882917
0.4097375735
0.1656006795
0.1823941187
0.1707810279
0.2572365747
0.3381679394
0.4486453311
0.05222402057
0.04624731947
0.05102129184
0.03611946408
0.03628226945
0.04285307455
0.07743208931
0.07274631599
0.07729749762
0.05264865058
0.05827410935
0.06102671574
0.1095374939
0.1069679999
0.1112184995
0.0795923452
0.08440970738
0.088619576
0.1409671288
0.1373995794
0.1397349027
0.1153012989
0.1193600576
0.1224856561
0.142355999
0.1453554777
0.1511837133
0.002962589771
0.003717147702
0.00382705159
0.02832912419
0.003065482015
0.002732076234
0.04628064977
0.03919761968
0.03672758285
0.06318775208
0.03946922892
0.05954667565
0.02706518859
0.02648092682
0.02771512787
0.01603824133
0.01636802778
0.01893853392
0.07753133673
0.07397196037
0.0524193159
0.1005974957
0.08563077121
0.08785252129
0.08678917054
0.08515935947
0.1008530814
0.02609285353
0.0161244669
0.01594593122
0.02692209858
0.02634763501
0.03763942983
0.09895792331
0.09035976339
0.0738949768
0.1128115887
0.1011646798
0.1070687826
0.09141441993
0.0959122905
0.1082300691
0.04439990499
0.03422969527
0.0355248688
0.0220739102
0.02222088013
0.03244275679
0.1302954504
0.1180322011
0.1034534177
0.1384325842
0.1284895973
0.1365457096
0.1135691758
0.1208477639
0.131088304
0.0833900379
0.05999189141
0.06348410028
0.03701159697
0.04118746579
0.06595805843
0.02285455738
0.0209875465
0.01397002418
0.1307949662
0.07002210545
0.08151675147
0.09773311423
0.101504788
0.1216302101
0.04121135644
0.02861720365
0.02754242299
0.02907009003
0.03026045221
0.03016918897
0.04029089178
0.04461069337
0.0495285318
0.03302630345
0.03427176614
0.03244038356
0.0468008593
0.04469120542
0.04621797975
0.03153096165
0.02186674655
0.02192807847
0.01587094202
0.01583488467
0.02565596373
0.06571325415
0.06977455935
0.07769629189
0.03897771813
0.06943280975
0.0640174716
0.07536174352
0.07453198087
0.0425443553
0.05021361651
0.05136337301
0.04903800437
0.06277628145
0.05947448722
0.0407089368
0.06159272644
0.05911736129
0.06385003382
0.05691175259
0.03117620772
0.03558111098
0.03668493604
0.03766462198
0.04779973314
0.09682330655
0.1027678288
0.1055040642
0.06761967731
0.09177918716
0.08959357286
0.1094554845
0.104200817
0.07599520827
0.04583642298
0.07744946083
0.07622737259
0.08749192859
0.08544962775
0.05491042285
0.09264099051
0.08732941354
0.09308338424
0.1123698253
0.08977072442
0.09364463896
0.06678330395
0.07036390241
0.09440057529
0.08568903119
0.02497053406
0.007147003423
0.008917716005
0.008789432702
0.1596883749
0.1559999014
0.1363902361
0.1730380791
0.1631133257
0.1728625621
0.1449996699
0.1535414855
0.1637295611
0.04549334657
0.02627890292
0.03116548262
0.03501487383
0.03606365163
0.04396583704
0.02307039891
0.03151429535
0.03119447586
0.03072257785
0.02922688979
0.02750181471
0.04369429182
0.03655750644
0.03864071696
0.03907275987
0.03176285795
0.03318590412
0.02168009504
0.02337240082
0.03111198686
0.1312975198
0.1349050825
0.1365088177
0.1212398998
0.1295258063
0.1305839378
0.1369954538
0.1336024295
0.1242858481
0.09695439128
0.1178222751
0.1132389263
0.1264951134
0.1202227725
0.1002086991
0.1261029821
0.1233669905
0.1270732368
0.01171753906
0.01936978646
0.01652396658
0.01594057535
0.02581193281
0.01612793484
0.02462211969
0.01130427039
0.01422147757
0.02296216284
0.01910429903
0.02198965907
0.02365871022
0.01103825968
0.014823632
0.01332899427
0.01625360597
0.01480549644
0.01503684325
0.01962566442
0.01752671835
0.01846913811
0.02380532812
0.02288324167
0.03223753645
0.03430998883
0.02451580145
0.02401154264
0.0290389518
0.02964142502
0.03953905853
0.03692724196
0.02717106555
0.02825996695
0.05362619119
0.05682028376
0.07965072022
0.01480495959
0.02261307973
0.02095397994
0.03172333035
0.0304242024
0.02212571319
0.01922351205
0.01787151806
0.01097467229
0.06945774814
0.04288717144
0.04536009612
0.05894532685
0.04315639435
0.04626943718
0.03294409166
0.03622301464
0.05538501473
0.03876798355
0.03839696258
0.04215140738
0.03847936681
0.03694972592
0.03750427805
0.02159236683
0.02162663457
0.03057601226
0.02978784384
0.02107177758
0.02144355209
0.07042499057
0.06878457263
0.03972132633
0.06685860618
0.06746279398
0.06931901172
0.06330133403
0.06419688972
0.06522542238
0.07311401305
0.0741834856
0.07582954207
0.07092891343
0.07255596425
0.07153521958
0.0422630255
0.07392353642
0.07226616983
0.05609908287
0.0537237548
0.04915636721
0.05392366636
0.05292035374
0.0548282069
0.04910511705
0.05100411973
0.05218112078
0.06046254441
0.06114517889
0.06201124237
0.05656605505
0.05915345748
0.05875751971
0.04198996612
0.05986343195
0.05843224148
0.02573826105
0.02954783151
0.06328205473
0.05367003521
0.04321774582
0.04433047123
0.0297266137
0.05038139995
0.05070550234
0.05692383025
0.05370073671
0.03132122364
0.09815986257
0.07410873433
0.0778976711
0.02629973034
0.01794480742
0.01976473198
0.01092781242
0.01156968568
0.01817401273
0.04968814166
0.01472897676
0.01139951097
0.01160048636
0.01042685138
0.008022794587
0.005489272356
0.008891502758
0.01234430026
0.00695087184
0.008221987769
0.008475467859
0.00728350798
0.007035987741
0.0103663962
0.007439995579
0.01024902799
0.005358795648
0.006460749077
0.009191563182
0.01762140666
0.01657533502
0.02674881793
0.03692119087
0.02595956101
0.02549556763
0.03176262474
0.03291194815
0.04325913551
0.01312172002
0.02217842935
0.02105862071
0.02526223884
0.02371293846
0.01496697581
0.03294958906
0.02253949636
0.02309110597
0.03253082675
0.03017786437
0.04303955588
0.03906753118
0.03639652172
0.03508673464
0.04034528835
0.03789574864
0.03965768482
0.03444992855
0.03610322488
0.03890021654
0.04701936397
0.04537579653
0.04724438277
0.04139157069
0.04339228827
0.0453123183
0.04477030486
0.04262998615
0.04074878242
0.02173422156
0.02178236606
0.03128088319
0.02595787321
0.01608786774
0.01691137479
0.01816398238
0.02748301231
0.02653839021
0.02921171158
0.02837906616
0.0186596533
0.04887060444
0.03864775166
0.03957336309
0.09639455904
0.09405071839
0.07037071983
0.09919257119
0.09870479117
0.1012309662
0.09362536608
0.09615796772
0.09638710501
0.08038524515
0.07873511219
0.04678390833
0.0804124217
0.08100945204
0.082756813
0.07754659279
0.07928220544
0.07841003283
0.08896650856
0.08882703245
0.09118161158
0.08462583407
0.08671913758
0.08649869568
0.05329754655
0.08373338832
0.08189450575
0.0818128384
0.08571531677
0.1086688521
0.04115109722
0.06386146269
0.06048409439
0.07126564188
0.06747585929
0.04893433161
0.01003236159
0.009938018889
0.01264220895
0.02177409557
0.0143814156
0.01561618358
0.01229195239
0.01320267426
0.01981237078
0.007052239671
0.01095483523
0.01548455332
0.01401960893
0.01891468011
0.01708392666
0.01135032459
0.03310472346
0.02510001372
0.0268709941
0.02022267738
0.01983942569
0.02099521721
0.01714514556
0.01861613659
0.01903628325
0.0212539178
0.02046522922
0.02346719814
0.01639241746
0.01500985657
0.01625281025
0.01407727211
0.0143731149
0.01571760113
0.01360520108
0.01340535007
0.01274102153
0.03107073688
0.02197687628
0.0197531679
0.02518594407
0.02476157753
0.03482881096
0.02042125361
0.0200041785
0.01147262834
0.04042987223
0.03023701295
0.03090508959
0.0242087125
0.02570230773
0.03571735194
0.02546143436
0.02415492442
0.01610237085
0.04203249258
0.03293022064
0.03437885462
0.02961548771
0.03124616085
0.0405029629
0.03011131483
0.02115056334
0.02269782984
0.01824965744
0.01950318868
0.0283772182
0.0362385284
0.02650927822
0.02794236701
0.02408615645
0.02523252595
0.03450050841
0.010845178
0.01691822479
0.01602973824
0.01512414934
0.01385196646
0.01171143005
0.02918599971
0.02121113927
0.02306946489
0.01756581938
0.01937651118
0.02709439572
0.04382773288
0.03654902007
0.03462377112
0.03476583152
0.03637550894
0.03593305043
0.02352933905
0.03395970942
0.03401942059
0.02939270569
0.03068485593
0.0208004503
0.03074031715
0.02166984222
0.02168862352
0.01860496953
0.02019505629
0.02903158608
0.01886933847
0.01114402016
0.01204506487
0.01053036436
0.01089731979
0.01800082994
0.02463423264
0.01646446041
0.01730408793
0.01367222102
0.0153160496
0.02326588509
0.0152654145
0.01641205152
0.02465317742
0.01998821131
0.01265803475
0.01403402127
0.0764680169
0.08015648451
0.06254126323
0.114937134
0.09756101589
0.08965832407
0.1198178072
0.1071032913
0.1251804159
0.1827345503
0.1934785531
0.2071916235
0.1325424475
0.1429134264
0.1396696844
0.1480507556
0.1454400677
0.1388608717
0.005287549589
0.003808835642
0.003564059929
0.006299794184
0.005408196915
0.00595996041
0.004390056749
0.004161462668
0.006078159752
0.004086133061
0.003772392676
0.003204236741
0.00478064493
0.003727331762
0.004801287947
0.003520329241
0.003588915561
0.004326355448
0.02910065534
0.03571479663
0.03990937362
0.03148246006
0.03169179733
0.02673750985
0.02469811273
0.02540641863
0.02555101362
0.02403448693
0.02529364493
0.02449595085
0.02749431775
0.02607689717
0.02554291602
0.03506573679
0.02864634589
0.03025988159
0.025002922
0.02689064415
0.03356006551
0.01287351978
0.0188545915
0.0167802365
0.05894582204
0.07899836431
0.07510759354
0.08699811266
0.08305578511
0.06255343311
0.02785965993
0.02990370191
0.02876199562
0.03271321516
0.03110926666
0.02927393338
0.03173635267
0.03155746137
0.03312041919
0.03198139824
0.02127112703
0.02897848037
0.02770528376
0.03203251534
0.03082117259
0.02283905488
0.04504426972
0.03843308659
0.03809137671
0.03464144539
0.03151631425
0.03289857824
0.02536612178
0.02775783094
0.02668548604
0.02857097913
0.03013521089
0.03759049146
0.01459704252
0.0224818998
0.02082375729
0.02583353592
0.02429438291
0.01615178649
0.01919965903
0.01748661515
0.02065960814
0.0125375966
0.01493232327
0.0164606112
0.01331501445
0.01399233614
0.01122772266
0.04780946182
0.03942611397
0.04049904458
0.03611547917
0.03750187331
0.04648498605
0.02034754879
0.02853040134
0.02705572687
0.04070119819
0.04179939924
0.05244778234
0.02105912556
0.03159106434
0.03032682122
0.03464596452
0.03325981427
0.02270964744
0.009076990934
0.007991166321
0.00943418009
0.005782344018
0.00673609171
0.007496916788
0.006028672898
0.006209183809
0.005086764609
0.9898695356
0.9761830634
1.010500463
0.983254016
1.012363661
1.049812969
1.066504086
1.145968301
1.156660257
1.157253841
1.156864936
1.156418778
1.15656174
1.156321089
1.156260763
1.156107285
1.155958504
1.156148396
1.155839469
1.155745731
1.156078582
0.9099265499
0.8954884487
0.9333218331
0.8833831975
0.8992666497
0.9404602408
0.9417775711
0.9911714428
1.036587242
1.088771251
1.158116698
1.157696158
1.157199814
1.156906889
1.156717311
1.156504395
1.155830353
1.155819186
1.155475171
1.155217151
1.155449075
1.155028732
1.1549282
1.155261458
0.66827263
0.6634547435
0.7203463373
0.6706919504
0.6801074983
0.7381214263
0.7269685474
0.7515331473
0.8109544772
0.8453455871
0.88711775
0.9549767404
1.0449977
1.111536289
1.157955819
1.157777184
1.156313623
1.155972577
1.155583922
1.155033305
1.15506376
1.154632486
1.154389352
1.154594483
0.436194031
0.4351986858
0.489052008
0.4476556868
0.4577144097
0.5101460656
0.5050132665
0.5263693475
0.578755066
0.6072090323
0.6412661794
0.6972921695
0.7706369874
0.8256918388
0.8885598276
0.8872041485
1.131643972
1.156970528
1.156500077
1.155413397
1.155137298
1.154640928
1.154110025
1.154189753
0.2530567102
0.2513957356
0.2925351708
0.2697719489
0.281864776
0.3205544582
0.3319916612
0.3528531072
0.3918780339
0.430999852
0.4600486801
0.5005320545
0.5703953241
0.6152965832
0.6600550951
0.6896224927
0.9020924437
1.011566636
1.076585617
1.156548842
1.155872762
1.155171494
1.154194497
1.154075392
0.1192969927
0.1200333094
0.1481165492
0.1461430576
0.1606451977
0.1865184362
0.2151651744
0.2362253326
0.2608999981
0.3087363947
0.3368426686
0.3623792524
0.4363118527
0.476837569
0.5055820914
0.5569391708
0.7388310658
0.8110915777
0.9070070976
1.08342806
1.157412268
1.156284395
1.154723613
1.154344974
0.04387099967
0.04428623501
0.05443875658
0.1449235923
0.1659859739
0.1794697116
0.2352950216
0.2614344588
0.2759652327
0.3523091312
0.38802823
0.4057883939
0.4797357511
0.6369783106
0.6830871332
0.7790172278
0.9521618345
1.008966155
1.151356833
1.155706741
1.155097868
0.04986845841
0.05727805651
0.05750570293
0.1187577262
0.1373295942
0.1409563794
0.2005638664
0.2244186473
0.2305705562
0.3070417883
0.3393684374
0.3486508395
0.4396470396
0.5730764301
0.5994616584
0.7049423338
0.8664738105
0.9048301304
1.054226162
1.157002785
1.156261971
0.06546624538
0.07017149618
0.06739842089
0.1229580573
0.1390556611
0.1369358125
0.195756883
0.216919154
0.216803769
0.2930312732
0.3232436421
0.324080873
0.4335100572
0.5476402485
0.5557616978
0.667138591
0.8133386182
0.835736714
0.9836295858
1.158569278
1.157705491
0.09155503878
0.09499650613
0.09154803567
0.143899557
0.1589380351
0.1527920864
0.211060915
0.2310762283
0.2252403806
0.3030681948
0.3311532476
0.3291091971
0.4363158412
0.5471039819
0.5452602758
0.6577635687
0.7892184755
0.7983439503
0.9394583566
1.110385995
1.127823689
0.1240770778
0.1282273912
0.1239762221
0.1763615036
0.191095099
0.1818694162
0.2414392148
0.2609614659
0.251765469
0.3291539289
0.3561742567
0.3474068924
0.4666334583
0.5705451613
0.5560233019
0.6735645733
0.7907053178
0.7874414322
0.921752273
1.07434737
1.07371725
0.157056725
0.1650592054
0.15926633
0.2217005587
0.2373705199
0.2240487384
0.2894009471
0.3090794012
0.2950962914
0.3763949458
0.4025927572
0.3888293252
0.5896182791
0.801464235
1.050109992
0.04501557032
0.06506730695
0.06282945334
0.05676492136
0.0882721008
0.08521781615
0.08082212124
0.1194609912
0.1153468524
0.1117569093
0.1347735112
0.1198277135
0.1227790498
0.04779871191
0.04690031656
0.0483414642
0.03828254075
0.05264482019
0.05274600903
0.05610830227
0.05565108268
0.04320951703
0.05157196661
0.05047947639
0.0495406136
0.05304029663
0.05346649112
0.03899182895
0.1062701295
0.1038121617
0.0815188933
0.04452201879
0.05710648887
0.0565450547
0.1265014282
0.1554857886
0.1515214394
0.1496290312
0.02157579623
0.0246157678
0.02460951348
0.1153859517
0.1263672649
0.1247878468
0.1360170979
0.1347324204
0.1300951208
0.0907221483
0.1114816973
0.1089790387
0.1230987965
0.1223592566
0.1064273936
0.02300165957
0.01973415378
0.01777857446
0.01759684857
0.01760793547
0.02059774223
0.009713188105
0.01110799621
0.01116903577
0.05388103081
0.0537481049
0.04101782174
0.04180539137
0.05421407774
0.05408623435
0.05779844317
0.05714121174
0.04722111616
0.0444752207
0.05814013514
0.05919561311
0.04587159005
0.04673147595
0.05795128852
0.02650719661
0.03490020456
0.03365667775
0.04435962959
0.04265157503
0.03449008096
0.03705507363
0.03564352705
0.03598748827
0.04171933631
0.0405882103
0.03957644622
0.06176420922
0.06083664043
0.04884491046
0.051509886
0.06354140432
0.06256582923
0.03899607787
0.04760128117
0.04568308502
0.05888119937
0.06012774861
0.05302255793
0.1337971492
0.1392740124
0.1377013497
0.1556415455
0.1492519365
0.1536174708
0.04633039828
0.04231299569
0.04997707175
0.02479662012
0.02519388906
0.0223219787
0.1253391191
0.1054701135
0.1091228707
0.02953797001
0.03040316413
0.0339003921
0.01134821084
0.01156313951
0.01052596606
0.860287352
0.9050491071
0.7811882014
0.8467722574
0.8675341586
0.8318253717
0.837831679
0.7773685196
0.9309208781
0.8938149167
0.8828897956
0.7946185503
0.8487841169
0.8343167025
0.8804210678
0.8545516646
0.8031405036
0.9472873358
0.9031200635
0.9346555817
0.8713273176
0.9338422271
0.8941913254
1.006012769
0.9525312329
0.8980890281
1.054892088
1.003933696
1.071624684
1.025262945
1.100200409
1.031527223
1.157908112
1.133577394
1.070129989
1.157403165
1.157828103
1.15746503
1.157525514
1.157166212
1.157530473
1.156579177
1.156874265
1.157140089
1.156529146
1.15667425
1.156427537
0.6126479789
0.6769982204
0.5453168112
0.6034129637
0.6087186605
0.6066750037
0.6025951672
0.5454080108
0.7216036114
0.6619959076
0.665125561
0.5650913198
0.6220770564
0.6126312454
0.6501722239
0.6339578942
0.5773463258
0.7484935436
0.6914751783
0.7083416647
0.6342093447
0.6921786666
0.6688234645
0.7481785435
0.7178643229
0.6592476048
0.8383846829
0.7779164386
0.8101951924
0.7571305629
0.8207584644
0.7815009787
0.9141824678
0.8639479366
0.7986055752
1.001864954
0.9320500962
0.9869261025
0.9615923767
1.034751144
0.9700011798
1.157895068
1.102495818
1.025888277
1.157508891
1.157941599
1.157461941
0.388221655
0.4408133352
0.3367968545
0.3841364059
0.3850296195
0.390349394
0.3860925119
0.3386685017
0.4899340053
0.4369112396
0.4406024762
0.3625077785
0.4085575915
0.398010882
0.4377577425
0.4217931518
0.3760927809
0.5227298252
0.4706379058
0.486493358
0.4318277868
0.4774617437
0.4563099256
0.5277009444
0.5011706497
0.4555052821
0.6032018462
0.5503333301
0.5772805856
0.5415530674
0.5913266487
0.5585619985
0.6672985654
0.6257663519
0.5778465247
0.736958073
0.6800309333
0.7218712764
0.7101772729
0.7658305953
0.7156937773
0.8865968899
0.8214269655
0.7638626788
0.9513932421
0.8839955397
0.9520888354
0.2210774691
0.2610259104
0.1790804737
0.2127695331
0.2158651186
0.2237561221
0.2166591246
0.183140196
0.2944257073
0.2539987052
0.2603973184
0.2143777304
0.2465496812
0.2339206078
0.2787418533
0.2616030386
0.2301848809
0.33499741
0.2962348461
0.312956188
0.2877764578
0.3181527415
0.2975896267
0.3669874919
0.3410004338
0.3111592426
0.4144181341
0.3751472302
0.4009403603
0.3910704094
0.4233891649
0.3949735301
0.4923981678
0.4559159196
0.4231599312
0.5329095586
0.4923107413
0.5303432734
0.5386987621
0.5749328721
0.5313745206
0.6759507916
0.6231480324
0.5857930776
0.711838542
0.6654284374
0.7189830516
0.09712716692
0.1210336578
0.07004823665
0.09505155206
0.09253036567
0.1099753376
0.1016251036
0.08040673531
0.1525577184
0.1246635182
0.1341492639
0.1177937168
0.1382445917
0.1223407202
0.1735898077
0.1551274012
0.1358259311
0.2025087517
0.1770749286
0.195197784
0.1955419555
0.2142889723
0.1934325294
0.2607734617
0.2366759568
0.2178647441
0.283451459
0.2584012431
0.2825623035
0.2941125392
0.3137147419
0.2863709691
0.3763884634
0.3437033258
0.3230091666
0.3936601301
0.3671716817
0.3999340864
0.4262936816
0.4493599085
0.4112027248
0.5407851936
0.4918119472
0.4678249949
0.5511333014
0.5205361842
0.5692191322
0.02823445953
0.03572735011
0.0350638236
0.04128662768
0.03751445563
0.03088503556
0.05570102107
0.04592519082
0.04971138462
0.1468472894