/*--------------------------------*- C++ -*----------------------------------*\
| =========                 |                                                 |
| \\      /  F ield         | OpenFOAM: The Open Source CFD Toolbox           |
|  \\    /   O peration     | Version:  v2012                                 |
|   \\  /    A nd           | Website:  www.openfoam.com                      |
|    \\/     M anipulation  |                                                 |
\*---------------------------------------------------------------------------*/
FoamFile
{
    version     2.0;
    format      ascii;
    class       volScalarField;
    location    "0.7";
    object      omega;
}
// * * * * * * * * * * * * * * * * * * * * * * * * * * * * * * * * * * * * * //

dimensions      [0 0 -1 0 0 0 0];


internalField   nonuniform List<scalar> 
3259
(
31.99554154
31.99594331
31.99221249
31.98505746
31.97836307
31.97280038
31.97022516
31.96814563
31.93455002
31.93329164
31.93209751
31.93107956
31.99351824
31.99690195
31.97793642
31.94415789
31.91145119
31.88624653
31.85468019
31.84388684
31.80590063
31.80197099
31.79851274
31.7954859
32.03693629
32.05115437
32.00659045
31.93566707
31.86201405
31.80503204
31.74998757
31.72615557
31.68140244
31.67396992
31.66792703
31.66290686
32.2631701
32.27486842
32.16029048
32.01410294
31.86957607
31.75803675
31.66614104
31.62035301
31.56220013
31.54978226
31.54034446
31.53299046
33.03693245
33.01208267
32.65352896
32.29227182
31.98893259
31.76845648
31.61323418
31.53060317
31.450138
31.42920135
31.4153857
31.40539893
36.03452356
35.52603967
34.03638079
32.9949727
32.30806493
31.86884204
31.59602914
31.46017545
31.3464127
31.31176398
31.29184244
31.27855463
50.65647496
46.93091019
37.72626939
34.49519039
32.93463414
32.09968152
31.61751952
31.41021954
31.25007071
31.19758429
31.16947875
31.1523479
82.63786201
46.14764027
37.14523283
33.94212793
32.47476938
31.69319842
31.37734978
31.16238768
31.08719984
31.04860786
31.02683857
163.5065565
58.36415728
40.75314233
35.2564444
32.96189303
31.80875322
31.3603731
31.08250448
30.98195913
30.93087773
30.90392501
204.8194403
68.97353611
44.41612595
36.64392111
33.47806136
31.94489977
31.35641784
31.01113531
30.88357145
30.81873013
30.78587872
204.0590049
75.13522136
47.28997212
37.83087401
33.95864939
32.07607392
31.35873369
30.94702655
30.79383495
30.71491654
30.67574071
188.1200598
77.44422295
49.03346089
38.64784281
34.31856198
32.18009143
31.36142009
30.89031584
30.71250978
30.62032769
30.5747111
194.9797429
94.1498755
249.1146829
202.5682832
243.7964881
250.9439769
218.4576552
240.6155469
215.0106617
50.03121023
85.87011335
46.38885944
643.4812986
210.0389277
154.2935703
64.45319915
51.11015247
2237.252745
1583.556078
202.4727428
80.06973583
68.83426173
1208.447897
1707.413185
205.5457667
88.68222424
82.86738061
652.6464033
883.5876283
2758.499613
416.8864699
484.9527773
1541.871211
680.7888422
151.9159433
540.011189
1065.114545
1729.737097
2237.76161
228.7071146
1532.458519
1306.612172
1100.969624
1528.778235
225.7372122
926.6612751
1180.385597
249.8584136
877.6662733
680.8238697
1290.993919
912.9193301
251.2590677
499.8639626
626.8822986
3685.071626
4086.501699
409.8374313
2449.367425
4018.791892
708.4861575
6578.766544
190.5936857
91.42483573
89.76079403
6241.839599
947.712614
1055.689326
173.6719241
475.8412549
139.8753701
1077.951038
1393.569232
227.7383046
515.3001714
438.692611
657.0786449
529.9143909
231.2960093
85.19531246
181.4587785
81.26382012
87.2526465
5721.563217
446.1866651
3979.944315
517.6971065
2895.485014
400.5885712
1816.153038
1791.909434
1412.207712
1447.116558
2740.222488
5611.755523
739.2745445
3333.454145
1771.433301
6346.88994
3841.565916
773.1037302
795.7084544
902.9088111
5697.375873
1079.283693
1020.779519
1849.297522
1870.574898
1399.729835
457.7328797
446.4492095
459.3023892
459.5300736
1387.984914
1296.331377
406.4194843
371.5742932
440.5394887
416.7083338
1319.465641
988.0478884
6572.447886
1007.596598
1669.544279
1204.119998
563.2679169
1481.659879
2529.223594
6372.28525
763.1157572
4745.574464
2596.632648
3437.824748
1382.008776
3859.914763
5063.008647
175.4321096
555.7471761
160.5679411
189.732224
2106.786086
5317.269616
5458.541211
1688.577028
1298.070009
3775.770514
2701.275173
6369.972102
6222.736237
1623.538231
1337.482948
4900.054997
5318.037762
731.2962934
296.5872253
247.3497992
357.3605087
313.4065624
766.7372178
1784.447222
6320.306437
6383.043856
2119.697062
2542.427526
2319.163837
1105.692083
787.0009629
406.5759928
423.782124
1139.62967
448.7305787
457.6211935
429.8066596
444.2309298
1115.8643
544.3820699
1157.4807
934.2805316
5524.822804
2436.800205
2990.467779
2212.925937
6547.371706
6652.512396
1713.881061
2298.170464
6424.408118
1742.347426
714.367467
1709.055776
5049.218389
3743.78539
1223.101204
5734.790784
6532.332016
5992.084485
1632.936809
986.3758485
2711.117124
1804.449825
884.5423739
546.3807404
1632.677871
5667.780417
7309.317093
2002.0067
1712.97779
5520.994709
5673.023037
4175.388231
3895.933295
1331.157101
6459.458702
6358.146634
4805.027385
6276.516263
6319.32839
1577.347142
6340.941267
4290.131675
3954.759948
4405.175626
2463.954363
1124.243518
1218.85597
4961.174104
1434.194515
1632.562119
1257.065219
1374.741102
4693.56992
4411.618623
1306.695974
1566.060451
3515.619692
3648.282704
1267.391852
5138.775555
5297.744621
6669.325446
3645.648144
3026.749679
5176.974815
3596.685691
852.2300341
2507.057023
3365.355063
6174.170229
6269.545712
1801.971085
2030.863108
6468.7048
6144.494705
2161.604181
2554.577342
1704.867891
2004.769933
6846.656816
4097.253631
4505.686643
2742.082894
3943.830986
6600.516653
1776.520244
6558.744079
5735.640643
6536.570201
1911.058454
6335.502738
76.22778002
47.27370555
39.04569245
6434.329588
6408.235165
91.43220087
6644.4035
427.72419
356.2813463
206.5548059
454.6893336
295.7287619
723.3485428
2644.831649
429.0638402
495.0413682
61.26541848
73.91000266
156.4668027
559.3727596
1151.561895
1719.428706
1108.69087
1243.722228
3946.688019
891.4490203
782.7310893
453.4152597
1875.132545
2409.864882
799.8176159
5159.213923
4546.78844
6289.426881
5721.565453
1080.113542
4336.510102
6378.294963
4405.119183
4803.629856
6184.97473
2075.332569
1646.420684
960.8885945
230.1064957
180.1538419
336.8712268
1180.447012
3269.833461
2312.517469
115.4732803
151.4263853
426.4527808
4637.328647
2994.928196
2291.830029
6299.579691
4798.509669
3023.256814
5049.670772
4673.974882
6881.568577
6542.791537
5018.493027
1018.335089
1098.757582
2254.619722
6504.410661
3808.501475
4206.064338
5096.996602
3481.832594
3926.640312
6581.828858
6518.453247
4389.260627
4635.163092
6530.57198
6590.793369
6813.18065
1082.695793
2228.592475
1847.893089
6337.70165
6318.156083
6247.478715
5121.406761
4823.097084
3132.326948
1543.948627
2298.001559
2003.494888
4327.022379
6406.237791
5645.18307
6492.149601
6252.818873
4766.743741
268.7214381
387.7040488
1419.544337
5493.040568
5368.398723
5639.240317
5597.320807
5395.620304
3519.106691
3501.728919
3529.351115
3520.278893
5387.874151
6399.084516
3577.60265
3609.743459
3419.009374
3526.663878
6498.322763
5088.752565
3217.085468
2900.791975
3479.852966
3396.854521
5203.378022
6299.951397
3691.105812
3721.728848
3645.440622
3664.551535
6346.395611
5788.565943
5675.207635
5890.942147
5646.289465
6380.558032
6588.89582
6235.2947
5017.838834
6421.774871
3502.85366
5279.531083
3641.243289
4601.737674
3573.701823
1500.747754
4812.97346
3565.937427
6604.796193
6860.203064
6385.651772
5120.191094
5718.943369
1649.511257
6359.867216
6558.943735
6281.507703
4413.718521
3099.575374
4350.962749
2285.295643
3375.999802
4625.172641
5091.224064
4633.369649
5889.597897
3716.741055
3533.874905
5093.795989
3663.092667
5465.109299
5551.190461
3539.082377
3532.843532
3559.376848
3533.823152
5587.960233
4068.020283
2358.35043
2403.42163
6392.034846
6385.056584
5555.720308
6713.467245
6503.804559
6416.615264
6402.84132
6647.708899
5381.61019
2841.358507
3180.279185
2470.515836
2599.743459
4630.126203
6553.584519
5618.662604
3454.717893
6857.792758
6576.471408
6556.54091
4610.474368
6563.895987
6351.604379
2910.728356
3306.418744
5670.667853
3511.469657
2364.466317
2329.097444
2600.621083
2515.493787
3700.575877
5513.465952
5188.538929
3408.502155
5160.366469
5380.079979
4847.36877
5092.257077
3351.569671
5060.725594
4999.362005
6481.230115
4770.37867
6235.478036
3802.032167
3829.550344
3742.658404
3768.435468
6222.491694
6172.461228
4235.922019
4916.355387
3883.056326
3985.661615
6164.765762
6486.108476
6351.625586
6637.699506
4923.991009
5646.529452
4237.939806
6480.543947
6553.272003
6477.374535
6487.724383
4332.56226
3076.461187
5643.888035
4869.761679
6347.348623
6484.331747
3584.563182
6324.785786
4473.041774
4716.991773
3537.470233
4082.749394
6413.476143
6541.243797
6359.85021
5059.766099
5651.305553
6837.589354
6151.437707
32.01054744
31.98590566
32.01747164
32.02873043
31.9986141
32.02556298
32.00388516
31.98678157
31.99256316
31.94717598
31.95423694
31.93246774
31.88421706
31.92007516
31.87074566
31.83228612
31.89223992
32.17702934
32.02761275
32.19245497
32.19600312
32.05229748
32.17763903
32.13075941
32.02038966
32.10455332
32.01172137
31.9529488
31.98078028
31.88871179
31.87758746
31.86114338
31.7856308
31.81664818
32.75674613
32.24519332
32.79608758
32.7753386
32.27229632
32.69384433
32.55700901
32.19234468
32.48557752
32.2655417
32.0510283
32.19437304
32.00035992
31.90400234
31.94323121
31.79888094
31.78177346
34.75675648
32.99942963
34.88421463
34.7841871
33.00179405
34.41843359
33.81221892
32.74181862
33.56874564
32.94502576
32.37985004
32.76250772
32.32130149
32.05692828
32.20052654
31.91501598
31.81592311
46.82580256
35.80425888
47.17877836
44.03895023
35.65000128
41.36186729
37.4642344
34.34383502
36.48081482
34.49419069
33.21797087
34.02353504
32.99558555
32.45071364
32.74068919
32.1722218
31.96244776
72.09909303
68.60098607
50.62194726
54.29749786
47.04055164
43.59888427
43.53966277
37.52664151
35.08096229
36.38622143
34.1424099
33.23642581
33.64583754
32.60845416
32.26262333
113.9238772
77.90829204
63.86254213
55.26208363
42.07580744
38.52990952
39.85455959
35.76444094
34.51507469
34.91584505
33.20703664
32.74334137
185.3463385
110.5834298
98.88505817
66.72024169
46.95053928
43.28207065
43.61436399
37.53971892
36.19522457
36.31035747
33.87832404
33.37114437
207.8481275
128.0898785
123.50883
74.0077337
50.7946354
47.9978643
46.68608023
39.11968036
37.96159854
37.56578022
34.50128482
34.03251145
199.0482572
131.0432577
131.1544417
77.15030342
53.18667482
51.52014952
48.69270063
40.24738613
39.44395522
38.48764259
34.99014753
34.63672192
181.99575
134.6582558
135.9990874
53.54898803
40.44543065
35.08031696
179.1886962
251.555878
285.3582073
109.2745898
131.7549059
109.1893874
246.0599905
368.2277254
370.422795
295.9535206
323.341921
216.5924646
245.7666937
337.8469588
333.8861745
370.1241939
366.5023302
251.9604447
221.2556791
262.4205908
256.9240048
301.6972673
294.7458954
237.7719637
251.1320066
246.2193377
212.3197523
2142.171182
1728.777359
1892.494202
72.19442923
2950.871517
2343.632105
74.44913747
81.56100505
96.90373338
48.96213809
66.43060278
57.60411834
611.8104974
714.814854
769.8740951
279.6582647
336.3768938
268.565136
95.46882109
81.08058525
124.0993004
59.87607724
71.55756429
78.15153508
58.64638311
64.98736199
55.40959844
2222.896641
3451.793491
3457.166041
2308.637345
2351.027169
1624.69462
121.5462406
113.4522879
190.8965654
76.72248288
94.91416038
99.17820005
84.3150164
90.00568771
72.99674926
1238.154376
1528.189928
1479.488153
2306.764889
2282.36038
1685.730132
130.8778421
129.0854814
207.7320876
87.14041872
107.250573
108.7301817
102.5566717
105.3158482
85.26882697
678.8701811
896.403586
854.1039948
1310.817004
1208.016257
845.5792346
1749.565934
1919.918067
3108.747135
443.2968622
748.9358761
662.5934411
578.9771975
559.2301403
475.1831339
1482.892623
2184.557006
2265.848419
850.8627926
909.9613304
714.84314
201.7583327
238.8603281
169.0905367
574.1490573
427.321407
390.3110266
621.4417921
591.0608041
932.520363
1748.002291
2349.196283
2331.743324
3441.107624
3417.028527
2224.00742
355.5438304
366.0750624
230.3999077
1496.343274
739.6188617
759.2922143
780.2598422
789.5119087
1345.856503
1196.48963
674.2815162
647.0830887
758.7800116
758.1297215
1460.974983
218.1714008
331.1804063
350.6260062
969.4463509
1497.873665
1351.278622
1437.38805
1403.166388
1154.429457
352.5735876
342.4942072
248.4753557
847.8743001
636.5864696
652.3923997
381.9812595
399.6688007
755.768602
1236.568115
757.950308
770.7735255
668.4287873
684.7840778
1032.281459
251.8119492
364.0163665
356.2081755
512.2099469
625.7758477
602.143622
815.9313894
779.255459
604.2643569
635.6734808
1595.169094
986.7460818
1909.07172
1141.516512
137.7895077
130.7509915
196.7943785
91.06144159
110.0707211
109.8887666
109.5218036
110.0588607
90.60981127
992.522216
1533.021732
1291.487017
1188.786872
1161.664987
1023.707894
284.9208523
164.2150567
123.2954138
356.8949853
323.7588673
439.8353457
122.3813882
151.6827473
187.8795167
1111.489693
1293.920675
1244.109843
1901.192527
1755.631573
1334.904107
275.1748294
268.9052004
224.8289989
478.9204837
342.1932364
333.4466432
319.8073802
330.0284151
467.2982673
595.6100053
359.1873187
376.1962044
337.1742578
354.1050381
576.769434
234.2514016
288.2066306
281.2768195
133.5780677
150.68316
175.5210714
207.907141
81.45935068
120.8653187
100.9533027
141.5959225
133.1870269
84.58340889
670.1751153
1050.558476
545.7119248
1325.605737
499.8665488
363.9382905
1966.28604
1678.923031
2791.562958
311.3878604
461.4321357
611.7767959
2500.298713
2588.355703
1857.637685
1763.273179
2459.121949
2500.792897
1779.297934
1743.79273
1386.519523
1483.245396
1889.908343
1825.256666
985.9855952
939.4270134
708.7787869
2914.08528
1864.637897
2015.906015
1357.949218
1407.738481
1890.129378
2203.583104
2381.386183
4268.69467
806.0793509
1170.93953
1119.395271
829.1449212
999.5464694
951.7723514
1225.099193
1121.854007
866.4732242
1542.247251
1611.291506
1139.440522
960.4655671
1364.017419
1446.892522
2448.086752
2432.645852
1833.720081
1901.154704
2525.677572
2475.018181
803.1181364
805.6160807
1465.655331
455.0138179
590.599772
592.9719375
581.5218731
587.3784619
451.2601699
460.0485557
590.7470941
587.6026736
592.9972878
592.3426928
460.2894306
1357.804543
795.7584475
800.5280595
720.5104829
696.3942564
1223.092191
396.0042751
510.8050046
523.1139408
476.4566756
492.091498
383.6402965
433.5448921
563.4175511
573.7435183
539.9327881
548.8471888
425.5024325
1420.158671
761.4959152
738.8609439
1757.133314
1564.398614
887.0438146
1034.146941
1237.502107
1209.750877
1411.282626
995.4715509
1002.057192
906.1950613
948.5871761
1347.725184
582.2410012
744.0847744
711.6323344
1568.642315
2324.281633
2094.613014
4463.966313
4029.900422
2305.49966
905.6345696
2880.724825
4595.334224
4251.717028
167.5120681
262.3664244
333.1391324
212.6015562
145.0404147
504.5366758
254.4985208
396.7926469
481.1631861
726.1153021
178.6051647
282.2188492
228.865077
339.6782275
320.381597
187.0348751
3228.123197
3392.207701
2183.009041
1654.444357
2372.686778
2407.151685
1632.043636
1581.331264
1268.996105
3433.564301
2098.805985
2201.767044
1873.040568
1976.834367
2993.053457
1656.746339
2243.720913
2187.98684
1920.816842
2072.731487
1416.777761
496.9035858
456.1791123
644.8357149
280.9969821
347.5040137
370.0585907
300.4758916
324.7340308
263.6698566
343.8235356
437.1209171
455.7926716
393.6413032
414.6391553
328.0674501
887.7827299
561.93228
529.2038
2385.842337
2369.141009
1767.565575
2189.717581
3337.045542
3153.796855
2454.424761
1744.821028
1796.925063
1655.901961
1697.421692
2384.263068
1130.390901
1369.834723
1340.175948
605.711642
620.9755334
815.1397223
411.9915685
503.7895418
494.5983202
522.4259739
513.3739615
418.4835464
729.0686839
744.9591235
1211.135629
452.092195
571.6553719
564.6318668
583.3247007
578.0157358
455.4810163
434.6617562
540.383946
531.7159004
556.9121813
549.0255732
440.0493
1063.287678
698.977356
715.1958973
680.8072568
652.7514175
528.8603052
1088.012508
826.2913297
864.2720037
754.8247389
789.7957232
977.6055773
1410.648703
2230.229223
3747.463938
1855.35367
2987.996626
2686.81708
3755.979523
3346.506604
2052.627307
933.4069036
4717.069502
2742.219765
3091.05844
2187.746334
2449.740987
4272.647271
1265.536233
1631.535515
1521.737494
1342.712445
2036.477761
2555.927862
1458.985397
1845.448041
1211.475245
2854.768205
3370.933682
2139.045185
720.1757516
1026.995917
1289.826769
713.4211953
873.481456
645.416885
2031.035185
1286.992816
1095.880844
1918.090993
2658.21963
2922.543155
2420.786653
2453.068825
1742.96621
2269.373501
2318.100239
4019.836639
1355.911593
1709.76963
1674.104541
2093.006457
1983.835067
1531.058642
1657.877365
1746.186688
2651.076056
1154.080558
1349.073301
1303.696676
1472.274665
1406.880532
1185.339662
1490.768554
2023.99003
1886.490464
2358.826508
2198.978491
1565.851161
1288.904233
1624.421084
1548.113612
1779.626266
1701.265119
1338.223472
4435.662279
2528.684363
2685.562066
2797.922881
3138.259711
4827.594989
1369.00621
1902.923901
1737.66615
2348.385063
2100.007233
1475.23898
1197.290869
1699.254242
1798.977719
1168.453088
1246.810492
898.2461702
2806.519416
1858.968816
1740.436927
2178.048047
2074.446332
3196.895686
1817.103433
2416.346049
2402.306425
2859.99279
2636.452226
1953.89559
2308.793669
4144.394443
3748.72707
4568.890491
4329.000284
2428.43631
1777.099943
2642.683509
2499.494118
3237.256141
2859.689009
1874.944961
2793.25266
2566.202828
1673.652628
2086.155647
3520.178976
3087.947964
61.30609981
54.16368449
57.20804882
43.92988815
47.55798005
52.94759405
40.77010058
43.99909202
41.29137186
109.5334026
108.916378
91.35407037
411.889946
300.0269067
308.8845908
282.7377906
290.883118
369.1003125
410.5489421
654.8692973
766.4796633
380.8330577
478.0574552
405.3949045
1759.84681
689.368442
620.8842077
1196.728514
2080.763415
4109.410606
474.6996966
774.9587208
633.0113119
880.1338561
862.498231
493.4998389
91.84183594
80.4599355
69.90093888
114.2851234
94.09960326
103.1430797
605.1065463
654.3981757
582.7287823
1359.106821
925.7367319
807.3640784
1135.775215
1001.955283
1472.903752
1151.771208
1387.617935
1313.040512
1597.893959
1481.326241
1195.277595
3512.938968
2160.088174
2466.246581
854.4887077
691.6253121
722.0133011
636.0679028
662.1843679
816.9738092
2125.170302
1372.172096
1245.083521
1590.858616
1488.500954
2202.971184
759.3717043
1002.004132
1063.123913
1242.989897
1913.156404
1399.173273
1463.388279
1269.277831
1317.724533
1775.087326
1007.607606
1105.785821
1107.94887
213.2539551
254.0567993
278.1687529
373.5116084
287.5185045
260.8348052
1431.638268
1359.200141
1142.374376
2929.745704
1818.069357
1972.370497
1572.011092
1676.448503
2599.583262
124.1179538
140.9817694
131.5046515
184.8133359
167.1968684
133.3987784
280.5177475
203.4866242
269.83604
1048.381499
1177.166772
1154.995616
1255.873717
1220.88909
1069.395446
2060.394264
1488.873727
1564.208364
1305.985548
1275.196152
1056.64034
2109.024131
1550.567508
1603.976595
1439.399418
1486.756575
1964.314688
292.2042903
380.4793174
331.1960663
521.4158489
444.1360754
340.1019564
994.0899647
614.2758707
841.8380179
31.99259405
31.99617673
31.99613937
31.99424712
31.98743567
31.9949456
31.97860768
31.96816281
31.98872381
31.95715266
31.94625788
31.98156291
31.93650967
31.92838389
31.97552463
31.92274226
31.91603099
31.97157083
31.91165102
31.90854936
31.96915309
31.99644506
31.99936893
31.9948779
32.00183574
31.99941373
31.99571566
31.9794404
31.96915229
31.96992296
31.93713554
31.92602595
31.93676994
31.89578527
31.8862376
31.90512566
31.82368682
31.81122827
31.86159647
31.80015578
31.79161636
31.84875788
31.78556281
31.78262309
31.84027109
32.07688474
32.08596427
32.04524769
32.07743336
32.06890804
32.04398392
32.0292941
32.00789229
31.98853503
31.94335626
31.92073583
31.91582771
31.85651231
31.83716186
31.84537949
31.76730442
31.7277698
31.76704226
31.70396579
31.68637192
31.73675555
31.67342661
31.66584083
31.71862376
32.40636046
32.41533088
32.27301968
32.36174688
32.33881933
32.25657853
32.24341427
32.19769327
32.12436838
32.05861619
32.01298981
31.97662538
31.88548843
31.84719346
31.83763671
31.76002939
31.67819311
31.70066896
31.63395207
31.60035281
31.64044295
31.57521297
31.55895578
31.60607895
33.52079178
33.53053937
33.04190474
33.29731155
33.20461811
32.94837016
32.8914394
32.76627366
32.56068356
32.41586335
32.31303388
32.20870485
32.04417015
31.9696344
31.92598598
31.84040677
31.67972143
31.67330378
31.59612787
31.53840989
31.56613781
31.49456095
31.46412033
31.5058357
37.99813162
38.19682612
36.01620055
36.62776253
36.07268783
35.20014424
34.6840451
34.26889267
33.73691766
33.27982815
33.0285253
32.79469537
32.42671293
32.27381094
32.17861804
32.03770569
31.739093
31.69883306
31.60189965
31.5031814
31.51734841
31.43375258
31.38299695
31.41865248
55.2889382
55.37662279
51.52924256
39.31698662
37.85983503
36.64368752
35.0556924
34.44494019
34.0043866
33.14477741
32.84058253
32.67577729
32.37500293
31.87707267
31.7981523
31.64963358
31.49960643
31.49757256
31.39220541
31.31615417
31.34579046
93.07040019
83.05094145
75.77918956
49.06202454
44.83337719
42.7416616
38.02693653
36.7460554
36.06856446
34.24841211
33.70602487
33.46820332
32.83524153
32.08973059
31.97426271
31.74716306
31.52009145
31.50611727
31.36715352
31.26154119
31.28687285
170.7768978
141.3182757
135.140297
61.35694454
53.63533781
51.44007683
41.74916086
39.61660062
38.84279544
35.61415142
34.7762905
34.49635425
33.35579979
32.34849246
32.21573715
31.8758391
31.56379422
31.53888215
31.35690729
31.21740568
31.23944254
206.3498294
171.4579119
169.6756485
70.94563479
61.048371
59.45669447
45.28126554
42.387007
41.70647652
36.96286471
35.83430579
35.5827967
33.85328519
32.60535168
32.47902611
32.01220713
31.61845479
31.58955113
31.35735534
31.18212548
31.20151694
202.659344
172.8874517
173.5265614
76.02005605
65.50380253
64.66348951
47.84490895
44.47768577
44.02124234
38.07612924
36.72970116
36.53202973
34.24923723
32.82323067
32.72206959
32.13235058
31.67023696
31.64447287
31.3618554
31.15359143
31.17065492
186.2361886
162.6926453
164.3225153
77.61673377
67.34102341
67.10136062
49.27952864
45.70535897
45.49440672
38.79718837
37.32227334
37.19907421
32.90771899
31.69060593
31.14337168
55.56923162
128.2606735
121.2074931
145.0192527
167.2355227
164.4135159
199.558789
174.1861343
174.5008678
206.5695607
425.6930625
479.7523423
469.2447815
829.1408928
803.0421897
1023.443004
1530.834664
1121.561509
1120.805919
1034.668442
1043.818703
1320.154933
1135.767465
873.2998537
848.3207227
1116.437246
1109.03428
1516.213265
549.0311117
562.0744823
705.474796
1275.483568
1015.107905
1025.645339
456.1972225
165.5511894
167.025583
192.5350932
209.4481911
171.5562727
156.1257436
502.7573776
436.707972
444.5048028
386.3605955
394.3412201
446.785379
635.4098935
523.2377379
535.2880854
456.4277699
464.9669757
543.9228796
80.59507446
92.90202454
95.19665991
97.14621457
97.06980203
87.28383052
754.6839162
527.6299981
419.0121983
1086.895963
1090.997248
1414.329519
1378.67408
1077.421602
1081.305953
989.5382645
970.0816177
1272.785477
1346.575268
1024.220783
1005.358309
1172.658949
1152.876284
961.3423278
1573.769989
1257.776527
1295.098485
1057.098048
1087.038802
1243.632917
667.6608833
652.1505792
695.7803564
805.2922924
701.1329711
679.0184966
936.7540292
951.0884658
1160.176042
1100.120871
910.2759922
924.5404959
1133.36066
1006.288482
1036.301594
70.10924968
63.9623058
67.64767293
421.6575835
371.0484681
379.649842
209.0657905
241.1555806
236.8558324
64.57238083
74.19133368
69.07216412
135.304139
122.5466336
130.5185274
461.7077916
539.8261774
523.2163568
210.220116
232.0708269
196.5379791
368.9954389
305.0371695
330.1149336
31.99692874
31.98943875
32.02497134
32.00740863
32.00293872
32.01336946
32.01087821
32.02861143
31.99818385
32.0022862
32.00335353
32.01997574
32.00788201
32.01248544
31.99352739
32.0013882
32.01354336
31.98929515
31.99319439
31.98846392
31.97712965
31.97124056
31.98379902
31.94521633
31.95956258
31.96358922
31.96079441
31.95847612
31.94712763
31.91451856
31.91801817
31.93209053
31.89301096
31.90668472
31.89955075
31.92734505
31.91583707
31.90520939
31.85625357
31.86984248
31.88208759
31.84970349
31.86011028
31.84437438
31.89776702
31.87812588
31.87014505
32.10135458
32.06403199
32.20274886
32.12472058
32.11509178
32.1297621
32.12844157
32.20422682
32.05013839
32.08849192
32.08522268
32.16421561
32.11807985
32.12920989
32.07978327
32.10133475
32.14975603
32.03403098
32.05979435
32.04625521
32.07418016
32.03436313
32.05905818
31.98378133
32.01021174
32.04388018
31.97190152
31.98738068
31.96435688
31.94894449
31.93127504
31.95824739
31.88077511
31.90610883
31.91860912
31.89769741
31.899786
31.87770634
31.8339735
31.83292498
31.85721951
31.79339703
31.81244073
31.80810425
31.83101763
31.8203959
31.80425597
32.51040566
32.38401093
32.80390529
32.54308575
32.53452662
32.52930797
32.53972308
32.79669433
32.2739187
32.41422357
32.40170063
32.65048487
32.50552209
32.53814963
32.39331012
32.45534727
32.60401169
32.22816339
32.31360742
32.28548277
32.41224699
32.28564186
32.34150529
32.17403615
32.22992958
32.33901654
32.08846611
32.15156812
32.10424812
32.12585126
32.06402668
32.11872061
31.95861342
32.01059324
32.06157253
31.94036831
31.96925268
31.92620039
31.89058125
31.86542969
31.9103891
31.78789153
31.8244835
31.84261362
31.80897007
31.81374929
31.78308557
33.88668234
33.42312937
34.98119056
34.00615995
34.00268192
33.89074672
33.97004025
34.92393421
33.03021395
33.51236831
33.4640689
34.205159
33.73853826
33.87680464
33.33129926
33.53447604
34.01205802
32.85233084
33.11312679
33.02026616
33.34730921
33.00644047
33.16950544
32.70828366
32.85223023
33.14217997
32.46895915
32.64605346
32.52855044
32.60301518
32.44296826
32.57018307
32.21507663
32.32497139
32.45748559
32.13108398
32.21831577
32.1267434
32.09374325
32.02698065
32.11696093
31.87299837
31.94575623
31.99908936
31.86851521
31.90240536
31.84191185
40.53717475
37.75675923
46.59546231
40.68936329
40.95713397
39.50554468
40.28612339
45.07854714
35.89808679
38.00886923
37.52420798
39.728525
37.9598197
38.87023502
36.0865627
36.87714257
38.60234187
34.73456158
35.6322479
35.16439654
35.70054325
34.88373872
35.45450951
33.97967499
34.39560484
35.05029106
33.46258517
33.90402121
33.57355458
33.63067864
33.30024435
33.61653005
32.78470655
33.0236606
33.2921761
32.61290815
32.80566125
32.60361919
32.52165439
32.39282533
32.57699741
32.09116272
32.23180532
32.33418551
32.06350546
32.14062431
32.02349863
71.82622591
63.24987884
62.93112296
60.90715971
62.0876931
71.55772733
51.2126456
55.32362415
54.54728634
40.91558711
39.24060171
41.24479069
36.59155548
37.74649312
38.9848524
35.78008096
36.7176602
35.80131226
35.48029664
34.92106825
35.66354567
33.8104462
34.31441751
34.74480318
33.58995857
33.93446013
33.50539251
33.23457691
33.03389081
33.38850618
32.48045907
32.73388601
32.89429394
32.45366024
32.5847712
32.36681551
98.12212479
90.38767654
102.3351466
72.08787611
79.57499398
85.36030687
49.22426056
46.95855563
52.10990787
40.81067661
43.3928784
45.05897237
40.3224751
41.8504276
39.67562448
38.15237439
37.39043312
38.87003507
35.31263088
36.2352606
36.82057947
35.21162169
35.72917435
34.91199231
34.22830974
33.95617296
34.56564265
33.04355318
33.45626926
33.66715692
33.07303145
33.26076217
32.89111408
152.264288
147.068724
178.7110351
106.6965361
123.5240755
127.8694167
113.9000058
118.9413946
103.4851388
57.69922705
55.72644129
64.15823862
45.71746403
49.90147033
51.43874377
46.68947554
48.32937568
44.54842429
41.06075929
40.30830735
42.63061814
37.09267661
38.51072224
39.08477701
37.36522529
37.95900502
36.65460954
35.32325786
35.04749458
35.96037982
33.70879539
34.3081901
34.52485365
33.87713559
34.09602802
33.54223594
173.8463035
172.9464946
207.433552
126.8142631
146.461188
147.7410137
143.0658349
145.0103399
125.32512
63.63820397
62.44380427
72.61787586
49.95095816
55.21837144
56.23748945
52.80452836
54.08901775
49.05048267
43.52954352
42.96567513
45.99457771
38.75274833
40.61023849
41.06771715
39.61349959
40.13772458
38.37012872
36.31862226
36.08305416
37.27295146
34.34939012
35.12320476
35.31187401
34.72516219
34.92440369
34.19255257
170.8308124
171.6633565
200.6898404
66.68952747
66.1737862
76.67170997
52.7049817
58.46462666
59.00894739
57.10121045
57.8851648
52.1947256
45.18882706
44.87320869
48.30191147
40.01584085
42.1676958
42.43878582
41.46361911
41.8429886
39.75036127
37.06611091
36.90781922
38.29464169
34.88262462
35.78777311
35.91484615
35.48350318
35.64143418
34.76616285
59.38017752
59.7016301
53.8363901
42.68737987
42.88364919
40.62002406
36.02767319
36.12536289
35.16466224
262.9253819
223.6527441
213.5710825
239.585038
230.7556861
274.6678721
369.4981642
306.080238
304.1184437
308.4690317
307.4518743
370.4454533
305.6292337
254.40631
246.5564036
267.5684143
261.0609533
314.9262533
335.1536423
291.9200596
294.6590472
369.4344764
309.2545729
309.1108014
308.7715664
309.0751371
367.8630973
61.22712966
53.80441447
52.80191283
48.32888158
63.02424657
56.33042102
57.90981638
52.29981645
53.75591012
59.94764397
90.22773516
103.0239423
108.604609
91.34778313
97.22400666
86.81248789
135.0162109
113.5901089
105.9403991
119.0686572
138.1438134
140.8942211
131.6410671
135.1919448
116.6256515
195.7134087
160.9326226
156.9403598
130.4886097
149.525128
149.6177671
148.5367404
149.1998208
129.8916679
207.364456
174.6264647
174.4791647
1276.099191
1102.332061
1130.332822
1049.323194
1077.859352
1236.705526
507.1582503
493.5400412
434.1727635
719.0159663
588.2829354
610.3162741
548.1037892
565.9450593
688.6060055
213.642404
188.8872295
177.1053972
206.4791323
195.7150382
227.0303825
979.8231165
783.353932
757.1311268
359.7732051
296.5108438
292.8402348
301.9903134
299.2738669
363.2434559
1112.69761
1118.974501
1518.474984
759.4296652
847.9228111
874.7176576
834.9954444
844.0513851
759.7827707
1333.762256
1051.596409
1059.197498
915.2082849
891.6089546
1166.214756
758.2638166
814.874556
826.8325789
787.1462055
802.5841836