/*--------------------------------*- C++ -*----------------------------------*\
| =========                 |                                                 |
| \\      /  F ield         | OpenFOAM: The Open Source CFD Toolbox           |
|  \\    /   O peration     | Version:  v2012                                 |
|   \\  /    A nd           | Website:  www.openfoam.com                      |
|    \\/     M anipulation  |                                                 |
\*---------------------------------------------------------------------------*/
FoamFile
{
    version     2.0;
    format      ascii;
    class       volScalarField;
    location    "0.65";
    object      nut;
}
// * * * * * * * * * * * * * * * * * * * * * * * * * * * * * * * * * * * * * //

dimensions      [0 2 -1 0 0 0 0];


internalField   nonuniform List<scalar> 
3019
(
0.04940927019
0.2040729125
0.2694417099
0.3456608845
0.4402130887
0.5727635397
0.7731042492
1.001165693
1.157902072
1.152153788
1.1495956
1.148943474
0.1017222207
0.3023315315
0.3778639542
0.4483590235
0.5346998211
0.6567803966
0.8370781231
1.04001788
1.159362882
1.153122277
1.150235892
1.149481117
0.1471780275
0.406576737
0.5729484295
0.604188017
0.6668573318
0.7746512431
0.9349725933
1.109444546
1.160813722
1.154197387
1.151061257
1.150207696
0.170111159
0.4408384098
0.7327288809
0.8249660607
0.8445934097
0.9261661368
1.065199475
1.171987531
1.16216412
1.155292947
1.151990448
1.151087637
0.2221559263
0.4959804252
0.781916607
0.9929948914
1.080513721
1.114008394
1.174606587
1.173599028
1.163348473
1.156337973
1.152920385
1.151960034
0.288121056
0.5623718958
0.8275507344
1.010796812
1.111625536
1.158678277
1.176569619
1.174798972
1.164315698
1.157270181
1.153822577
1.152838835
0.3399718269
0.6099925177
0.8515317738
1.019984769
1.116314796
1.161296361
1.177874322
1.175606022
1.165035902
1.158021772
1.154581526
1.153586115
0.3610421898
0.6250904845
0.8636683629
1.026841985
1.119650582
1.163003498
1.178648965
1.176075302
1.165590529
1.158676293
1.155265577
1.154259344
0.3749365854
0.6360199342
0.8722340184
1.031921236
1.121991926
1.164048549
1.179008488
1.176272521
1.16593085
1.159137212
1.155766974
1.154753232
0.3861139949
0.6443347303
0.8777522693
1.035472393
1.123560651
1.164606794
1.179050469
1.176260537
1.16617083
1.159532961
1.156204679
1.15517843
0.3950487431
0.6506125225
0.8810345964
1.037630212
1.124473107
1.164787872
1.178854379
1.176092154
1.166238821
1.15974452
1.15645538
1.15541756
0.4021587061
0.6552784153
0.8827922345
1.038587517
1.124797845
1.164656211
1.17847847
1.175807167
1.166267683
1.159937325
1.156681712
1.155625744
0.407789689
0.6586559981
0.8834804899
1.038594475
1.12460423
1.164256639
1.177963876
1.175433957
1.166146731
1.159952061
1.156724209
1.155650936
0.4122155797
0.6609955942
0.8833711757
1.037881457
1.123973083
1.163629363
1.177340455
1.174991919
1.166037192
1.159996622
1.156790241
1.155693205
0.4156429258
0.6624875072
0.8826346447
1.03662356
1.122984674
1.162812731
1.176631124
1.174495421
1.165781869
1.159861647
1.156673087
1.155554759
0.4182555363
0.6632753942
0.8813901812
1.034946072
1.121707573
1.161840413
1.175853796
1.173955198
1.165583007
1.159802475
1.156626111
1.155480873
0.4201908974
0.663480642
0.8797326436
1.032938114
1.120195005
1.160739487
1.175022202
1.173379457
1.16523074
1.159558596
1.156394738
1.155227199
0.421567128
0.6632080438
0.8777370754
1.030661204
1.118485304
1.159529761
1.174145938
1.172774806
1.164971579
1.159422939
1.156265735
1.155070603
0.4224803227
0.6625377125
0.8754586062
1.028156954
1.116604839
1.158224788
1.173230961
1.172144153
1.164554311
1.159110343
1.155964051
1.154748093
0.4230188788
0.6615340395
0.8729387784
1.025454354
1.114571339
1.156832645
1.172280469
1.17149235
1.164237897
1.158899483
1.155757867
1.154515061
0.4232669666
0.6602495773
0.8702086803
1.022573086
1.112396534
1.155358191
1.171296247
1.170816221
1.16380392
1.158572869
1.155441539
1.154181499
0.4232810614
0.6587218346
0.8672884735
1.019527154
1.110090148
1.153806983
1.170281962
1.170126233
1.16338263
1.158248522
1.155124712
1.153838658
0.4230929849
0.6569745893
0.8641917543
1.016329675
1.107662304
1.152183252
1.169252446
1.169421799
1.163041954
1.157991979
1.154876323
1.153578115
0.4227355318
0.6550436946
0.8609480905
1.013004135
1.105126044
1.150489518
1.168277053
1.168776622
1.162409755
1.157492308
1.154393105
1.153067349
0.03745096271
0.04644757499
0.1799725675
0.07349692205
0.03845356595
0.09625637895
0.2456295765
0.1831520605
0.1030429583
0.07527305279
0.1414822935
0.05915355505
0.05667462635
0.07101183857
0.1584670394
0.1455068719
0.02560377493
0.04482944193
0.02306725532
0.03117822823
0.08158520508
0.04797471421
0.1416391893
0.3350275243
0.2755931588
0.09734816381
0.08587274907
0.03336327478
0.1959510627
0.1648689111
0.0740861137
0.08149588515
0.008913545473
0.01599082066
0.02559726232
0.06704351595
0.01299994159
0.01333396943
0.03076920195
0.01323545187
0.01297382678
0.01367012621
0.01314040779
0.01324990698
0.01657340456
0.01419787097
0.02173209281
0.01799241218
0.01342629658
0.009274669594
0.01757069405
0.01267576094
0.01313587224
0.1864477693
0.2352000105
0.03261011974
0.01384686797
0.01630202987
0.01238649223
0.01383281768
0.02368318877
0.04651338536
0.01320235371
0.009564671086
0.009617679498
0.01348864546
0.01319762371
0.02914584225
0.0240335181
0.01290125834
0.01279009046
0.01298103963
0.01313202109
0.009207445914
0.01294824093
0.01314009272
0.01334104713
0.01348074364
0.01337351526
0.01326224282
0.01314338326
0.01329363665
0.01382996017
0.01369308356
0.01324883265
0.0137307122
0.01425620229
0.0141306323
0.01306572928
0.01264194347
0.01277880458
0.01280292408
0.01273911933
0.01302900809
0.251175162
0.3050398751
0.3259587285
0.3952843283
0.4220067803
0.5136099566
0.05901947128
0.1120080465
0.1016841851
0.2694999871
0.3280812436
0.2528107607
0.3451222371
0.399136516
0.3250725315
0.4185498949
0.4830988191
0.4141103689
0.506733561
0.5892178857
0.531384697
0.1141979511
0.2241448499
0.204556729
0.3999341446
0.5054070741
0.3624824574
0.5141536999
0.5455062995
0.4299774749
0.5592077004
0.610120225
0.5109282763
0.6311045807
0.7003998125
0.6139267978
0.09301494258
0.07994116591
0.1620686846
0.360890873
0.3405621853
0.4305350857
0.6484296224
0.5704013726
0.721629632
0.7640665446
0.593249588
0.7637540039
0.7830181173
0.6470438766
0.7957500498
0.8542141938
0.7368135483
0.1357040578
0.100363927
0.2066137402
0.4062328239
0.3699655594
0.4803108882
0.69937099
0.6599799806
0.7692613486
0.9424926368
0.8329397713
0.9869284335
1.011238761
0.8347421266
1.013029273
1.046644324
0.90025759
0.2077280786
0.1518021244
0.2720210225
0.4710696898
0.4212125141
0.5461859759
0.7546616371
0.7135149392
0.8174872998
0.9692758525
0.9501072111
1.00759106
1.090786869
1.084686414
1.110183947
1.149576371
1.105040839
0.2737818307
0.2266964792
0.329732234
0.5300723447
0.4878641901
0.6014338504
0.7928657809
0.7667492946
0.847872238
0.9827359419
0.9739365721
1.017937527
1.096794134
1.092477901
1.115286789
1.152870964
1.150518456
0.3004620875
0.2842943046
0.3570860964
0.5540047579
0.5400679128
0.6218567359
0.8075507718
0.7971552593
0.86098168
0.9914306223
0.985146001
1.025309885
1.101134917
1.098015914
1.118921488
1.155100833
1.153516047
0.3133676069
0.3039089086
0.3717375497
0.5670175262
0.557593216
0.6335603901
0.8176646498
0.8104615625
0.8704061958
0.9979263
0.9932454495
1.03080086
1.104255694
1.102016649
1.121485625
1.156546057
1.155526796
0.3240732467
0.3162424687
0.3835479814
0.5770240208
0.5697703256
0.6424667037
0.8243102212
0.8196101577
0.8766154708
1.002517174
0.999247252
1.034720845
1.106433375
1.104881767
1.123233304
1.157409359
1.156810573
0.3328247793
0.3264347209
0.3930014793
0.5847287007
0.579145102
0.6492089699
0.8285435675
0.8255587731
0.8803803653
1.005376837
1.003386805
1.037212503
1.107807998
1.106849422
1.124302587
1.157823826
1.15755187
0.3399053358
0.3347406858
0.4005323589
0.5906281609
0.5863576419
0.6542441432
0.8311478012
0.8293258807
0.8824670931
1.006780201
1.00585166
1.038447332
1.108457558
1.108035938
1.124768254
1.157866072
1.157867704
0.3455969247
0.3414484883
0.4065043224
0.595088775
0.591866721
0.6579177003
0.8325853442
0.8316042672
0.8833916692
1.007069494
1.006944645
1.038668414
1.108466271
1.108516392
1.124696945
1.157585533
1.157825044
0.3501432011
0.3468325954
0.4112112589
0.5983903869
0.5960140068
0.6604967578
0.8331338597
0.8327981868
0.8834628774
1.006539695
1.007004765
1.038116728
1.107937437
1.108380615
1.124167386
1.157026605
1.157470672
0.3537334833
0.35112323
0.4148685522
0.6007449351
0.5990612001
0.6621856318
0.8329746795
0.8331552325
0.8828705857
1.005400567
1.006305986
1.036981608
1.106974402
1.107733923
1.123261292
1.156233868
1.156849117
0.3565356501
0.3545022037
0.4176708511
0.602312573
0.6012054541
0.663137628
0.8322372948
0.8328405891
0.8817434997
1.003794944
1.00503877
1.035399468
1.105665202
1.106676816
1.12205079
1.155248126
1.156004493
0.3586908515
0.357129364
0.4197640667
0.6032247102
0.6025973736
0.6634777976
0.8310260946
0.8319754672
0.8801813302
1.00182311
1.003333383
1.033467359
1.104077891
1.105292418
1.120592919
1.154102883
1.154975983
0.3603321196
0.3591449324
0.421269855
0.6035949274
0.6033646953
0.6633162789
0.8294284862
0.8306601871
0.8782643759
0.9995558545
1.001282048
1.031253132
1.102261783
1.103643963
1.118929611
1.152823395
1.153795118
0.3615438987
0.3606720242
0.4222911627
0.6035159136
0.6036137944
0.6627388966
0.8275108317
0.8289770814
0.8760523095
0.9970414656
0.9989491291
1.028802581
1.100250732
1.101776415
1.117089875
1.151427232
1.15248504
0.3623958939
0.3617863111
0.4229149269
0.6030646692
0.6034352693
0.6618130524
0.825322763
0.8269875592
0.8735894879
0.994313902
0.9963786307
1.026147407
1.098067802
1.099720541
1.115093363
1.149925563
1.151061617
0.3629711292
0.3625600511
0.4232304171
0.6023067377
0.6029010634
0.6605950129
0.822902922
0.824738269
0.8709096218
0.9913969337
0.9936017833
1.023309317
1.095728269
1.097497222
1.112952933
1.148325072
1.149534693
0.3633368733
0.3630752455
0.423302584
0.6013036905
0.6020774074
0.6591255372
0.8202779838
0.8222650978
0.868035647
0.9883068367
0.990640179
1.020303416
1.093243597
1.095120362
1.110678563
1.146632184
1.147910488
0.3635304473
0.3633895061
0.4231697504
0.6000724345
0.6010149843
0.657433287
0.8174637033
0.8195913306
0.8649819795
0.985056523
0.9875086924
1.017142442
1.090624728
1.092600995
1.108280076
1.144852619
1.146195371
0.3635708242
0.3635336413
0.4228524601
0.5986219837
0.5997253323
0.6555310235
0.8144743652
0.8167312453
0.861763529
0.9816627955
0.9842205083
1.013843395
1.087886853
1.089950429
1.105771353
1.142995302
1.144395021
0.3634623036
0.3635354858
0.4223317624
0.596853532
0.5982393038
0.6533084635
0.8111260453
0.8137152834
0.8581880104
0.9779426508
0.9808011067
1.010234903
1.084905222
1.087184571
1.103044014
1.1409967
1.142513909
0.03560341436
0.02897297036
0.03065593296
0.06110372675
0.05772491922
0.04317962068
0.1631960848
0.143479495
0.1532189674
0.06847948652
0.02556655621
0.0175692562
0.02259679178
0.03926049258
0.1321543989
0.1265792647
0.08429306215
0.2130308433
0.1807187615
0.2163626783
0.157499014
0.1732567373
0.2062225367
0.08554002279
0.07335297137
0.1381710007
0.1066371375
0.1172239013
0.1022684122
0.1363677174
0.01955761384
0.02803786531
0.04579475507
0.04833135934
0.06210790685
0.05374029593
0.04045844364
0.0431766431
0.1267236189
0.1149434653
0.0623619257
0.1536935327
0.1380967492
0.1425559906
0.1225716773
0.1331184384
0.1495614798
0.01733631917
0.01903036626
0.02721515569
0.01424459138
0.01438393943
0.01382494002
0.04252673148
0.02439919776
0.02953074084
0.02119815024
0.01465976037
0.01574208527
0.04746667559
0.04406833866
0.02571545352
0.07784318123
0.0597075345
0.06328377561
0.05594614591
0.07367050448
0.03522234793
0.03842686909
0.05083493197
0.01473105732
0.01427992984
0.03034155149
0.0304152847
0.2104447234
0.2044440187
0.11982447
0.3292326487
0.2712721995
0.2770538509
0.2385347345
0.2645361071
0.3194945209
0.09385936726
0.07465507655
0.07824891855
0.06713012135
0.07075995405
0.08949966288
0.04008147516
0.05412723439
0.05072168381
0.1830144453
0.1629421959
0.1661495563
0.1479338219
0.1548253148
0.1725519381
0.08081058606
0.1243558637
0.1181021664
0.0779943265
0.04797332526
0.05145777209
0.01476627715
0.0123948119
0.0126032867
0.03544555186
0.03363606679
0.04007491475
0.03845879918
0.0236708119
0.06403561766
0.05095960764
0.05296222298
0.01296285852
0.01409783454
0.01338023785
0.01612601929
0.01507827624
0.0130831691
0.02940079351
0.02103576354
0.0231506093
0.01577492786
0.0139478646
0.01416727912
0.0135843912
0.01363914072
0.01480570838
0.02074759252
0.01560541674
0.01623345981
0.01448560943
0.01502902365
0.01887878524
0.01316608906
0.01375791627
0.019107216
0.2055537672
0.1923251213
0.1733324696
0.2196149422
0.2045046575
0.2187859471
0.02512884718
0.0270448963
0.0341246832
0.01437332068
0.01879425864
0.0174633091
0.02238466192
0.02078136535
0.01527085585
0.03168887025
0.03020900369
0.02154487283
0.04321487742
0.03737293518
0.03740171085
0.0351131141
0.04210718319
0.01575764978
0.01520165379
0.02751578169
0.01983449918
0.02126708746
0.01713090661
0.01841838205
0.02533718659
0.5457706742
0.6448480561
0.7492482688
0.8561601359
0.9756988666
1.113037282
0.05265314982
0.06809022527
0.06471413968
0.2212516254
0.2404652489
0.2212779503
0.2907313497
0.3090306003
0.2876870171
0.3670834808
0.3891420821
0.3669140589
0.4612618125
0.4889460441
0.4688209763
0.622192897
0.7161370309
0.6752234845
0.8013776841
0.899596225
0.8765224106
0.9997907734
1.12562777
1.09997068
0.1060370238
0.1422781301
0.1373231953
0.3442757643
0.3624334859
0.3209499018
0.4174649265
0.4331701885
0.395074511
0.4813229202
0.5002725365
0.4678006879
0.563166923
0.5883552003
0.5601367672
0.7265883995
0.8103597109
0.7612880055
0.882019978
0.9697048877
0.932472672
1.049310287
1.16623098
1.1271666
0.1514096589
0.2194965006
0.2155165408
0.4136621871
0.4845332422
0.476665052
0.6414469797
0.6384904558
0.5780557465
0.6530531893
0.6628444036
0.6167138142
0.7068200664
0.7257866783
0.6883164684
0.8669478552
0.9307924735
0.8664959464
0.9955863596
1.0656668
1.015282498
1.130605479
1.167866087
1.167081307
0.1802454052
0.2473283207
0.237902913
0.4525882524
0.5260105145
0.5138141552
0.7444592558
0.8111812929
0.8004778569
0.8934412013
0.8857036463
0.8243684098
0.8967385833
0.9083943717
0.8573544927
1.040382411
1.085703179
1.002718741
1.145811432
1.174398924
1.127906625
1.172787397
1.169327168
1.168655131
0.2385828815
0.300385265
0.2852289257
0.5124854154
0.5854736944
0.5694632863
0.7943795774
0.854897779
0.8442440532
0.9985464211
1.033578821
1.029362989
1.106905087
1.123342165
1.082189441
1.157848676
1.171376091
1.169973065
1.175679035
1.176278266
1.175438354
1.17427013
1.17051203
1.169982821
0.303333952
0.365087521
0.3491832784
0.5773098956
0.646400031
0.6325255345
0.8360880545
0.8890226327
0.8822162993
1.013369008
1.044604727
1.042435995
1.112950876
1.128537333
1.127403177
1.160740292
1.173482669
1.172537468
1.177296533
1.177533694
1.176967572
1.175264615
1.171387872
1.171009246
0.3482191186
0.4120542228
0.4040233
0.6146451927
0.6796931785
0.6753945112
0.8549191355
0.9039432968
0.9009295606
1.021890229
1.051812583
1.050207904
1.117259535
1.13219689
1.131399827
1.162648266
1.174827091
1.174237615
1.178320629
1.178307879
1.177971604
1.175891952
1.171980081
1.171742202
0.3647992946
0.4282233381
0.4245538642
0.628110153
0.6930596901
0.6901445749
0.8661322479
0.9140165848
0.9117835349
1.028265383
1.057153506
1.055965432
1.120318702
1.134747551
1.13419607
1.163838639
1.175595761
1.175273169
1.178874468
1.178696656
1.178541739
1.176214678
1.172329527
1.17220842
0.3779676964
0.4410257096
0.4380872418
0.6383191635
0.7025367505
0.7004532678
0.8738708571
0.9211499824
0.9196273352
1.032947551
1.061057991
1.060202027
1.122450964
1.136477483
1.136110412
1.164505128
1.175936129
1.175811978
1.179063861
1.178791121
1.178773286
1.176298243
1.172478162
1.172453306
0.388541219
0.4512462218
0.4489055367
0.6460773193
0.7093712273
0.7078633259
0.8787510908
0.925692038
0.9247699299
1.036137056
1.063734081
1.063174054
1.123847586
1.137566685
1.137347956
1.164772695
1.175953552
1.175980074
1.178978192
1.178666237
1.178750432
1.176200649
1.172473192
1.17251929
0.3969830745
0.4593618168
0.4575071685
0.6519166803
0.7143022118
0.7132200643
0.8815956686
0.9282281057
0.9277471818
1.037973084
1.065291317
1.06500023
1.124607171
1.138115223
1.138025148
1.164714404
1.175720366
1.175864738
1.178686073
1.178377901
1.17853825
1.175968414
1.172346514
1.172450004
0.4036934638
0.4657684248
0.4643082753
0.6562331845
0.717779807
0.7170281892
0.8830520264
0.929351667
0.9291769091
1.038668869
1.065870146
1.065807391
1.124795226
1.138184944
1.138209311
1.164377978
1.175287264
1.175526226
1.178236486
1.177966447
1.17818449
1.175634962
1.172130216
1.172273539
0.4090003839
0.4707870808
0.4696471685
0.6593301836
0.7201112028
0.7196223414
0.8835204247
0.9294846557
0.9295278026
1.038476196
1.065653641
1.065772159
1.124484397
1.137834749
1.137958173
1.163804008
1.174692349
1.175007979
1.177664241
1.177460331
1.177722963
1.17522426
1.171838387
1.172017653
0.413157804
0.4746913025
0.4738044029
0.6614420787
0.721522215
0.7212457031
0.8832409196
0.9288889381
0.9290960668
1.03761269
1.064818216
1.065076677
1.123756708
1.137129472
1.137335513
1.163031438
1.173966562
1.174344086
1.176995366
1.176880199
1.177177831
1.174752292
1.171491616
1.171693954
0.4163667001
0.4776974323
0.4770233463
0.662745737
0.7221809026
0.722079257
0.8823673923
0.9277284288
0.9280647334
1.036239733
1.063505552
1.063872126
1.122690265
1.136132197
1.136405771
1.162095351
1.173135434
1.173562744
1.176250116
1.176241723
1.17656689
1.174232227
1.171094139
1.171321142
0.4187986098
0.4799279917
0.4794363157
0.6633769634
0.7222167605
0.7222598427
0.8810114345
0.9261168125
0.9265568638
1.034472429
1.061821132
1.062272484
1.121349895
1.134896385
1.135225233
1.161024504
1.172219323
1.172686836
1.175444381
1.175557107
1.175904066
1.173672573
1.170661467
1.170901744
0.4205830671
0.4815059091
0.4811667686
0.6634538697
0.7217415252
0.7219027439
0.8792631294
0.9241409001
0.9246651458
1.032392345
1.059840698
1.060360379
1.119784954
1.133463347
1.133838311
1.159840544
1.171233349
1.171734075
1.174589919
1.1748355
1.175199686
1.173082121
1.170194226
1.170451901
0.4218356136
0.4825316907
0.4823212759
0.6630750492
0.7208479101
0.7211064501
0.8771922395
0.9218650934
0.922459434
1.030055212
1.057616145
1.058193067
1.118030422
1.131862609
1.132277311
1.158558496
1.170187247
1.170716738
1.173694768
1.174083445
1.174461601
1.172464262
1.16970153
1.169967413
0.4226464342
0.4831033254
0.4829983995
0.6623157125
0.7196050922
0.7199453799
0.8748499507
0.9193357991
0.9199898433
1.027499088
1.055182811
1.055809253
1.116110349
1.130114455
1.13056451
1.157187618
1.169087746
1.169642283
1.172764058
1.173305348
1.173694181
1.171825881
1.169188446
1.169464104
0.4231063158
0.4832978357
0.4832797948
0.6612377462
0.7180681737
0.7184772859
0.8722750357
0.916587492
0.9172935716
1.024750253
1.052564733
1.053235572
1.114040558
1.128231937
1.128714641
1.15573314
1.167940682
1.168516261
1.171801232
1.172504509
1.172900847
1.171166029
1.168648098
1.168931232
0.4232937636
0.4831915797
0.4832417645
0.659889308
0.7162811578
0.7167495233
0.8694958964
0.9136448236
0.9143977073
1.021826603
1.049778236
1.050489917
1.111831941
1.126224084
1.126737327
1.154200622
1.166748289
1.167342269
1.17080861
1.171682653
1.172081853
1.170493216
1.16811045
1.16838569
0.4232598822
0.4828370631
0.4829428863
0.6583060191
0.7142717647
0.7147934661
0.8665303824
0.9105237729
0.9113200111
1.018741431
1.046836003
1.047585467
1.10949416
1.124099331
1.124640998
1.152594049
1.165509674
1.166121424
1.169783751
1.170837675
1.171241919
1.169797762
1.167522051
1.167812862
0.423033478
0.4822687908
0.4824197623
0.656508479
0.7120574837
0.7126275353
0.8633926423
0.9072384401
0.9080737619
1.015509034
1.043752039
1.044535053
1.107038347
1.121867372
1.122434431
1.150919471
1.164203807
1.164864721
1.168697044
1.169942177
1.17039206
1.169065853
1.166958503
1.167238188
0.422620855
0.4814887536
0.4817088169
0.6544856308
0.7096241784
0.7102859892
0.8600778674
0.9037865734
0.9046874865
1.012135705
1.040534951
1.041359879
1.104477002
1.119541105
1.120127768
1.149128327
1.16273177
1.163639058
1.16750286
1.1689728
1.169595871
1.168273514
1.166276912
1.166699523
0.1721188969
0.1644781249
0.1694009827
0.0707050464
0.0564443876
0.05814958893
0.03277855161
0.03352627037
0.04136995014
0.1796806061
0.1813639255
0.1902917058
0.1312746604
0.1367883532
0.08745443679
0.08483387238
0.06849127566
0.0380768647
0.03622226466
0.02953674697
0.02066311888
0.0196880652
0.03388657486
0.0420975645
0.0391299224
0.07626499454
0.09297896128
0.0902905575
0.02349591068
0.0223920501
0.2686097252
0.2517894086
0.2349448337
0.2879575286
0.2696420126
0.2866887224
0.347579555
0.3299475828
0.3083194179
0.3777521091
0.3527320115
0.3702513931
0.4509182097
0.4337232138
0.4046355581
0.4983182141
0.4647094824
0.4816797987
0.07486767581
0.0716622042
0.055930973
0.1085505248
0.08947307111
0.09271731686
0.08214382472
0.08565211241
0.1050234321
0.2880384761
0.2622388037
0.2430682018
0.2987270156
0.2778929299
0.3064898072
0.2350863393
0.2543379622
0.2738356456
0.3627340221
0.3344159686
0.316015863
0.3710019695
0.3526694217
0.3806413087
0.306152351
0.3273672161
0.3466769456
0.4384723769
0.4119750025
0.3899898001
0.4584152925
0.4343235306
0.4595816471
0.3898254435
0.4115429521
0.4354735388
0.5340271901
0.5116043924
0.4835670449
0.5685212479
0.5399156077
0.5628760733
0.4990157887
0.5184330514
0.5477218925
0.150849292
0.1463355767
0.1114242936
0.1721326414
0.1751633461
0.2096823061
0.4692947992
0.414277435
0.3933315727
0.4506474896
0.4339387743
0.4935380229
0.3415889549
0.3838091269
0.4030574004
0.5241015393
0.4756070995
0.4623945856
0.5034202296
0.4892247823
0.5346895296
0.4126326738
0.4484717229
0.4638162658
0.5744774857
0.5355622257
0.5193092403
0.5731224061
0.5536313789
0.591382745
0.4888980966
0.5203783608
0.5407302443
0.6525125056
0.6190730263
0.5950026613
0.6698043101
0.6434672313
0.6752669917
0.5871970402
0.6149069953
0.6398064522
0.08764338321
0.08379346754
0.2302220829
0.2241933905
0.1559406268
0.3531361328
0.2918860511
0.2984326375
0.2817906031
0.2864648645
0.3464675872
0.5029018188
0.4931974324
0.4215467711
0.6377672176
0.5653041829
0.5755400913
0.5475280979
0.5560269372
0.6279233227
0.7880205715
0.707841569
0.7112112156
0.7026252407
0.7019607068
0.7712971725
0.5849625332
0.640734453
0.6455198619
0.7666889511
0.7128068941
0.7063272976
0.7345820053
0.7223228168
0.7732083005
0.631086807
0.6749836294
0.6893878035
0.8102739196
0.7664813558
0.7498281473
0.813356844
0.7866747002
0.8303424827
0.7099476009
0.7468383818
0.7723268758
0.1218040561
0.1099885594
0.2711844792
0.2585021422
0.1924358793
0.3926204027
0.32717871
0.3400284928
0.3063972401
0.3159567033
0.3805174409
0.5540309979
0.5394596422
0.465767837
0.6855852991
0.6127245253
0.6270758488
0.5868506638
0.59926425
0.6723921901
0.8332567129
0.8221636533
0.7566947037
0.9345388926
0.8816587333
0.8911911888
0.8508612681
0.8720598799
0.911732916
1.024647579
0.9547603226
0.9720196223
0.9478782656
0.9479795435
1.018414756
0.8277722735
0.8858504824
0.8899205884
1.019937345
0.9623930847
0.9524806789
0.9965927719
0.9764443401
1.031717889
0.8757677725
0.9251400354
0.945461381
0.1885573534
0.1695748112
0.3327425875
0.3163655374
0.2553669921
0.4540703123
0.3860993289
0.4027360983
0.3543532138
0.369791787
0.4372646891
0.6174947004
0.6016032441
0.529379583
0.7415376064
0.6726182715
0.6873930207
0.6420672144
0.6573830233
0.7276744695
0.8741564667
0.8649425364
0.8063526238
0.963663543
0.917505455
0.924827255
0.900477365
0.9093132014
0.9572146676
1.040073428
1.037175733
1.003449738
1.088952203
1.065385372
1.067552663
1.059727807
1.062812705
1.086953321
1.126165749
1.124815313
1.108614208
1.148543619
1.137979421
1.139153943
1.090106851
1.136697761
1.147418116
0.260207187
0.2445200274
0.3931396099
0.3799857061
0.3172513001
0.5180864283
0.4496814702
0.4620807631
0.4193317638
0.4350730245
0.5036003957
0.6683030276
0.6583608955
0.5906247879
0.7861707483
0.7241047302
0.7327714709
0.7011542817
0.7136538026
0.7773166684
0.8976981478
0.8941199488
0.843155443
0.9801522267
0.9396620429
0.9426797901
0.9311061688
0.9361261086
0.9773598437
1.048478573
1.046614831
1.015736396
1.095470481
1.073079075
1.074651188
1.069542038
1.071379666
1.094034693
1.130528412
1.129576612
1.114168031
1.152159511
1.142105459
1.142924273
1.140227533
1.141208839
1.151377958
0.2968513883
0.2926017786
0.4206761845
0.4165769699
0.3529115609
0.5501649327
0.4833134113
0.4871389722
0.4723908325
0.4791921753
0.5459922853
0.6869638362
0.6834902979
0.6183877497
0.8043700179
0.7459295889
0.7492955633
0.7382016304
0.7422478223
0.8009079561
0.9093634416
0.9067521773
0.8580663035
0.9894819562
0.9505489578
0.9528262055
0.9454866572
0.9481053585
0.9873896948
1.054683624
1.053301888
1.023661713
1.100178705
1.078694404
1.079846152
1.076105162
1.077449804
1.099140962
1.133590049
1.132925311
1.118126175
1.154626419
1.144966775
1.145527001
1.143670426
1.144349428
1.154099796
0.3103568537
0.3072042106
0.4349801738
0.4316955657
0.3683605675
0.5640810354
0.4974796542
0.5005700861
0.4907710995
0.4942153421
0.5609440888
0.6981919626
0.6957345885
0.6309276415
0.815503222
0.7576760319
0.7599712451
0.7523611743
0.7551467174
0.8131065515
0.9179345146
0.9160658886
0.8683750556
0.9964882454
0.9587150643
0.9603787579
0.9549427643
0.9569039819
0.9949287378
1.059267936
1.058253011
1.029583172
1.103572202
1.082802227
1.08363886
1.080910813
1.081894237
1.102826956
1.135701539
1.135248331
1.120928894
1.15624615
1.146903266
1.147272636
1.146033917
1.146491266
1.155907171
0.3215907249
0.3189812946
0.4464268776
0.4438029609
0.380834626
0.5747617449
0.5088569424
0.5113156114
0.5034915693
0.5062512959
0.5723468277
0.7062288728
0.7044574895
0.6404641503
0.8229142741
0.7656568063
0.7672165329
0.7620526046
0.7639411486
0.8213529912
0.9237122687
0.9225088971
0.8753261543
1.001539724
0.9645081226
0.9656104616
0.9618965862
0.9632716316
1.000450292
1.062542371
1.061837589
1.033879742
1.105968125
1.085748658
1.086326814
1.084406907
1.085109271
1.105451375
1.13709446
1.136804918
1.122863885
1.157239956
1.148150979
1.148374858
1.147602097
1.147893914
1.157040653
0.3308053611
0.3286764138
0.4555404852
0.4534557412
0.3908341858
0.5829888292
0.5178720463
0.51980794
0.5136328848
0.5158157976
0.5811297034
0.7120420002
0.7107615846
0.6476992223
0.8276623272
0.7710919964
0.7721550199
0.7686336706
0.7699213929
0.8266708909
0.9271705379
0.9264888995
0.8796227135
1.004811542
0.9681655318
0.9687907865
0.9665829736
0.9674320501
1.004149557
1.064645219
1.06422393
1.03671583
1.107535244
1.087704577
1.088049836
1.086844559
1.087303221
1.107215929
1.137904285
1.137751848
1.124094374
1.15775777
1.148862511
1.14896804
1.148567207
1.14872911
1.157667007
0.3382760532
0.3365555903
0.4627571553
0.4611102217
0.3988088028
0.5893010759
0.5249488907
0.5264598527
0.5216286065
0.5233400814
0.5878790047
0.7162012042
0.7152943486
0.6531251659
0.8306203084
0.7747714046
0.7754755233
0.7731175887
0.7739872435
0.8300149031
0.9289356672
0.9286218247
0.8820704082
1.006547213
0.9700892484
0.9703551005
0.9693145836
0.9697446903
1.006239375
1.065692022
1.065521056
1.038243893
1.108359068
1.088761349
1.088896907
1.088339855
1.088576273
1.10821886
1.138206414
1.138175423
1.124705066
1.157887903
1.149126394
1.149129237
1.149046707
1.149098991
1.157888181
0.3442900838
0.3429084604
0.468433726
0.467142154
0.4051402365
0.594092145
0.5304522995
0.5316187542
0.5278774637
0.5292065809
0.5930193141
0.7190731441
0.7184602717
0.657111303
0.8323182091
0.7771525884
0.7775816536
0.7761038645
0.7766612384
0.8319923394
0.929522619
0.9294654045
0.8832501386
1.007084142
0.9707395708
0.9707490086
0.9705480488
0.9706741874
1.0070439
1.065849617
1.065883296
1.038694405
1.108518775
1.089025474
1.088983582
1.088984561
1.08902653
1.108535956
1.138058357
1.138134354
1.124761054
1.157683897
1.148998399
1.148911073
1.149108406
1.149064308
1.157763475
0.3491032744
0.3480006866
0.472859648
0.4718552129
0.4101404059
0.5976610367
0.5346789998
0.5355641143
0.5327094311
0.5337280285
0.5968698319
0.7209201114
0.7205428935
0.6599424928
0.8330691567
0.7785252379
0.7787360502
0.777951169
0.77826451
0.8329580247
0.9292660363
0.92939652
0.8835134592
1.006736222
0.9704799574
0.9703035297
0.9707062086
0.9706151909
1.006892174
1.065303534
1.065496685
1.038315875
1.108114288
1.088632862
1.088448441
1.088902649
1.088784916
1.108262484
1.13752239
1.137689208
1.12433827
1.157190335
1.148529256
1.14836491
1.14880328
1.148675528
1.157338137
0.3529155765
0.35204644
0.4762988972
0.4755221972
0.4140410117
0.6002357076
0.5378534269
0.5385053552
0.5363858192
0.5371478159
0.5996751675
0.7219369207
0.7217519677
0.6618378287
0.8330732564
0.7790903124
0.7791236401
0.7788988104
0.7790160298
0.8331339863
0.92837142
0.9286468142
0.8830732735
1.005733873
0.9695509638
0.9692338757
0.9700881393
0.9698363916
1.006036314
1.064214183
1.064530158
1.037311955
1.107250777
1.087718036
1.087421665
1.088233222
1.087989081
1.107504355
1.13666372
1.136905289
1.123519001
1.156451944
1.147772047
1.147543818
1.148183457
1.147985404
1.156656841
0.3559012516
0.3552242352
0.4789019688
0.4783230002
0.417041833
0.6019870585
0.5401612039
0.5406205879
0.5391057506
0.5396569529
0.6016186349
0.7222694103
0.7222437305
0.6629616814
0.8324699499
0.7789942677
0.7788811042
0.7791174214
0.7790736008
0.8326715117
0.9269730996
0.9273641197
0.8820697139
1.0042341
0.9681084385
0.9676811709
0.9688865037
0.9685107051
1.004649156
1.062704492
1.063115945
1.035831131
1.106020937
1.086393378
1.086008941
1.087101104
1.086757823
1.106358449
1.135541261
1.135843834
1.122378624
1.155510953
1.14677707
1.14649635
1.14730151
1.147045566
1.155762896
0.3582042795
0.3576846873
0.4807912083
0.480379094
0.4193007111
0.6030514743
0.5417487516
0.542048396
0.5410369586
0.5414123846
0.6028429281
0.7220366608
0.7221418738
0.6634437854
0.8313682543
0.7783533044
0.7781201781
0.7787353835
0.778558854