/*--------------------------------*- C++ -*----------------------------------*\
| =========                 |                                                 |
| \\      /  F ield         | OpenFOAM: The Open Source CFD Toolbox           |
|  \\    /   O peration     | Version:  v2012                                 |
|   \\  /    A nd           | Website:  www.openfoam.com                      |
|    \\/     M anipulation  |                                                 |
\*---------------------------------------------------------------------------*/
FoamFile
{
    version     2.0;
    format      ascii;
    class       volScalarField;
    location    "2.28";
    object      nut;
}
// * * * * * * * * * * * * * * * * * * * * * * * * * * * * * * * * * * * * * //

dimensions      [0 2 -1 0 0 0 0];


internalField   nonuniform List<scalar> 
3019
(
0.06735154831
0.2053376477
0.2751998032
0.3549279465
0.4525263168
0.5879361323
0.7973191759
1.041186285
1.15640933
1.151169735
1.14881607
1.148221809
0.1298163953
0.3028857429
0.3830437905
0.4603079652
0.5514768591
0.6784912035
0.8696938347
1.088239978
1.157548262
1.151880355
1.149221075
1.148511142
0.1808345107
0.4552343192
0.5835116923
0.6284275758
0.6981366779
0.8094459244
0.9808833204
1.166825443
1.158623687
1.152626939
1.149750805
1.148973673
0.197875084
0.4705716723
0.7348883096
0.8833001447
0.9025974632
0.9820260033
1.135396136
1.168023401
1.159588135
1.153386383
1.150361074
1.149528686
0.2072516645
0.4796606096
0.7431472774
0.9464111383
1.07185602
1.136129537
1.16562994
1.168801225
1.160358338
1.154060358
1.150937761
1.150073103
0.216178732
0.4863572993
0.7502976132
0.9506839615
1.073959658
1.13734179
1.166206018
1.169206985
1.160914184
1.154622273
1.15148357
1.150602299
0.225607911
0.49196527
0.7556457814
0.9531344647
1.074696784
1.137595397
1.166235754
1.169265732
1.161222209
1.155000248
1.15188329
1.150999079
0.232351112
0.495114598
0.7576161291
0.9540642014
1.074486872
1.137170944
1.165838281
1.169034628
1.161377201
1.155296489
1.152223014
1.151336285
0.2369720681
0.496684258
0.7565662393
0.9536326909
1.073576241
1.136263965
1.165111265
1.16857416
1.161327889
1.155411115
1.15239334
1.151507626
0.2401413189
0.4970031233
0.7536158634
0.9517446044
1.072064313
1.134992402
1.164134718
1.167938686
1.161199429
1.155488674
1.152529111
1.151637877
0.2421451562
0.4963214554
0.7497251746
0.9485078045
1.069937835
1.133398447
1.162959058
1.167171039
1.160916186
1.155404497
1.152502673
1.1516063
0.2431805907
0.4949308174
0.7454089713
0.9442881971
1.067173189
1.131474413
1.161605374
1.166299807
1.160620774
1.155338442
1.1524908
1.15158189
0.2436734617
0.49312926
0.7408803488
0.9394294669
1.063798686
1.129204249
1.16008396
1.165344936
1.160197182
1.155121566
1.152324696
1.151404188
0.2438843009
0.4911221052
0.7362469109
0.9341406689
1.059881088
1.126597617
1.158416715
1.164325729
1.159815894
1.154973912
1.152222549
1.151283613
0.2438090744
0.4888934647
0.7314760757
0.9285074085
1.055513475
1.12371193
1.156648279
1.1632672
1.159314729
1.154672151
1.15196191
1.151006625
0.2433969555
0.486260414
0.7263601904
0.9225098617
1.050807893
1.120648784
1.154841358
1.162199238
1.158907867
1.154485032
1.151807984
1.15082912
0.2426004263
0.4831425003
0.7207687999
0.9161921122
1.045900387
1.117531853
1.153063783
1.161153065
1.158380558
1.154134793
1.151486954
1.150487536
0.2414589295
0.4795643692
0.7147511268
0.9096384039
1.040950971
1.114480513
1.151372599
1.160155629
1.157994012
1.153933894
1.151304117
1.150275787
0.2400474603
0.4756196756
0.7084425764
0.9030328978
1.036113944
1.11158574
1.149802162
1.159222348
1.157485381
1.15357299
1.150960022
1.149908053
0.2384213422
0.4714278531
0.7020120178
0.8965371152
1.031502046
1.108893964
1.148360751
1.158359808
1.157131023
1.153360109
1.150751492
1.149665895
0.2366193365
0.4669623825
0.6954811523
0.8902639183
1.027182855
1.106413514
1.14703754
1.157558589
1.156686469
1.153039327
1.15043757
1.149328297
0.2342182854
0.4619882199
0.6890256257
0.8844316484
1.023245761
1.104145907
1.145816826
1.15681734
1.156310081
1.152773699
1.150169085
1.14902242
0.2311535724
0.4568979001
0.6831330477
0.8793990445
1.019838395
1.102097239
1.144694392
1.156124033
1.15602568
1.152572442
1.149967065
1.148800454
0.2287818187
0.4532076714
0.6791393287
0.8757581256
1.01705986
1.100259803
1.143718261
1.155536315
1.155549542
1.152225578
1.149614607
1.148402391
0.05001261537
0.06307053526
0.1807002273
0.09547907499
0.05146371276
0.1220769633
0.2448517077
0.1837814607
0.1331511854
0.1008002328
0.1430796521
0.08032937184
0.07734668659
0.09296337202
0.158903433
0.146709339
0.03410079372
0.06124270589
0.0310456849
0.04104888053
0.1055482363
0.06559254
0.1747733859
0.3807730035
0.2754889636
0.1202214028
0.1103776687
0.04432348175
0.1972243458
0.1650836181
0.0965396656
0.1092535015
0.007138939721
0.02106237199
0.03618106832
0.08595380977
0.01089645282
0.01348494958
0.04086611011
0.01092752307
0.01073816921
0.01367156352
0.0108919422
0.01126602007
0.02209465539
0.01522193678
0.03176845631
0.02490465552
0.01104257351
0.007381392486
0.02367951747
0.01053099521
0.01084230642
0.1877841847
0.2397710183
0.04307517745
0.01489852425
0.02142452837
0.01095378015
0.01640418725
0.03152055259
0.06314444651
0.01094524789
0.007696527295
0.007805785277
0.01112569789
0.01100520331
0.04032468314
0.03413498716
0.01053485576
0.01049058623
0.01056418161
0.01064433667
0.007351797607
0.01071589735
0.01083954635
0.01228713908
0.01110299722
0.01089677127
0.0110225608
0.01085350571
0.01152026432
0.01135871436
0.01110846425
0.01106650689
0.01130258855
0.01269172283
0.01200299654
0.01071318531
0.0109486514
0.01086273434
0.01273553934
0.01164764759
0.01055766705
0.2570309959
0.3148315928
0.3354691015
0.4062541796
0.4330899135
0.5253137579
0.0801221171
0.1208337021
0.1206659461
0.2696461477
0.3315053262
0.2573403001
0.3500630478
0.4088855278
0.3339646221
0.4286624274
0.4976689478
0.4257928424
0.523043894
0.6066950924
0.5445324803
0.143619618
0.2646013651
0.2120808361
0.4496459908
0.5107765763
0.36592177
0.5226645248
0.5632607138
0.4411305194
0.5792917403
0.6347207434
0.5266560129
0.6566258076
0.7310067563
0.635110095
0.1198745647
0.1062103665
0.1947150856
0.3990490046
0.3864565346
0.4675615074
0.6693709535
0.5761507283
0.7323745217
0.8069247462
0.6149081768
0.8079501391
0.8323590782
0.6777051685
0.8456174973
0.9045498435
0.7714762449
0.1311428677
0.1231980915
0.205136545
0.408849284
0.4020909252
0.477711988
0.6789469379
0.6721011165
0.7412433706
0.9016493164
0.8920169522
0.9450909283
1.046198947
0.8921808558
1.07104732
1.123852699
0.9574618347
0.1411368077
0.1335404877
0.2138238926
0.4153858086
0.4105736874
0.4847838713
0.6869077574
0.6809956932
0.7485876131
0.9069692018
0.9031103479
0.9497758124
1.049206147
1.047131047
1.073582997
1.125497318
1.124387293
0.1525789698
0.1438946135
0.2233845342
0.4220777674
0.4170423564
0.4907236622
0.6934773628
0.6887771205
0.7546250461
0.9105732177
0.9080628801
0.9526800404
1.050566878
1.049678221
1.074614159
1.126036542
1.125720434
0.1623138929
0.1553442687
0.2309222068
0.4270475063
0.4236264021
0.4944967531
0.6960786681
0.6945026711
0.7574381561
0.9123385418
0.9111705994
0.9539580119
1.050773381
1.050711005
1.074612072
1.125785375
1.126037154
0.1693722086
0.164263776
0.2359635533
0.4299703964
0.4279298341
0.4964167876
0.6955297807
0.6961731409
0.7570542539
0.9124153762
0.9125208094
0.953873524
1.05013098
1.050683992
1.073861595
1.124964849
1.125626456
0.1745318885
0.1708264588
0.2394681214
0.4314383514
0.4304622176
0.4970285427
0.6932574493
0.6950790645
0.7544704938
0.9106686826
0.9121493443
0.9523533828
1.048759363
1.049855101
1.072498239
1.123717419
1.124689206
0.1781266595
0.1755608456
0.2417422128
0.4317141333
0.4316079397
0.4965688965
0.6900867034
0.6925266863
0.7507512153
0.9073262105
0.9099618118
0.9494250342
1.046640878
1.048301011
1.070529094
1.122100011
1.123347398
0.1804503319
0.1788129494
0.2429919
0.4311048146
0.4316299849
0.4953289048
0.6864432328
0.6892073217
0.746512791
0.9029431165
0.9063053911
0.9454138936
1.043759667
1.045990303
1.06792339
1.120104997
1.121637797
0.1819509894
0.1808773286
0.2435785867
0.429970337
0.4308535628
0.4936016021
0.6825429084
0.685485555
0.7420256015
0.8979673694
0.9017418144
0.9406904933
1.040179789
1.042925831
1.064696256
1.117711108
1.11954463
0.1830067213
0.1822496576
0.2438572879
0.4286302767
0.429640773
0.491639471
0.6785173297
0.6815424011
0.7374124287
0.8926333237
0.8966605272
0.9354961687
1.036004476
1.039186932
1.060906585
1.114920452
1.1170498
0.1836885493
0.1832066759
0.2438558662
0.427126596
0.4282748387
0.4894809826
0.6743881925
0.677498467
0.732692219
0.8870291342
0.8912567369
0.9299473981
1.031340816
1.034879652
1.056641681
1.111781986
1.114165404
0.184025705
0.1838026375
0.2435350322
0.4252668327
0.4267014947
0.4869624774
0.6699531122
0.673316755
0.7276822197
0.8810970281
0.8855808008
0.9240370768
1.026289055
1.030109589
1.052009096
1.108394232
1.110953688
0.1840046176
0.1840507432
0.2428363283
0.4228932439
0.4247217909
0.4839679784
0.6650292797
0.6687693407
0.7222118211
0.8748070001
0.8795504674
0.9178004054
1.02096197
1.024976971
1.047137384
1.104886274
1.107522979
0.1836183264
0.1839322108
0.241773677
0.4200382893
0.4222186215
0.4804966413
0.6596184812
0.6637170523
0.7162877253
0.868197294
0.8731787548
0.9112888867
1.015512848
1.019604503
1.042183327
1.101394061
1.104006588
0.1829531124
0.1834647882
0.2404311217
0.4168051252
0.419259319
0.476634343
0.653843691
0.6582017185
0.7100393132
0.8614306567
0.8665118529
0.9046789678
1.010105947
1.014149821
1.037305309
1.098033588
1.100537812
0.1820474692
0.1827267121
0.2388545552
0.413306363
0.4159472937
0.4724948464
0.6478558052
0.6523586583
0.703629382
0.8546822688
0.8597347801
0.8981445562
1.004886107
1.008778435
1.03262992
1.094878011
1.097223766
0.1810042787
0.1817656842
0.2371336907
0.4096032108
0.4123994978
0.4681214055
0.64170804
0.6463341613
0.6971217006
0.8480655933
0.8530110342
0.891802626
0.9999421123
1.003620821
1.028231208
1.09195421
1.094124986
0.1795652957
0.1806440562
0.2349616504
0.4054164189
0.4086072868
0.4632897393
0.635407109
0.6401376193
0.6906024198
0.8417658271
0.8464457534
0.8858366203
0.99537948
0.998760396
1.024186588
1.089275655
1.091260915
0.1774245618
0.1789966859
0.2320147902
0.4007322172
0.4042426241
0.458142518
0.6293697671
0.6338390287
0.6844712299
0.8361037511
0.8402890328
0.8805326283
0.9913885364
0.9943181472
1.020633063
1.086867647
1.088647359
0.1754194098
0.1767685879
0.2292324512
0.3967503645
0.3995484742
0.4539313831
0.6248149115
0.6280257099
0.6799359617
0.8319220967
0.8348984967
0.876542916
0.9881704539
0.9905059576
1.017701404
1.084749383
1.086310639
0.175314926
0.1751167834
0.2286050132
0.3952641825
0.3960597476
0.4522609528
0.6226576612
0.6240302712
0.6776104757
0.8292825252
0.8311226954
0.8738632646
0.9856333414
0.987483273
1.015286881
1.082827953
1.084255926
0.04735040613
0.03872335995
0.04062533936
0.08213903159
0.07784095917
0.05845693057
0.1647960091
0.1454594589
0.1538877467
0.08845894534
0.0358162358
0.0241594017
0.03202034043
0.05273166175
0.1503764147
0.1397593827
0.1068453757
0.2129355085
0.1799641513
0.2164091705
0.1577656444
0.1726061787
0.20581878
0.1135670744
0.09904483333
0.1400097001
0.1285809182
0.1258267825
0.1251110677
0.1391262529
0.02632024344
0.03668701535
0.06310897807
0.06542959397
0.08241420774
0.07354777186
0.05533297868
0.0593467335
0.1260346676
0.1238179878
0.08428239039
0.1542486552
0.1384963061
0.1426853383
0.1309654316
0.1339294931
0.1503519233
0.02352846859
0.02629299191
0.03627556383
0.01458067807
0.01361913982
0.01115232575
0.0573530599
0.03439534972
0.03963045863
0.0287151307
0.0180731138
0.02063873988
0.06442187569
0.05974632493
0.03400997652
0.1012255677
0.08005674279
0.08446864882
0.0753806544
0.09641428425
0.04761999952
0.05188691861
0.06957340338
0.01766992988
0.01608020567
0.04241871655
0.04173279441
0.2507822191
0.2435345575
0.1503992539
0.3742247281
0.3120751123
0.3184733747
0.2388125726
0.2946663204
0.3199017487
0.1192284845
0.09803372348
0.1022304194
0.0891087408
0.0934518645
0.1144386286
0.05396394544
0.07326543888
0.06875214334
0.1836260734
0.1630970472
0.1741111299
0.1477010747
0.1545929089
0.1728060964
0.1015609196
0.1336327649
0.1279021208
0.104485517
0.06742587763
0.07074052847
0.01854648802
0.01161275321
0.01279690274
0.04895973328
0.04671367847
0.05152508075
0.05003623699
0.0342018448
0.08395530586
0.06771704551
0.06871384101
0.01136196584
0.01642548532
0.0143977718
0.02136909573
0.018794802
0.01236808518
0.0387837097
0.02902822164
0.03159482099
0.01963783246
0.01319262404
0.01441200441
0.01141778512
0.01202745733
0.01727453039
0.02983675184
0.01969066655
0.02177909456
0.0160595003
0.01774712828
0.02705873324
0.01438883734
0.01595692502
0.02600286029
0.2079895284
0.1951547111
0.175542338
0.2246846662
0.207780244
0.2215862327
0.03394515466
0.03621111393
0.04543919007
0.01649465851
0.02626361967
0.02390185063
0.03136982033
0.02906706665
0.01881323121
0.0416896245
0.039654141
0.02887582625
0.05868314814
0.05026034529
0.05033942669
0.04676103358
0.0571255571
0.02171774801
0.01979563075
0.03806717376
0.02931118262
0.03155816139
0.02437173798
0.02685802796
0.03582476505
0.5590796568
0.6617002811
0.7713994381
0.8854491504
1.0133461
1.160520805
0.07173369855
0.09067884145
0.0865644124
0.2219415289
0.2417042655
0.2229931551
0.2961632703
0.3155543343
0.2939406569
0.3767626055
0.3990387488
0.3776894616
0.4736573337
0.5021681846
0.4812874588
0.6408353268
0.7400244196
0.6950823689
0.8291842455
0.9344390382
0.9081323787
1.042916189
1.162598989
1.149409847
0.1344502452
0.1731844336
0.1654809336
0.3450626567
0.3640305134
0.3219146026
0.4227771452
0.4405927256
0.4019254798
0.4954949731
0.5163011686
0.4815189938
0.582975083
0.6091177671
0.5779959905
0.7566486554
0.84468191
0.7894174584
0.9207697408
1.014970533
0.9715857661
1.102774414
1.163830245
1.16319561
0.1862929298
0.2619263847
0.2568432784
0.4600095955
0.5293150639
0.524793645
0.6547899574
0.6574534127
0.5930526562
0.6828165352
0.6950572312
0.6434437799
0.7432528665
0.7633626952
0.7200577427
0.9159632543
0.9809514484
0.9082616863
1.051551385
1.129735725
1.068600823
1.167320417
1.164913827
1.164419765
0.2005666994
0.2732775687
0.2713771256
0.4732168099
0.5420099889
0.5394265769
0.7371624039
0.7957484874
0.7936296041
0.9421040046
0.9604059143
0.8810244669
0.9639079509
0.9743136667
0.9155809725
1.121050449
1.156619505
1.064971363
1.165010838
1.168515136
1.167958827
1.168439615
1.165793269
1.165410895
0.2093701644
0.2793200335
0.2778219751
0.48146372
0.5506608271
0.5486556174
0.7450006456
0.8029825141
0.8012920226
0.9476311241
0.9857838021
0.9847113881
1.072541389
1.093289279
1.092708873
1.137144599
1.157882225
1.157389294
1.165995026
1.169290094
1.168988481
1.169065575
1.16638853
1.166155203
0.2185980573
0.2862980719
0.2844208028
0.4878812236
0.5576946756
0.5561178403
0.7519055422
0.809094164
0.8076976671
0.951462713
0.9889667745
0.9883451869
1.074251777
1.094686975
1.094458574
1.137606923
1.158234693
1.158145229
1.16628141
1.169524697
1.169460578
1.169287963
1.166684568
1.166596315
0.2276585354
0.2936805507
0.291997739
0.4929445448
0.5620341351
0.5613267442
0.7564557689
0.8130859325
0.8123336185
0.953495089
0.990479075
0.9902315505
1.074720604
1.094970918
1.094983707
1.137329401
1.157986966
1.158174797
1.166084165
1.169356134
1.169482414
1.169191377
1.16671641
1.166759159
0.2336596569
0.2986341022
0.2975595074
0.4956355035
0.5635335851
0.5633165312
0.7575987087
0.814400971
0.8143344961
0.9540862287
0.990739148
0.9907779486
1.074318189
1.094471699
1.094657227
1.136527827
1.157299166
1.157689774
1.165510541
1.168875412
1.169147676
1.168836165
1.166528886
1.16667747
0.2378873647
0.3020007681
0.3012910445
0.4968722137
0.5636189414
0.5637048525
0.7559600994
0.8130392239
0.8136007511
0.9532986476
0.9898972104
0.9902135304
1.073253501
1.093386743
1.093706562
1.135339603
1.156286169
1.156827977
1.164650317
1.16815912
1.168541227
1.168280569
1.166163966
1.166398182
0.240740433
0.3040552757
0.3036522566
0.4969135439
0.5626571294
0.5629827415
0.7527037164
0.8097453051
0.8106945296
0.9510493754
0.9878978417
0.9885078788
1.071591599
1.09179724
1.092241645
1.133824873
1.15501588
1.15568077
1.163569963
1.167263414
1.167729935
1.167573315
1.165667762
1.165962808
0.2424817223
0.3050409402
0.3048799817
0.4960281972
0.5609115487
0.5614061299
0.74867314
0.8054441743
0.8065764008
0.9475288463
0.984781594
0.9856550518
1.069306002
1.08969282
1.090269083
1.131984776
1.153512797
1.154293207
1.162303876
1.166222842
1.166758978
1.166750082
1.165069113
1.165412941
0.243334423
0.3052630336
0.3052559465
0.4945059195
0.5586463172
0.5592487039
0.7442911515
0.8006913329
0.8019062658
0.9431226443
0.9807704524
0.9818427851
1.066384307
1.087048414
1.087760348
1.129801644
1.151777178
1.152674145
1.160864734
1.16505635
1.165653795
1.165833708
1.164397016
1.164773161
0.2437504263
0.3051220718
0.3051806479
0.4926424128
0.5560939145
0.5567475615
0.7397283094
0.7957126819
0.7969715941
0.9381415347
0.9761079818
0.9773239442
1.062866639
1.083873183
1.084714858
1.127275837
1.149815679
1.150823245
1.159266308
1.163781004
1.164430467
1.164843308
1.163664536
1.164068926
0.2438915882
0.3047128849
0.3048424373
0.4905909091
0.5534016453
0.5540889134
0.7350731146
0.7906050454
0.791893995
0.9327639258
0.9709654371
0.9722897905
1.058826938
1.080215737
1.081171042
1.124451943
1.147665027
1.148760231
1.157541551
1.162423931
1.163110139
1.163800162
1.162896387
1.163313058
0.2437393781
0.3039963668
0.3042087505
0.4882790357
0.5504701862
0.5512388624
0.7302368725
0.785302067
0.7866564558
0.9270479737
0.9654303565
0.9668473734
1.054363655
1.076166193
1.077209106
1.121422217
1.145395682
1.146539739
1.155745403
1.161024949
1.161726515
1.16273277
1.16210549
1.162530923
0.2432339202
0.3029018238
0.3032146131
0.4855266671
0.547076156
0.5479766885
0.7250062281
0.7796216218
0.7810858625
0.9209638083
0.9595289843
0.9610255195
1.049593506
1.071846844
1.072944286
1.118307057
1.143097645
1.144244293
1.153945187
1.159631176
1.160324128
1.161671506
1.161320325
1.161736055
0.2423441501
0.3013914479
0.3018052864
0.4822864996
0.5431421318
0.5441729993
0.719296819
0.7734975041
0.7750737212
0.9145681823
0.9533556004
0.9549190421
1.044660233
1.067404258
1.06851786
1.11522951
1.140859518
1.141965905
1.152205357
1.158287368
1.158949948
1.160647554
1.160554065
1.160958
0.2411338656
0.2995368131
0.3000257741
0.4786083513
0.5387534396
0.539887061
0.7131957659
0.7670420652
0.7686850249
0.9079837522
0.9470446193
0.9486251264
1.039725243
1.0629927
1.064084856
1.112289586
1.138748059
1.139784373
1.150572939
1.157026246
1.157643791
1.159681367
1.15982707
1.160204857
0.2396645813
0.2974161188
0.2979639664
0.4745894504
0.5340607925
0.5352549329
0.7068434679
0.7603824899
0.7620544208
0.9013932809
0.9407793594
0.9423325375
1.034936495
1.058743764
1.059785382
1.109545399
1.136796834
1.137750073
1.149069692
1.155862991
1.156428953
1.158786766
1.159147349
1.159500078
0.2380157024
0.2951244852
0.2956982507
0.4703463853
0.5291659402
0.530409272
0.7003874497
0.7536790449
0.7553567391
0.8949420733
0.9346986952
0.9361965671
1.030391902
1.054737922
1.055713992
1.107012362
1.135009122
1.135879633
1.147693813
1.15479651
1.155311611
1.157960298
1.158508842
1.158834513
0.2361402947
0.292587766
0.2932474563
0.4657755147
0.5239687569
0.5253066066
0.6938400116
0.7469871669
0.748650425
0.8887510561
0.928927146
0.9303286266
1.026157566
1.051021921
1.051920699
1.104691147
1.13337001
1.134165331
1.146429663
1.153814656
1.154282389
1.157200245
1.157931168
1.158220584
0.2335636901
0.2893425676
0.2901795904
0.4607004444
0.5184048295
0.5197987205
0.6874654936
0.7406259764
0.74215941
0.883058573
0.9236439698
0.9248940076
1.022338206
1.047666446
1.048465957
1.102587186
1.131857194
1.132589404
1.145254281
1.152898812
1.153330241
1.156485897
1.157359076
1.157636547
0.2304829754
0.285679713
0.2864817123
0.4558130648
0.513256942
0.5143957303
0.6819443225
0.7351547913
0.7363172305
0.8783585009
0.9192915292
0.9202682164
1.019085693
1.044768119
1.045445307
1.100702202
1.130426441
1.13114616
1.14412061
1.152008164
1.152450007
1.155792887
1.156852315
1.157099179
0.2284647948
0.2832144061
0.283622903
0.4526452917
0.509959672
0.5105577857
0.6784566418
0.7316854349
0.7323744578
0.8750725025
0.9161333053
0.9168042917
1.016471499
1.042365609
1.042914631
1.09895862
1.128992476
1.129891476
1.142985669
1.151120492
1.151687366
1.155102391
1.156291675
1.156635735
0.1731400087
0.1653944873
0.1699886577
0.09414789714
0.07102617969
0.07769069186
0.04373827093
0.04410643097
0.05572820775
0.179821121
0.1812709889
0.1904833858
0.1336473208
0.1395423148
0.1090867934
0.1058411868
0.09166072954
0.0510930083
0.04838249779
0.03897793434
0.03072024468
0.02907765119
0.04469366711
0.05693936482
0.052647954
0.09743877667
0.1098070056
0.109859887
0.03458720254
0.03312353768
0.2752116833
0.2588564109
0.2414183831
0.297306457
0.2776359665
0.2947509832
0.3577175972
0.3403431608
0.3181115139
0.3890078014
0.3638030088
0.3811210005
0.4620696229
0.4451280306
0.416005895
0.5100956568
0.476316856
0.4930104487
0.09874067836
0.09495451345
0.07609981422
0.121582895
0.1149091493
0.1128605213
0.1066839039
0.1106850307
0.1230908197
0.2889491947
0.2632931271
0.2433338125
0.3023818366
0.2799009733
0.3084327683
0.2376245556
0.256540386
0.2777491392
0.3688250608
0.3399196155
0.3210031905
0.3807624926
0.3599150341
0.3888210428
0.3135107997
0.3354779676
0.3560603043
0.4504563919
0.4236874361
0.4018171361
0.4711679587
0.4469892255
0.4741916572
0.4007922114
0.4225421698
0.4477260701
0.5504028976
0.5251594499
0.4970632155
0.5839458885
0.5544023606
0.5802169541
0.5117344359
0.5319353247
0.5614244919
0.1833614817
0.1780756486
0.1406148856
0.1894246324
0.2095186782
0.2336491296
0.4794408149
0.4160660037
0.3989448866
0.4549024467
0.437111922
0.496663631
0.3435454321
0.386174155
0.4066252238
0.5357181407
0.4848876354
0.4689895132
0.5173980649
0.5013577033
0.549456792
0.4217046032
0.4588042784
0.4763754781
0.5967436024
0.5542094084
0.5352586222
0.5950818198
0.5737183251
0.6147344351
0.5034564146
0.5371689672
0.5596293535
0.6796298282
0.6428466321
0.6179546202
0.6971155729
0.6692522762
0.7050759752
0.6069698733
0.6366212741
0.6636104876
0.1158927812
0.1113481012
0.2689976593
0.2659200815
0.1909166693
0.3954904619
0.332561217
0.3357195778
0.3240080586
0.3286868631
0.3913279618
0.5365209417
0.5331877572
0.4640795103
0.6662821103
0.6011195568
0.6042672479
0.5679921621
0.5974983426
0.654878612
0.79128937
0.7334317611
0.7295499351
0.7353260022
0.7318556452
0.812290451
0.6036126997
0.6639426542
0.6723316356
0.8132332061
0.7517138638
0.742533626
0.7764529284
0.7628407208
0.8215055421
0.6595724169
0.7089160483
0.7249308928
0.8609063444
0.8101949941
0.7924811135
0.8580611344
0.8311267238
0.8807076769
0.7437888783
0.7860869616
0.8117678902
0.1286944506
0.1260866675
0.2763716527
0.2748920562
0.2029449366
0.4069177528
0.341939795
0.3433828909
0.3382514612
0.3402781878
0.4046915263
0.5465642017
0.5443651214
0.4755781529
0.6768172533
0.6118110461
0.6139700167
0.607037966
0.6095243252
0.6745577297
0.7995390841
0.7977026749
0.7392624377
0.9000865996
0.8514158171
0.8531143225
0.8476233305
0.8495983148
0.8984024237
0.9835301257
0.9822332094
0.9436606965
1.032660189
1.015963538
1.017136819
0.8848141433
0.955974129
0.9574580662
1.092017119
1.038282072
1.032538483
1.070210506
1.050232601
1.109470386
0.9330686588
0.9897146072
1.009468375
0.1384919909
0.1359720605
0.2826132594
0.2809113193
0.211553029
0.4137751111
0.3475551133
0.3491136629
0.3447364112
0.3461055834
0.4121892815
0.5544070338
0.5525822676
0.4831615487
0.6849718271
0.6201075476
0.6220653034
0.6160552336
0.6180989864
0.6830001601
0.8061962156
0.8046192359
0.7468163289
0.9057723973
0.8577099098
0.8590934515
0.8547203481
0.8562511165
0.9044841136
0.9876095688
0.9867517677
0.9487541943
1.048630041
1.019953498
1.020658381
1.018188496
1.019129048
1.047941185
1.094154775
1.093767849
1.073113597
1.125203626
1.110985808
1.111315121
1.110071358
1.110574326
1.124837302
0.149669056
0.1467662625
0.2901587124
0.2882302123
0.2210125833
0.4204373762
0.3542996513
0.3560377927
0.3507778462
0.3525230801
0.4187336173
0.5603384934
0.5591113838
0.4893564138
0.6921269779
0.6271967447
0.6284880652
0.6239329021
0.6256671772
0.6905396498
0.8114216283
0.8103507251
0.7533759744
0.909861886
0.8625907067
0.8634761316
0.8603835656
0.8615633214
0.9090306664
0.9899016116
0.989482574
0.9521257794
1.050350937
1.022132067
1.022438172
1.021250659
1.021739025
1.05005746
1.094943868
1.094846682
1.074467891
1.125985652
1.111880304
1.111947312
1.111569531
1.11175627
1.125882761
0.1602257255
0.1579705794
0.2963803176
0.295091669
0.2293688532
0.4260504944
0.3603595703
0.36145929
0.3576898324
0.3591410746
0.4249340356
0.5630043087
0.562583033
0.4937768396
0.6957835973
0.6305442623
0.6308082534
0.6294387088
0.6300993559
0.6952656294
0.8140917322
0.8136739453
0.7570538335
0.9120515464
0.8653662461
0.8657395801
0.8642325201
0.8648629251
0.9116629514
0.9907487337
0.9906500098
0.9537689224
1.050809901
1.022904896
1.022927302
1.022665043
1.022819012
1.050790776
1.094804198
1.094909839
1.074691234
1.125908568
1.111851033
1.111732165
1.111962006
1.111928759
1.125993932
0.1677908392
0.1660906605
0.3004952615
0.2996109701
0.2348630899
0.4293862902
0.3641303803
0.3648293531
0.3624505107
0.3633392663
0.4287089025
0.5637217667
0.5636662292
0.4960688501
0.6958751234
0.6307995978
0.6305964626
0.6309227142
0.6309135286
0.6960978764
0.8140242374
0.8142948869
0.7574054964
0.9125636557
0.8660348908
0.8658463393
0.8659787222
0.8660787306
0.9125979789
0.9904581308
0.9906327772
0.9540239509
1.050361345
1.022646584
1.022441627
1.022890257
1.022796371
1.050546369
1.093994671
1.094250196
1.074109379
1.125214194
1.11115971
1.110904367
1.111575685
1.111384097
1.125435455
0.1734007528
0.1721698828
0.303176113
0.3026285239
0.2387206574
0.4311940119
0.3664144531
0.3667843711
0.3654411102
0.3659698686
0.4308704691
0.5632544021
0.5634676576
0.4969868436
0.6939318742
0.6295553961
0.6290854204
0.6303163448
0.6299676153
0.6945431818
0.8115698504
0.8123566396
0.755256706
0.911272767
0.8644582083
0.8637503742
0.8655162528
0.8650507545
0.9117683661
0.9890449098
0.989507934
0.9528723115
1.049170246
1.021493818
1.021062964
1.022181826
1.021866434
1.049535428
1.092654381
1.093035991
1.072894486
1.124064924
1.109969705
1.109604171
1.110620311
1.110308454
1.124388811
0.1773544406
0.1765038167
0.3046643585
0.3043906023
0.2412744731
0.4317410669
0.3674896948
0.3676193731
0.3670756758
0.3673087381
0.4317087845
0.5618644814
0.5622827699
0.4967680814
0.6909358313
0.6273866737
0.6267394109
0.6285640418
0.6279965672
0.6917516506
0.807676019
0.8087353359
0.751746502
0.9082816506
0.8610693184
0.860030762
0.8629409951
0.8620433922
0.9091637134
0.9864682024
0.9872169274
0.9502744575
1.047242576
1.019417176
1.018750755
1.020573505
1.020025069
1.047796055
1.090811558
1.091320749
1.07108025
1.122539189
1.108349646
1.107877047
1.10921264
1.108794558
1.122954425
0.1799680295
0.1794275929
0.3052218796
0.3051526579
0.2427634797
0.4313210072
0.3677190048
0.3676659138
0.3676994176
0.3677320545
0.4314987998
0.5598293687
0.5603846743
0.4956966453
0.687383444
0.6246207459
0.6238651297
0.6260604054
0.6253535732
0.6883062018
0.8031051227
0.8042853746
0.7476016422
0.90410739
0.8566306837
0.8554263576
0.858939222
0.8578037546
0.9052306494
0.9828712566
0.9838521043
0.9464957985
1.044548956
1.016419898
1.015539457
1.018027795
1.017250303
1.045293131
1.088438448
1.089082594
1.068634512
1.120640908
1.106291551
1.105705116
1.107377024
1.106848649
1.121151181
0.1816220919
0.1812684311
0.3052222471
0.3052505143
0.2434673411
0.4302815924
0.3673369209
0.3671878683
0.3675801673
0.3674690427
0.430578795
0.557392386
0.558026301
0.4940622864
0.6835343084
0.6214930856
0.6206746921
0.6230904709
0.6222993318
0.6845162959
0.7982221005
0.799462515
0.7431631863
0.8992512171
0.8516713582
0.8503810977
0.8541962739
0.8529439593
0.9005106215
0.9785080702
0.979657765
0.9419225194
1.041134671
1.012626891
1.011573348
1.014612173
1.013640675
1.042050704
1.085525097
1.086303152
1.065558489
1.118347942
1.103771612
1.10306846
1.105089902
1.104445353
1.118958529
0.1827781818
0.1825286859
0.3049535918
0.3050465786
0.2438135966
0.4289737953
0.3666560096
0.3664462327
0.3670271904
0.3668499312
0.4293106644
0.5547651789
0.5554330341
0.4921463215
0.6795297972
0.6181773577
0.6173336369
0.6198481174
0.6190156168
0.6805385724
0.7931739428
0.7944466135
0.7385726923
0.8939928486
0.8464297939
0.8450888961
0.8490764136
0.847759153
0.8953357295
0.9735891752
0.9748624233
0.9368302193
1.037098133
1.008199953
1.007010316
1.010483027
1.009358112
1.03815958
1.082099968
1.083001171
1.061902316
1.115654034
1.100791066
1.0999776
1.102337136
1.101577742
1.116363481
0.1835473656
0.1833902382
0.3043976272
0.3045649445
0.2438837033
0.4275271419
0.3657217724
0.3654426484
0.3662213314
0.3659807426
0.4279095571
0.5519808358
0.552700249
0.4900456509
0.6754385905
0.61475759
0.6138707485
0.6164845652
0.6156274894
0.6764743304
0.7879895622
0.7893045345
0.7338898639
0.8884570946
0.8409980676
0.8396041317
0.8437376726
0.8423750612
0.889865752
0.9682435815
0.9696166154
0.9313668417
1.032546871
1.003273058
1.001974073
1.005791877
1.004545962
1.033727054
1.078232941
1.079235736
1.057746714
1.112594901
1.09739418
1.096489606
1.099139617
1.098277978
1.113389368
0.1839710629
0.1839014044
0.3035010144
0.3037608004
0.2436492044
0.4257751311
0.3644635835
0.3640801952
0.3651417414
0.3648172606
0.4262532204
0.5488420997
0.5496722692
0.4876362886
0.671103174
0.6110705632
0.6100777614
0.6129634712
0.6120316327
0.6722238609
0.7825193963
0.7839237002
0.72897354
0.8826232626
0.8353050124
0.833821704
0.8381924626
0.8367610676
0.8841151339
0.9625134542
0.9639879867
0.9255563227
1.027583283
0.9979382217
0.9965452079
1.000651165
0.9993063005
1.028857143
1.074031609
1.075106254
1.053195066
1.109258098
1.093674556
1.09270841
1.095567043
1.094628048
1.110111426
0.1840410336
0.1840626855
0.3021968543
0.3025618759
0.2430469985
0.4235349425
0.362745915
0.3622397869
0.3636661788