/*--------------------------------*- C++ -*----------------------------------*\
| =========                 |                                                 |
| \\      /  F ield         | OpenFOAM: The Open Source CFD Toolbox           |
|  \\    /   O peration     | Version:  v2012                                 |
|   \\  /    A nd           | Website:  www.openfoam.com                      |
|    \\/     M anipulation  |                                                 |
\*---------------------------------------------------------------------------*/
FoamFile
{
    version     2.0;
    format      ascii;
    class       pointVectorField;
    location    "3.03";
    object      pointDisplacement;
}
// * * * * * * * * * * * * * * * * * * * * * * * * * * * * * * * * * * * * * //

dimensions      [0 1 0 0 0 0 0];


internalField   nonuniform List<vector> 
7018
(
(0 0 0)
(0 0 0)
(0 0 0)
(0 0 0)
(0 0 0)
(0 0 0)
(0 0 0)
(0 0 0)
(0 0 0)
(0 0 0)
(0 0 0)
(0 0 0)
(0 0 0)
(0 0 0)
(0 0 0)
(0 0 0)
(0 0 0)
(0 0 0)
(0 0 0)
(0 0 0)
(0 0 0)
(0 0 0)
(0 0 0)
(0 0 0)
(0 0 0)
(0 0 0)
(0 0 0)
(0 0 0)
(0 0 0)
(0 0 0)
(0 0 0)
(0 0 0)
(0 0 0)
(0 0 0)
(0 0 0)
(0 0 0)
(0 0 0)
(0 0 0)
(0 0 0)
(0 0 0)
(0 0 0)
(0 0 0)
(0 0 0)
(0 0 0)
(-2.541047708e-07 0.0001076621028 3.330669074e-16)
(1.171760394e-06 9.151970461e-05 2.91433544e-16)
(0 0 0)
(0 0 0)
(0 0 0)
(0 0 0)
(0 0 0)
(0 0 0)
(0 0 0)
(0 0 0)
(0 0 0)
(0 0 0)
(0 0 0)
(0 0 0)
(0 0 0)
(0 0 0)
(0 0 0)
(0 0 0)
(0 0 0)
(0 0 0)
(0 0 0)
(0 0 0)
(0 0 0)
(0 0 0)
(0 0 0)
(0 0 0)
(0 0 0)
(0 0 0)
(0 0 0)
(0 0 0)
(0 0 0)
(0 0 0)
(0 0 0)
(0 0 0)
(0 0 0)
(0 0 0)
(0 0 0)
(-1.919217866e-05 0.01067063553 3.522182546e-14)
(-2.45776693e-05 0.01738174802 5.823119764e-14)
(0.0002512945151 0.01715740141 5.74817971e-14)
(0.0001472269826 0.01049582349 3.463895837e-14)
(0.0004938769795 0.00804553265 2.656208586e-14)
(0.0008745086919 0.01395345904 4.675426712e-14)
(0.0009587185145 0.01219161175 4.085620731e-14)
(0.000519525721 0.006734981802 2.223221607e-14)
(0.0003056531809 0.002457485364 8.10462808e-15)
(0.0007584283776 0.005996895361 2.009503675e-14)
(0.000570613661 0.004006682454 1.341982081e-14)
(0.0001785656967 0.001274230114 4.204969706e-15)
(0 0 0)
(3.006576831e-05 0.0001579141058 5.273559367e-16)
(0 0 0)
(0 0 0)
(0 0 0)
(0 0 0)
(0 0 0)
(0 0 0)
(0 0 0)
(0 0 0)
(0 0 0)
(0 0 0)
(0 0 0)
(0 0 0)
(0 0 0)
(0 0 0)
(0 0 0)
(0 0 0)
(0 0 0)
(0 0 0)
(0 0 0)
(0 0 0)
(0 0 0)
(0 0 0)
(0 0 0)
(0 0 0)
(-3.548149102e-07 0.04270879313 1.498245972e-13)
(2.346925311e-05 0.05166553026 1.841443664e-13)
(0.0008994915817 0.05130009631 1.828676099e-13)
(0.0007119141088 0.0423669254 1.486449852e-13)
(0.002503558045 0.03735824532 1.311173392e-13)
(0.003147517761 0.0459217689 1.637717739e-13)
(0.003658102225 0.04280094396 1.526556659e-13)
(0.002885603011 0.0344834292 1.210420653e-13)
(0.003112086262 0.02330830836 8.182343691e-14)
(0.004135907714 0.03039729058 1.084410339e-13)
(0.003916113118 0.02561577185 9.137135493e-14)
(0.002869537517 0.01911813898 6.711298184e-14)
(0.001463670318 0.007323882232 2.570166302e-14)
(0.002340831833 0.01151346406 4.105049634e-14)
(0.00165471712 0.007516085777 2.679800826e-14)
(0.0009187181131 0.004243908842 1.489086632e-14)
(0 0 0)
(7.946421487e-05 0.0002927588098 1.040834086e-15)
(0 0 0)
(0 0 0)
(0 0 0)
(0 0 0)
(0 0 0)
(0 0 0)
(0 0 0)
(0 0 0)
(0 0 0)
(0 0 0)
(0 0 0)
(0 0 0)
(0 0 0)
(0 0 0)
(0 0 0)
(0 0 0)
(0 0 0)
(0 0 0)
(0 0 0)
(0 0 0)
(0.0001111830875 0.07510255403 2.811223476e-13)
(0.0001325396543 0.08077554392 3.075040222e-13)
(0.001599895121 0.08043413181 3.062966547e-13)
(0.001451486121 0.07473435163 2.798178356e-13)
(0.00505787617 0.06924103925 2.594591209e-13)
(0.005607433897 0.07529329718 2.869648963e-13)
(0.006677693065 0.0721011234 2.748634653e-13)
(0.005988403942 0.06591498893 2.470385008e-13)
(0.007446023663 0.05169491347 1.938171845e-13)
(0.008511461299 0.0579522078 2.210315264e-13)
(0.008555260397 0.05189810986 1.979527653e-13)
(0.007402350766 0.04578205334 1.716543574e-13)
(0.005659694265 0.02631558716 9.865719353e-14)
(0.007052624708 0.03207327758 1.223743329e-13)
(0.00608058668 0.02553204035 9.74359482e-14)
(0.004820056502 0.02065535381 7.743805597e-14)
(0.00167128427 0.005828441929 2.184363801e-14)
(0.002497651408 0.008555559703 3.262667914e-14)
(0.001409493428 0.004548087277 1.734723476e-14)
(0.000805492161 0.002645465332 9.908740495e-15)
(0 0 0)
(0 0 0)
(0 0 0)
(0 0 0)
(0 0 0)
(0 0 0)
(0 0 0)
(0 0 0)
(0 0 0)
(0 0 0)
(0 0 0)
(0 0 0)
(0 0 0)
(0 0 0)
(0 0 0)
(0 0 0)
(0 0 0)
(0 0 0)
(0.0001286734147 0.08861997033 3.555350458e-13)
(0.000103005103 0.08792909053 3.592126596e-13)
(0.001827587721 0.08788410162 3.591571485e-13)
(0.001831365116 0.08846691537 3.550493233e-13)
(0.006782591218 0.08589834914 3.45126705e-13)
(0.006967937996 0.08661664112 3.544248228e-13)
(0.008531008467 0.08515267247 3.485822742e-13)
(0.008246102228 0.08384238078 3.370081991e-13)
(0.01130994024 0.07232157218 2.909894548e-13)
(0.01202605653 0.07517251998 3.082256672e-13)
(0.01261339281 0.07016649403 2.878669525e-13)
(0.01174106537 0.06668570784 2.684796829e-13)
(0.01085456649 0.04652997108 1.874056466e-13)
(0.01196157731 0.05030875792 2.064182159e-13)
(0.01095878629 0.04264661343 1.749433931e-13)
(0.009829945817 0.03898928506 1.570132913e-13)
(0.005356042887 0.01735865995 6.984690604e-14)
(0.006312982596 0.0200755944 8.228140391e-14)
(0.004551741544 0.01364202404 5.589972929e-14)
(0.003729426939 0.01139103816 4.582445534e-14)
(0.0002462284721 0.0006405065316 2.581268532e-15)
(0.0004230008295 0.001079765267 4.413136523e-15)
(1.073844205e-05 2.610697865e-05 1.110223025e-16)
(0 0 0)
(0 0 0)
(0 0 0)
(0 0 0)
(0 0 0)
(0 0 0)
(0 0 0)
(0 0 0)
(0 0 0)
(0 0 0)
(0 0 0)
(0 0 0)
(0 0 0)
(0 0 0)
(0 0 0)
(1.065258293e-05 0.08311181557 0)
(-4.511738748e-06 0.08230852946 0)
(0.0008755319426 0.08229262043 0)
(0.0008859286996 0.08309592098 0)
(0.007085982324 0.08291239267 0)
(0.007096672229 0.08208688294 0)
(0.007113362508 0.08124847364 0)
(0.007988318311 0.08120671073 0)
(0.008850866117 0.08118108934 0)
(0.008844049235 0.0828385668 0)
(0.01340525928 0.07905974097 3.434613705e-13)
(0.01361550312 0.07882971076 3.493039191e-13)
(0.01466370953 0.07564539847 3.353012312e-13)
(0.01434429787 0.07540800572 3.276823257e-13)
(0.01452705385 0.05766268484 2.506328478e-13)
(0.01505142756 0.05855515785 2.59708921e-13)
(0.01429549909 0.05142434802 2.280675648e-13)
(0.01364621413 0.05009323812 2.177147351e-13)
(0.00881600285 0.02642160788 1.147693052e-13)
(0.009641785387 0.02832106998 1.254829574e-13)
(0.007598832309 0.02103812108 9.317546734e-14)
(0.006843882797 0.01933253656 8.393286066e-14)
(0.001524595297 0.003671969518 1.59317004e-14)
(0.001905668215 0.004498960302 1.990074772e-14)
(0.0006827689346 0.001535987055 6.800116026e-15)
(0.0004645508958 0.001066104326 4.62130334e-15)
(0 0 0)
(0 0 0)
(0 0 0)
(0 0 0)
(0 0 0)
(0 0 0)
(0 0 0)
(0 0 0)
(0 0 0)
(0 0 0)
(0 0 0)
(0 0 0)
(0 0 0)
(0 0 0)
(0.007077670774 0.07631638385 0)
(0.007067123174 0.0754954615 0)
(0.007923919237 0.0754759618 0)
(0.007935346263 0.07629565212 0)
(0.01387308183 0.07577650109 3.574501806e-13)
(0.01387749591 0.07433765225 3.583244812e-13)
(0.01526947917 0.07279695607 3.510386426e-13)
(0.015210157 0.07396352252 3.490402412e-13)
(0.01651366576 0.06048206783 2.855354841e-13)
(0.01671050009 0.05996027036 2.892547313e-13)
(0.01613798525 0.05351387042 2.581268532e-13)
(0.01591057042 0.05386418003 2.542549504e-13)
(0.01131854126 0.0312585744 1.473959843e-13)
(0.01157378289 0.03129341369 1.507821645e-13)
(0.009399650081 0.02394542262 1.153244167e-13)
(0.009158022632 0.02383286152 1.123268145e-13)
(0.002764937587 0.006133817115 2.886579864e-14)
(0.003122272759 0.006777820605 3.258504577e-14)
(0.001489166854 0.003080635442 1.480759959e-14)
(0.001225907387 0.002591639687 1.21846977e-14)
(0 0 0)
(0 0 0)
(0 0 0)
(0 0 0)
(0 0 0)
(0 0 0)
(0 0 0)
(0 0 0)
(0 0 0)
(0 0 0)
(0 0 0)
(0 0 0)
(0 0 0)
(0 0 0)
(0.006973966174 0.06976736315 0)
(0.006958803101 0.06895098942 0)
(0.007813585956 0.06893442715 0)
(0.007828891633 0.06975038452 0)
(0.01381870969 0.06962279654 3.591710263e-13)
(0.01378776948 0.0680022602 3.592126596e-13)
(0.01532339201 0.06719192575 3.550770789e-13)
(0.01533196446 0.0686964759 3.545358451e-13)
(0.01721236341 0.05791352006 2.990524495e-13)
(0.01729457148 0.05690419769 3.008704397e-13)
(0.01689490949 0.0513276492 2.713662628e-13)
(0.01678105254 0.05214505172 2.692290835e-13)
(0.0124893924 0.03159726366 1.629529844e-13)
(0.01267040731 0.03132332749 1.654232307e-13)
(0.01051711327 0.02448709982 1.292299601e-13)
(0.01032880674 0.0246133263 1.268568584e-13)
(0.003580325249 0.007268204779 3.738676035e-14)
(0.003725891218 0.007388521017 3.89271948e-14)
(0.00192144374 0.003630667054 1.91235916e-14)
(0.001811411907 0.00350401984 1.801336857e-14)
(0 0 0)
(0 0 0)
(0 0 0)
(0 0 0)
(0 0 0)
(0 0 0)
(0 0 0)
(0 0 0)
(0 0 0)
(0 0 0)
(0 0 0)
(0 0 0)
(0 0 0)
(0 0 0)
(0.006843397213 0.063243693 0)
(0.006825810854 0.06243044869 0)
(0.007679641695 0.06241525822 0)
(0.00769733589 0.06322823724 0)
(0.0136827054 0.06311483477 3.59184904e-13)
(0.01364422104 0.06148157972 3.591155151e-13)
(0.01515061601 0.06062068667 3.542444116e-13)
(0.01520582726 0.06230305632 3.547162564e-13)
(0.01714967637 0.05260144065 2.996491943e-13)
(0.01706219949 0.051063341 2.985667269e-13)
(0.01665305076 0.04597934457 2.68798872e-13)
(0.01674490885 0.04739338766 2.699507284e-13)
(0.01251924785 0.02878825462 1.637578961e-13)
(0.01243217198 0.02787369813 1.627309398e-13)
(0.01029130317 0.02171978716 1.267180805e-13)
(0.01037158846 0.02245314133 1.276478923e-13)
(0.003625104764 0.006679020067 3.788636072e-14)
(0.003577707403 0.006424500935 3.740063814e-14)
(0.001812450568 0.003100632821 1.804112415e-14)
(0.001845925523 0.003240240351 1.837419106e-14)
(0 0 0)
(0 0 0)
(0 0 0)
(0 0 0)
(0 0 0)
(0 0 0)
(0 0 0)
(0 0 0)
(0 0 0)
(0 0 0)
(0 0 0)
(0 0 0)
(0 0 0)
(0 0 0)
(0.006696528144 0.05674718151 0)
(0.006676632118 0.05593510887 0)
(0.007529652134 0.05592079863 0)
(0.007549731893 0.05673264216 0)
(0.0134990768 0.05648373387 3.582828478e-13)
(0.0134332881 0.05475559139 3.575612029e-13)
(0.0147807786 0.05341491122 3.489569744e-13)
(0.0149030668 0.05530859493 3.509831314e-13)
(0.01646185526 0.04557465421 2.89337998e-13)
(0.01611788797 0.04341038907 2.836897384e-13)
(0.01565938427 0.03887366536 2.54019028e-13)
(0.01594227906 0.04068984575 2.582795089e-13)
(0.0115185199 0.0238358674 1.510735981e-13)
(0.01122802797 0.02258695558 1.473543509e-13)
(0.009104861098 0.01723231615 1.123268145e-13)
(0.00937575228 0.01825603084 1.15629728e-13)
(0.002924257732 0.004841197561 3.058664433e-14)
(0.002767270821 0.004452024405 2.896294315e-14)
(0.00123033333 0.00188530081 1.225408663e-14)
(0.001335628956 0.002106210942 1.329492072e-14)
(0 0 0)
(0 0 0)
(0 0 0)
(0 0 0)
(0 0 0)
(0 0 0)
(0 0 0)
(0 0 0)
(0 0 0)
(0 0 0)
(0 0 0)
(0 0 0)
(0 0 0)
(0 0 0)
(0.006531415408 0.05026646997 0)
(0.006509201105 0.0494571111 0)
(0.007361933088 0.04944348322 0)
(0.007384410555 0.05025283715 0)
(0.0131769003 0.04940886081 3.538697113e-13)
(0.01305972997 0.04753639076 3.517880431e-13)
(0.01417520668 0.04564974666 3.379657665e-13)
(0.01436069825 0.04766923179 3.415462357e-13)
(0.01514746907 0.03735818093 2.677164046e-13)
(0.01489068729 0.03559209819 2.635391905e-13)
(0.01411462733 0.03106353455 2.299410662e-13)
(0.01456295264 0.03308071249 2.370048602e-13)
(0.009920564588 0.01823404508 1.303956942e-13)
(0.009298364001 0.01655004817 1.222771884e-13)
(0.007208159009 0.0120666792 8.908151994e-14)
(0.00783215358 0.01354005219 9.67559366e-14)
(0.001963290364 0.002883127337 2.055300374e-14)
(0.001714607174 0.00243768843 1.795785742e-14)
(0.0005568634095 0.0007539754252 5.551115123e-15)
(0.0007009083316 0.0009802694826 6.980527267e-15)
(0 0 0)
(0 0 0)
(0 0 0)
(0 0 0)
(0 0 0)
(0 0 0)
(0 0 0)
(0 0 0)
(0 0 0)
(0 0 0)
(0 0 0)
(0 0 0)
(0 0 0)
(0 0 0)
(0.006988954833 0.0705824615 0)
(0.006134132841 0.07060094251 0)
(0.006126628551 0.07019386362 0)
(0.006119323673 0.06978538949 0)
(0.006218243466 0.0763419537 0)
(0.006209699891 0.07551760556 0)
(0.006860851573 0.0640579176 0)
(0.006007364033 0.06407336488 0)
(0.00599876384 0.06366600573 0)
(0.005990052982 0.0632587615 0)
(0.006111937243 0.06937657842 0)
(0.006104473503 0.06896765598 0)
(0.006715470163 0.05755851992 0)
(0.005862555862 0.05757245209 0)
(0.005853237705 0.05716691164 0)
(0.005843737231 0.05676167548 0)
(0.005981266229 0.06285148108 0)
(0.005972536864 0.06244525261 0)
(0.00655362335 0.05107549049 0)
(0.005701225478 0.05108888644 0)
(0.005678518908 0.05027934879 0)
(0.005823947627 0.05594926237 0)
(0.005657506929 0.0494699297 0)
(-0.0008529704366 0.08312749104 0)
(-0.0008705593283 0.08232391205 0)
(0.007085809664 0.07714121083 0)
(0.00622635854 0.07716551411 0)
(0.006208379972 0.08294341183 0)
(0.00621602432 0.08212393905 0)
(0.003607878145 0.07311266503 0)
(0.003610647121 0.07331891945 0)
(0.003394919445 0.07332310011 0)
(0.003391561375 0.07311671761 0)
(0.003639842671 0.07642014161 0)
(0.003209305295 0.07643432093 0)
(0.003208832671 0.07601658671 0)
(0.003638797512 0.07600355994 0)
(0.007844175394 0.07056517645 0)
(0.01384777818 0.07123290253 3.590877595e-13)
(0.01213908514 0.07129490599 0)
(0.01210752306 0.06966643147 0)
(0.01222547091 0.07619090984 0)
(0.01219780547 0.07455965878 0)
(0.003447942542 0.06656887394 0)
(0.003452741717 0.06677269456 0)
(0.00320982199 0.06677699917 0)
(0.003205097072 0.06657332759 0)
(0.003547011347 0.06983496278 0)
(0.003323494949 0.06983833841 0)
(0.003325844883 0.06963430815 0)
(0.003546393158 0.06963068746 0)
(0.007714861905 0.06404227246 0)
(0.01371944729 0.06474559105 3.592126596e-13)
(0.01200733821 0.06477859156 0)
(0.01197175195 0.06315211072 0)
(0.01207529924 0.06803676593 0)
(0.003362786671 0.06004927649 0)
(0.003365807357 0.06025271686 0)
(0.003150817001 0.06025630825 0)
(0.003148995588 0.06005284533 0)
(0.003426247963 0.06330535421 0)
(0.00320691898 0.06330981695 0)
(0.003196510924 0.06310651549 0)
(0.003418805651 0.06310177134 0)
(0.00756897679 0.0575440877 0)
(0.01355444832 0.05817133442 3.58726937e-13)
(0.01186056001 0.05828091251 0)
(0.01182168849 0.05665972096 0)
(0.01193558737 0.06152887505 0)
(0.003212034806 0.05355787749 0)
(0.00322250545 0.05396290737 0)
(0.002798058654 0.05396938435 0)
(0.002788029508 0.05356423335 0)
(0.003290573839 0.056802991 0)
(0.002865098619 0.05680997623 0)
(0.002860113847 0.05660668561 0)
(0.002855637055 0.05640300937 0)
(0.003281117257 0.05639688903 0)
(-0.0003468035443 0.04712593844 0)
(-0.0001349966804 0.04712300865 0)
(-0.0001331522608 0.04732609506 0)
(-0.0003470075408 0.04732958989 0)
(0.003032698851 0.04708277375 0)
(0.003045148361 0.04748723991 0)
(0.002620948469 0.04749284727 0)
(0.002608832621 0.04708852527 0)
(0.003127335923 0.05031818254 0)
(0.002703710557 0.05032434322 0)
(0.002692550065 0.04991962718 0)
(0.003116359645 0.04991346304 0)
(0.003549013505 0.07003943772 0)
(0.003323680798 0.07004262186 0)
(0.003388608301 0.07291087281 0)
(0.003604710131 0.07290698975 0)
(0.007030952294 0.07303589055 0)
(0.006174953356 0.07305578143 0)
(0.006168428282 0.07264677741 0)
(0.006162063401 0.07223629237 0)
(0.007017514606 0.07221727302 0)
(0.003602226586 0.07270191461 0)
(0.004030706912 0.07269254117 0)
(0.00403676234 0.07310256944 0)
(0.003766410861 0.06983125088 0)
(0.003769279819 0.07003582234 0)
(0.003433830532 0.06350859598 0)
(0.0032175117 0.06351273886 0)
(0.00320287031 0.06636930817 0)
(0.003445398088 0.06636455963 0)
(0.006911314868 0.06650356055 0)
(0.006484314297 0.06651162749 0)
(0.006476148981 0.06610339519 0)
(0.006903075776 0.06609540485 0)
(0.003681807559 0.06636003896 0)
(0.003684899258 0.06656445581 0)
(0.003643166897 0.06330112483 0)
(0.003648947746 0.06350455091 0)
(0.003764146954 0.06962685607 0)
(0.00368937348 0.06676839536 0)
(0.006919430571 0.06691115445 0)
(0.006492392405 0.0669192221 0)
(0.003299847588 0.0572085699 0)
(0.002874054451 0.05721544828 0)
(0.002869591573 0.05701271197 0)
(0.003145070282 0.05984949718 0)
(0.00335851032 0.05984585973 0)
(0.00677164509 0.05999190807 0)
(0.005918428617 0.06000577071 0)
(0.005909326132 0.05959969969 0)
(0.005900160476 0.05919426919 0)
(0.006753186148 0.05918025971 0)
(0.003353861107 0.0596430141 0)
(0.003779852082 0.05963605678 0)
(0.003788952446 0.06004201502 0)
(0.003715655022 0.05679605079 0)
(0.003725048367 0.05720158983 0)
(0.003637454876 0.06309735899 0)
(0.003797721526 0.06044835557 0)
(0.003584030793 0.06045226099 0)
(0.003369270472 0.06045588566 0)
(0.00678962237 0.06080394157 0)
(0.005936757681 0.06081851214 0)
(0.005927723317 0.06041206376 0)
(0.003138682524 0.05072319595 0)
(0.002714733844 0.0507293627 0)
(0.002778092227 0.05315896779 0)
(0.003202244145 0.05315260918 0)
(-0.0005547612808 0.04712770523 0)
(-0.0005612611743 0.04692606025 0)
(-0.0003510150773 0.04692364871 0)
(-0.0005585372414 0.04733243925 0)
(0.002595941165 0.04668455633 0)
(0.003019789529 0.04667865472 0)
(-0.0001392894181 0.04692072044 0)
(0.001885808215 0.0748016139 0)
(0.00187430323 0.07500497766 0)
(0.001658228467 0.07499710018 0)
(0.001722846053 0.07483046985 0)
(0.001897978175 0.07648921351 0)
(0.001673012914 0.07649813845 0)
(0.00166916608 0.07628076347 0)
(0.001895557548 0.07627488437 0)
(0.001507640872 0.05521643763 0)
(0.001503175543 0.05542077093 0)
(0.00127764353 0.05544035592 0)
(0.0012411188 0.05527116716 0)
(0.007406275902 0.05106163846 0)
(0.01327601903 0.05123106866 3.554517791e-13)
(0.01169977162 0.05180030254 3.592126596e-13)
(0.0116520325 0.05015877775 3.59060004e-13)
(0.01178206365 0.05503846836 0)
(-0.0003929476989 0.04880754762 0)
(-0.0001291479367 0.04875324536 0)
(-0.0001261651028 0.04895627275 0)
(-0.0003453119195 0.04897502313 0)
(0.001389597989 0.04872250555 0)
(0.001400883475 0.04912706881 0)
(0.0009771044202 0.04913285629 0)
(0.0009717298852 0.04893043799 0)
(0.0009668755718 0.04872808513 0)
(0.001434878359 0.0503413201 0)
(0.00122317446 0.05034428557 0)
(0.001217669757 0.05014194493 0)
(0.001429387988 0.05013894159 0)
(0.004068460971 0.07599030567 0)
(0.004071341947 0.07640351623 0)
(0.004042647044 0.07351351856 0)
(0.00361386983 0.07352450345 0)
(0.007043968733 0.07385410608 0)
(0.006188167511 0.07387251148 0)
(0.006181658556 0.07346436462 0)
(0.001439995387 0.05054404411 0)
(0.001228125139 0.05054716314 0)
(0.001469571051 0.05196368086 0)
(0.001250173016 0.05196867141 0)
(0.001248744002 0.05176527632 0)
(0.0014660572 0.05176081388 0)
(0.00661673801 0.05350393432 0)
(0.005764047863 0.05351778706 0)
(0.005743443772 0.05270805943 0)
(0.006595987781 0.05269443509 0)
(0.003626600006 0.05314609629 0)
(0.003636738177 0.05355124524 0)
(0.003551417117 0.05031186286 0)
(0.00356294276 0.05071679769 0)
(0.003706218426 0.0563902117 0)
(0.003646987012 0.05395627929 0)
(0.006637322887 0.05431464011 0)
(0.005784483068 0.05432853327 0)
(-3.529769694e-05 0.07989879322 0)
(-0.000503681989 0.07990368574 0)
(-0.0005109808287 0.07950173273 0)
(-4.319341227e-05 0.07949680631 0)
(0.00364069113 0.07683586275 0)
(0.003209386374 0.07685063265 0)
(0.003599555656 0.07976367401 0)
(0.002701764412 0.07980744586 0)
(0.002701866789 0.07940069028 0)
(0.002724220736 0.07897887546 0)
(0.00318456015 0.07894317152 0)
(0.003625662803 0.0789214547 0)
(0.0004459461471 0.07948420499 0)
(0.0004506591488 0.07988664287 0)
(0.001823631714 0.07453986141 0)
(0.003629204649 0.07476041059 0)
(0.003200108882 0.07477125479 0)
(0.003197384459 0.07456376974 0)
(0.003194689097 0.07435663014 0)
(0.003624723397 0.07434669721 0)
(0.002091524822 0.07458344364 0)
(0.002099030663 0.074793005 0)
(0.002118363802 0.07626974323 0)
(0.002119111346 0.07648249767 0)
(0.002097845224 0.07500176326 0)
(0.003633694144 0.0751727624 0)
(0.003205162446 0.07518240382 0)
(0.003202580885 0.07497711615 0)
(0.003539808964 0.06820053942 0)
(0.00333712813 0.06820495237 0)
(0.003331136943 0.06800074048 0)
(0.003533976383 0.06799636216 0)
(0.003542899249 0.06840488108 0)
(0.003338898132 0.06840928124 0)
(0.003399361899 0.0616755507 0)
(0.003187527382 0.06167896992 0)
(0.003181491564 0.06147498451 0)
(0.003394472721 0.06147154373 0)
(0.003402418124 0.06188008103 0)
(0.003189655499 0.06188374336 0)
(0.0015003429 0.05358713076 0)
(0.001506763501 0.05378937896 0)
(0.001291688798 0.05379308476 0)
(0.001279315597 0.05359207673 0)
(0.001322950223 0.05501017045 0)
(0.00152336053 0.05500941057 0)
(0.003252185999 0.05517972192 0)
(0.0028274495 0.05518639239 0)
(0.002817571214 0.0547814642 0)
(0.003242533283 0.05477478948 0)
(0.001739974722 0.05500537496 0)
(0.001734787347 0.05520990988 0)
(0.001719912232 0.05358224981 0)
(0.001724522662 0.05378483291 0)
(0.001570445512 0.05683819455 0)
(0.001532657747 0.05665003747 0)
(0.001756231331 0.05663090299 0)
(0.001771980798 0.05683226122 0)
(0.001734884093 0.0554132548 0)
(0.003261886433 0.05558499192 0)
(0.002837169438 0.05559169964 0)
(0.002832187752 0.05538897309 0)
(0.001341183438 0.04710461492 0)
(0.001353785897 0.04750881494 0)
(0.0009323144206 0.0475139197 0)
(0.0009202556716 0.04710963424 0)
(0.0009614399534 0.04852581841 0)
(0.0009561676312 0.04832343579 0)
(0.001378131117 0.04831809614 0)
(-0.0003259481726 0.04854746914 0)
(-0.0001220209953 0.04854705682 0)
(0.003582768011 0.07147110569 0)
(0.003365798565 0.07147544884 0)
(0.003364924475 0.07127076465 0)
(0.003580450957 0.07126588451 0)
(0.003585640504 0.07167586513 0)
(0.003368050744 0.07168021995 0)
(0.003479082894 0.06493512108 0)
(0.003277925996 0.06493837713 0)
(0.003272496386 0.06473422989 0)
(0.003474679621 0.06473095455 0)
(0.003480777932 0.06513926333 0)
(0.003279170603 0.06514256545 0)
(0.003685296512 0.06493158191 0)
(0.003687968307 0.06513566818 0)
(0.005171432906 0.06490446394 0)
(0.005179658566 0.06531190533 0)
(0.004753294278 0.06531980988 0)
(0.004745255178 0.06491228975 0)
(0.005203950281 0.0665357411 0)
(0.004777099382 0.06654376761 0)
(0.004769155393 0.0661353055 0)
(0.005195931809 0.06612731799 0)
(0.005137315217 0.06327408185 0)
(0.0051459906 0.06368143958 0)
(0.004719848346 0.0636891519 0)
(0.004711134661 0.06328175729 0)
(0.004736947967 0.06450451142 0)
(0.005163051212 0.06449672461 0)
(0.003681269893 0.0647274459 0)
(0.003747099399 0.06819626545 0)
(0.003750715303 0.06840055961 0)
(0.005235423485 0.06816748919 0)
(0.005243063889 0.06857580658 0)
(0.004816405205 0.06858405513 0)
(0.004808839284 0.06817569873 0)
(0.005265148696 0.0698022788 0)
(0.004838116893 0.0698106848 0)
(0.004830988677 0.06940160562 0)
(0.005257908403 0.06939323933 0)
(0.005211917726 0.06694345061 0)
(0.004785029939 0.06695151543 0)
(0.004801013735 0.06776753526 0)
(0.005227673833 0.0677593619 0)
(0.003742057014 0.06799211093 0)
(0.003327130781 0.05842569278 0)
(0.003113297413 0.05842941285 0)
(0.003109268962 0.05822617946 0)
(0.003322700774 0.05822250456 0)
(0.001798244939 0.05703139089 0)
(0.001608178013 0.05703421275 0)
(0.003330984175 0.05862881663 0)
(0.003116604043 0.0586326598 0)
(0.001493651134 0.05338466201 0)
(0.001714754782 0.05337937613 0)
(0.001685600404 0.05195954342 0)
(0.001689756194 0.05216254876 0)
(0.001472515134 0.05216704745 0)
(0.003170992939 0.05193766696 0)
(0.003181570037 0.05234295809 0)
(0.002757569205 0.05234935147 0)
(0.002747056243 0.05194387109 0)
(0.001250757819 0.05217257128 0)
(0.001268315762 0.05339070441 0)
(-0.000474371747 0.04852276862 0)
(0.0009071809648 0.04670612004 0)
(0.001328470572 0.04670094349 0)
(0.001003632886 0.07654604164 0)
(0.0007392630536 0.07655082752 0)
(0.0009734909555 0.07629469077 0)
(0.0005516746896 0.04954706066 0)
(0.0005574108412 0.04974950977 0)
(0.0003326962651 0.04975576615 0)
(0.0003272667518 0.0495534241 0)
(0.0005835989154 0.05035439415 0)
(0.000374116127 0.05035667852 0)
(0.0003666137611 0.05015490196 0)
(0.0005780888145 0.05015216644 0)
(-0.00121736417 0.07657379614 0)
(-0.001241119873 0.07633906547 0)
(-0.0009707576344 0.07630275636 0)
(-0.0009865968951 0.07660082288 0)
(0.0005846585688 0.05055794662 0)
(0.000368724135 0.05056193184 0)
(0.0005953322202 0.05116737244 0)
(0.000395197255 0.05116737498 0)
(0.0003875813979 0.05096556295 0)
(0.0005950148223 0.0509636932 0)
(-7.722146183e-05 0.07829095728 0)
(-0.0005764105746 0.07828757235 0)
(-0.0005983124615 0.07788202783 0)
(-0.0003300094225 0.07789051027 0)
(-7.482040678e-05 0.07788961164 0)
(-0.001565145875 0.07783653024 0)
(-0.001506462863 0.07827289867 0)
(0.00189726584 0.07670473147 0)
(0.00167385117 0.07671551698 0)
(0.001853038339 0.0781917085 0)
(0.001396080971 0.07821946997 0)
(0.001410781862 0.07780286487 0)
(0.001874022312 0.0777660383 0)
(0.0001990323454 0.07788090439 0)
(0.0004497962499 0.07786875391 0)
(0.0004401114186 0.07827531359 0)
(0.003489711844 0.06738376956 0)
(0.003262024581 0.06738793818 0)
(0.00323545142 0.06718377484 0)
(0.00347287926 0.0671796111 0)
(0.00267306673 0.06984850064 0)
(0.002688445658 0.06964535362 0)
(0.002883500187 0.06964157298 0)
(0.002871493284 0.06984484464 0)
(0.002725183882 0.06903409606 0)
(0.002915694137 0.06903025044 0)
(0.002906340524 0.06923422436 0)
(0.002714926356 0.0692381998 0)
(0.003546179813 0.06901734175 0)
(0.003546376008 0.06922177543 0)
(0.003332282079 0.06922583887 0)
(0.003335011238 0.06902157582 0)
(0.003377430999 0.0608624633 0)
(0.0031588123 0.060866499 0)
(0.003154295118 0.0606632748 0)
(0.003372842612 0.06065905241 0)
(0.002480315226 0.06088335675 0)
(0.002471892687 0.06068084533 0)
(0.002703233099 0.06067435154 0)
(0.002708869416 0.06087729143 0)
(0.002516614684 0.0600617656 0)
(0.002722636634 0.06005943349 0)
(0.002718459627 0.06026409984 0)
(0.002508129125 0.06026730274 0)
(0.002573905971 0.06332232188 0)
(0.002554564951 0.06311956447 0)
(0.002749982993 0.06311611547 0)
(0.002768026512 0.06331867163 0)
(0.00248929305 0.0625269983 0)
(0.002714951537 0.06250853917 0)
(0.002716954336 0.06271184825 0)
(0.002510488739 0.06271798712 0)
(0.003403890796 0.06249159789 0)
(0.003406761328 0.06269485304 0)
(0.003180493799 0.0627001232 0)
(0.003178678266 0.06249677299 0)
(0.003566791412 0.07065346858 0)
(0.00334945659 0.07065778099 0)
(0.003337984279 0.0704528824 0)
(0.003559567824 0.07044931747 0)
(0.002728753907 0.07067295025 0)
(0.002622511183 0.07041515162 0)
(0.002889239959 0.07045921455 0)
(0.002922113939 0.07066645609 0)
(0.002862766057 0.07004812984 0)
(0.002656654072 0.07004967387 0)
(0.003797883104 0.07146694783 0)
(0.003801016639 0.07167158954 0)
(0.00529358296 0.07143641574 0)
(0.005300544537 0.07184463307 0)
(0.004873294234 0.07185341925 0)
(0.004866441907 0.07144501183 0)
(0.005319651539 0.07307474533 0)
(0.004892213829 0.07308356513 0)
(0.004886081514 0.07267344804 0)
(0.00531344248 0.07266454695 0)
(0.005272345031 0.07021098062 0)
(0.004845239452 0.07021946322 0)
(0.004859642855 0.07103543755 0)
(0.00528674702 0.07102687976 0)
(0.003794998593 0.07126154928 0)
(0.003455770948 0.06411938948 0)
(0.003247526506 0.06412292924 0)
(0.003237958227 0.0639196872 0)
(0.003448711878 0.06391598744 0)
(0.00264522382 0.06413241216 0)
(0.00262885587 0.06393016297 0)
(0.002819213658 0.06392680912 0)
(0.002834545663 0.0641295667 0)
(0.002785875695 0.06352089296 0)
(0.00259314073 0.06352402825 0)
(0.003459385729 0.06575162382 0)
(0.003450342996 0.06595593037 0)
(0.00321359048 0.06596060792 0)
(0.003232346285 0.06575604351 0)
(0.002507241255 0.05985968575 0)
(0.002717573171 0.05985655804 0)
(0.002453508338 0.05925776385 0)
(0.002683376449 0.05925137296 0)
(0.002694158973 0.0594533887 0)
(0.002470055263 0.059458731 0)
(0.003343863192 0.05923752404 0)
(0.003348577024 0.05944040606 0)
(0.003133710281 0.05944437121 0)
(0.003128061754 0.05924158198 0)
(0.003752752397 0.05841889284 0)
(0.003761658424 0.05882451626 0)
(0.003335097422 0.05883155951 0)
(0.005029600051 0.05839777878 0)
(0.005038724578 0.05880302201 0)
(0.004612985969 0.05881020023 0)
(0.004603894796 0.05840473073 0)
(0.005066239927 0.06002029096 0)
(0.004640428249 0.06002758339 0)
(0.004631364774 0.05962158685 0)
(0.005057176451 0.05961429443 0)
(0.003612090721 0.06167249074 0)
(0.003615815169 0.06187655721 0)
(0.005102558868 0.06164773584 0)
(0.005111378268 0.06205475238 0)
(0.0046852346 0.06206238952 0)
(0.004676642183 0.06165544392 0)
(0.004702343666 0.0628742513 0)
(0.005128600825 0.06286664964 0)
(0.005075463679 0.060426811 0)
(0.00464953851 0.06043406795 0)
(0.004667626326 0.06124797977 0)
(0.005093625977 0.06124068382 0)
(0.003607656215 0.06146866326 0)
(0.00273608395 0.05153896347 0)
(0.003160292035 0.05153279184 0)
(0.001681163617 0.05175699466 0)
(0.00185760971 0.05033581557 0)
(0.00186818398 0.05074095633 0)
(0.001445216747 0.05074691659 0)
(-0.0003627715806 0.04794605665 0)
(-0.0006277708103 0.04800060711 0)
(-0.0005584694645 0.04773988362 0)
(-0.0003528665251 0.04773898849 0)
(0.001883397426 0.07563520787 0)
(0.001659937364 0.07564057943 0)
(0.001657302459 0.07542865495 0)
(0.001877876033 0.07542097965 0)
(0.001215638946 0.07630374514 0)
(0.001223233757 0.0765238379 0)
(0.001888422137 0.0758484225 0)
(0.001663769375 0.07585196617 0)
(0.001576037056 0.05601635346 0)
(0.001399800757 0.05601428946 0)
(0.001359329366 0.05582061685 0)
(0.001550063615 0.0558180833 0)
(0.001579524109 0.05621899529 0)
(0.001437655577 0.05619541257 0)
(0.0005381035482 0.04873554604 0)
(0.0005420311671 0.0489382172 0)
(0.0003215964808 0.04894367854 0)
(0.0003182593244 0.04874080824 0)
(0.0003277961677 0.0493495785 0)
(0.0005489850948 0.04934402775 0)
(-0.0002443492114 0.04933089003 0)
(-9.585577192e-05 0.04935532598 0)
(-0.0001649301693 0.04961514261 0)
(-0.001285619278 0.0756715827 0)
(-0.001213351036 0.07584381502 0)
(-0.001479146318 0.07589399535 0)
(-0.0014941495 0.07568272465 0)
(-0.001443019829 0.07655520561 0)
(-0.001459521005 0.07633087145 0)
(-0.001508273767 0.07547179471 0)
(-0.001352396097 0.07549538478 0)
(0.000605228073 0.05198023485 0)
(0.0005997346487 0.051777894 0)
(0.0008113093119 0.05177485575 0)
(0.0008094215686 0.05197906536 0)
(0.0008084132443 0.05116404261 0)
(0.000805772674 0.05136841681 0)
(0.0005852216688 0.0513736923 0)
(0.001454666935 0.05115207848 0)
(0.001458958291 0.05135489322 0)
(0.001243738864 0.05135890261 0)
(0.001240741924 0.05115572505 0)
(0.0003225767401 0.05142740873 0)
(0.0004579176833 0.0519564536 0)