/*--------------------------------*- C++ -*----------------------------------*\
| =========                 |                                                 |
| \\      /  F ield         | OpenFOAM: The Open Source CFD Toolbox           |
|  \\    /   O peration     | Version:  v2012                                 |
|   \\  /    A nd           | Website:  www.openfoam.com                      |
|    \\/     M anipulation  |                                                 |
\*---------------------------------------------------------------------------*/
FoamFile
{
    version     2.0;
    format      ascii;
    class       surfaceVectorField;
    location    "1.21";
    object      Uf;
}
// * * * * * * * * * * * * * * * * * * * * * * * * * * * * * * * * * * * * * //

dimensions      [0 1 -1 0 0 0 0];


internalField   nonuniform List<vector> 
5999
(
(99.99916655 0.003216531096 -2.041264296e-21)
(99.99698773 0.002710487893 6.042656777e-21)
(99.99848847 0.008726304929 -2.01820456e-21)
(99.99484274 0.01018682729 2.032463959e-21)
(99.99712943 0.01905750695 -4.028425164e-21)
(99.99033189 0.02424282858 1.214196874e-20)
(99.99852723 0.02377368424 1.258323326e-21)
(99.98173169 0.05059323463 -8.028949348e-21)
(99.99187056 0.05339427113 -1.340238571e-21)
(99.99728079 0.04406569361 1.949067544e-21)
(99.99916664 0.02667728365 9.693019736e-22)
(99.99024987 0.07757974208 1.940486731e-21)
(99.99775512 0.04457112363 9.521991604e-22)
(99.99834098 0.03414312356 -9.766586268e-22)
(99.99718124 0.05777625334 9.521602698e-22)
(99.98455292 0.1312270502 1.897464456e-21)
(99.99685331 0.07429594663 0)
(99.99662436 0.09277512919 -3.521741914e-21)
(99.97932666 0.2065049606 -3.521723585e-21)
(99.99611014 0.1148894244 -9.162788208e-22)
(99.99549634 0.1407700358 3.070713707e-21)
(99.97224948 0.3099898089 3.369090382e-21)
(99.99489209 0.1704813055 4.163616983e-22)
(99.9943572 0.2037986807 -2.821542436e-21)
(99.96600202 0.4430981686 3.998314904e-22)
(99.99395929 0.240184007 -2.925378012e-21)
(99.99379977 0.2786325668 2.235199172e-22)
(99.9637609 0.5961261966 -1.978979187e-21)
(99.99400118 0.3174153235 2.58603849e-21)
(99.99461497 0.3543367062 2.255581319e-21)
(99.969618 0.7430196523 -1.010563591e-21)
(99.99564931 0.3869168069 0)
(99.99219565 0.008621189048 1.00943516e-20)
(99.98888732 0.003693802975 2.428544271e-22)
(99.98562505 0.02378059162 1.615117366e-20)
(99.98064018 0.01505239254 -1.410077059e-20)
(99.97345721 0.0525719169 8.45213121e-21)
(99.96339351 0.03861981605 -2.192859241e-20)
(99.96625844 0.09325593325 -1.416127188e-21)
(99.93489638 0.08378239505 4.219545924e-20)
(99.94143965 0.1120886525 -9.313550223e-21)
(99.94900843 0.1211113088 -1.996424401e-21)
(99.96045466 0.1224737876 3.949540384e-21)
(99.97634827 0.08594663298 1.961600564e-21)
(99.96060672 0.1514169975 1.92378788e-21)
(99.94804591 0.1634218895 1.953693129e-21)
(99.91217155 0.2178014796 -3.939702296e-21)
(99.93425159 0.2152028219 -1.566552022e-23)
(99.93774574 0.255491908 1.897762239e-21)
(99.91776786 0.2797695164 -1.497158147e-23)
(99.8644218 0.3682737601 0)
(99.90925426 0.3342669395 0)
(99.88401338 0.3820804304 -2.37531763e-21)
(99.91251954 0.3930861034 -4.680671046e-21)
(99.90236299 0.4123781425 -5.259044586e-23)
(99.87354599 0.4779738382 -1.05307171e-20)
(99.89371207 0.453998482 -3.619479913e-21)
(99.86479252 0.6278005524 2.86224925e-23)
(99.88129675 0.5946866565 -2.404503481e-21)
(99.82694343 0.7273473787 -1.316531824e-20)
(99.85664859 0.6858539736 -3.204194384e-21)
(99.82960811 0.9131039081 -6.104686722e-21)
(99.85274915 0.857422501 -5.733793715e-21)
(99.78400885 1.054559701 4.980698841e-22)
(99.82381184 0.9865168061 -7.332168866e-21)
(99.80957102 1.254883257 -9.512567523e-23)
(99.8396333 1.165765116 -4.895752354e-21)
(99.76267472 1.442952155 -2.530989211e-21)
(99.81088459 1.337061234 -3.692922286e-21)
(99.8277222 1.603896253 -3.683628772e-21)
(99.8620138 1.470319154 -5.008570889e-21)
(99.79203349 1.832107879 -2.67777806e-21)
(99.84196175 1.678549078 -3.522739644e-21)
(99.97976855 0.008940067931 -2.421487714e-20)
(99.98045669 0.001297742153 -1.210206879e-20)
(99.96149347 0.02775160849 -5.249953897e-20)
(99.96295608 0.009304557438 1.138694396e-20)
(99.92864103 0.06750499354 1.158275201e-20)
(99.92612767 0.03416966878 -4.445143711e-20)
(99.89048591 0.1359569681 2.685752452e-20)
(99.86661443 0.08540352152 4.837714677e-20)
(99.85373843 0.1452850958 -4.349605714e-20)
(99.903757 0.1485645336 -8.04211954e-21)
(99.8539113 0.1645098975 -5.921222781e-20)
(99.86536494 0.1893009906 -4.001670727e-21)
(99.84658152 0.2728981482 -7.869689003e-21)
(99.82952413 0.2581847178 -3.923604729e-21)
(99.76584628 0.3130644041 2.749134207e-20)
(99.78668635 0.3446682445 7.759303017e-21)
(99.76488752 0.467131174 -6.826406729e-21)
(99.73618802 0.4520397489 5.015263212e-21)
(99.6408573 0.5468696761 -3.88020076e-20)
(99.7042957 0.5650423134 2.765338836e-21)
(99.65638956 0.6043453501 -1.694942671e-20)
(99.68447441 0.7199203388 -7.073321624e-21)
(99.66119033 0.7146331261 0)
(99.60250141 0.7898926244 7.287616858e-21)
(99.6308037 0.8022600203 -7.060313041e-21)
(99.56731742 1.115231109 3.474372006e-21)
(99.53176365 1.117099562 1.364369026e-20)
(99.45347642 1.232354187 6.769873996e-21)
(99.49792637 1.238819386 1.696736719e-20)
(99.45350133 1.645293237 1.2625975e-20)
(99.40117437 1.662986573 -6.244781091e-21)
(99.30599125 1.83429454 1.521223719e-19)
(99.37291986 1.822250256 6.463231133e-21)
(99.39291213 2.304032043 1.771932376e-19)
(99.3187935 2.355680511 2.145310898e-20)
(99.22803863 2.597877881 5.770496401e-20)
(99.31743471 2.542039521 9.563208619e-21)
(99.46999422 2.993313872 0)
(99.37889818 3.109982676 5.579556615e-19)
(99.32289805 3.41537985 -1.563418831e-20)
(99.42421897 3.284389573 -1.382790362e-20)
(99.96795666 0.0008174086906 2.430540546e-20)
(99.97970263 -0.005786540041 -4.051265886e-21)
(99.93319966 0.01385310066 2.043001408e-20)
(99.95071528 -0.01132975398 2.837885088e-20)
(99.87096424 0.05218124409 -8.124143988e-21)
(99.89008933 0.00297064706 -4.03815814e-21)
(99.78923019 0.1407920359 0)
(99.78948968 0.04683999804 6.18459384e-21)
(99.74820211 0.1279317437 1.888223265e-20)
(99.79681488 0.1685042247 -5.532614517e-20)
(99.73568125 0.1583635454 1.419640694e-20)
(99.73519622 0.2059112816 0)
(99.6728045 0.3347536324 3.489295908e-22)
(99.66350317 0.2916536104 -3.150474962e-20)
(99.57021953 0.3351954514 -3.14835555e-20)
(99.57776891 0.4014972834 6.394184065e-20)
(99.49798476 0.6007732656 -9.516597816e-20)
(99.47688689 0.5400229278 3.359953991e-20)
(99.33818135 0.6214383773 -6.357873721e-20)
(99.39038559 0.7066410816 -3.16048769e-20)
(99.32543131 0.7191656861 -5.202568451e-20)
(99.30458363 0.9535239804 7.558823536e-21)
(99.28149849 0.9157975211 1.503854609e-20)
(99.18985548 0.9899407556 3.794279207e-20)
(99.21446139 1.038472032 7.49733323e-21)
(99.0315814 1.529601006 5.550700632e-20)
(98.99139257 1.48482657 -2.082266432e-20)
(98.86470481 1.609256185 8.745604259e-20)
(98.91121989 1.666553181 -2.880668734e-20)
(98.74711736 2.378537065 -1.171450831e-19)
(98.67521984 2.336607938 8.764264605e-21)
(98.52074119 2.548347959 8.395589052e-20)
(98.606845 2.600938554 -4.11381029e-19)
(98.57809718 3.527789028 -7.5025024e-19)
(98.46102084 3.520623613 1.976537637e-21)
(98.3006161 3.856958962 -1.947956075e-20)
(98.445532 3.858941844 -7.216729763e-19)
(98.76630903 4.816879489 4.461051236e-20)
(98.54829469 4.888506165 -5.047378982e-19)
(98.52406238 5.345123335 -5.012683812e-19)
(98.65859662 5.207251309 -5.646267767e-19)
(99.96726712 -0.01820326428 0)
(99.99688996 -0.01825373493 0)
(99.91370221 -0.02316895946 4.074650785e-21)
(99.95546825 -0.04886926106 0)
(99.81724443 -0.001797306454 1.024693464e-20)
(99.8700531 -0.05923990512 -3.544780878e-21)
(99.68117186 0.07962706102 1.821059334e-20)
(99.7269333 -0.03861409586 2.276959179e-20)
(99.6401423 0.05005466733 -6.872555241e-21)
(99.6766234 0.1326255444 2.445433961e-20)
(99.60782868 0.09064950828 1.994395992e-21)
(99.58978258 0.1530662506 -9.716622754e-21)
(99.46250981 0.3119231863 0)
(99.47256269 0.2433251377 -2.04425105e-20)
(99.3538642 0.2632194363 -1.675840262e-20)
(99.33269483 0.3594236441 4.171331468e-21)
(99.16545768 0.6059272585 0)
(99.16738216 0.5093560033 4.170884872e-21)
(98.98705929 0.5538639183 -4.290962207e-21)
(99.00489261 0.7098726752 2.098468526e-20)
(98.9331993 0.689579579 5.393383802e-21)
(98.81318374 1.024348097 2.108810566e-19)
(98.80406223 0.9519319118 -3.084652995e-20)
(98.6776847 1.010481548 -6.242314516e-20)
(98.6852762 1.09619057 1.780285718e-19)
(98.2927252 1.775050452 1.175809658e-19)
(98.26637152 1.672320193 2.318662489e-19)
(98.08461913 1.793854024 2.243492995e-19)
(98.1124154 1.919593611 0)
(97.6906557 3.006604391 -7.72808395e-19)
(97.61701861 2.880573779 1.010313295e-20)
(97.35989263 3.129333493 -1.77154758e-18)
(97.45032321 3.285649343 -1.733441603e-18)
(97.22527008 4.879177527 7.21905729e-19)
(97.05209966 4.769474826 1.160000096e-20)
(96.76542268 5.212885224 -1.647120495e-18)
(96.99200872 5.343450319 -7.023408107e-19)
(97.52127992 7.132904676 7.365352756e-19)
(97.22447566 7.175027986 -5.830706943e-19)
(97.07199563 7.820784018 1.035785276e-19)
(97.47332734 7.763987884 8.217026702e-19)
(99.98966291 -0.04874702085 0)
(100.0428955 -0.03610380387 1.992003115e-21)
(99.91732124 -0.08478177863 -8.176548267e-21)
(99.98954985 -0.1031514839 -2.006383613e-21)
(99.78657348 -0.09573790813 8.415937677e-21)
(99.88056477 -0.1523778622 -4.083979672e-21)
(99.58723806 -0.03415780346 1.106297018e-20)
(99.69615625 -0.1730535194 2.999593638e-21)
(99.55874925 -0.09114508238 -2.149733389e-24)
(99.55865215 0.0303793647 -8.248141065e-21)
(99.5019511 -0.04634295811 -8.288225811e-21)
(99.454289 0.02616960563 0)
(99.24989253 0.1878354694 -1.675798891e-20)
(99.29025617 0.1008257641 0)
(99.15553668 0.08563027187 -9.023595827e-23)
(99.09196361 0.2017191928 -5.75072224e-23)
(98.80866247 0.4640228817 8.607463402e-21)
(98.85348059 0.3360114065 1.294922416e-20)
(98.64282065 0.3350356274 1.740489506e-20)
(98.60355617 0.5367047205 -3.563731583e-20)
(98.53468694 0.48966221 -1.400837939e-20)
(98.26547788 0.8896600486 -6.530796924e-20)
(98.28909543 0.7871200528 1.192577568e-20)
(98.12905722 0.8205073596 6.422001135e-20)
(98.09876661 0.9404463789 3.101551502e-19)
(97.40623061 1.729331261 0)
(97.42103905 1.569948398 -4.907632968e-19)
(97.17200955 1.66275298 0)
(97.1475114 1.856414886 2.393183649e-19)
(96.20583633 3.293473922 -2.44372419e-19)
(96.17540202 3.042637557 -9.60685657e-19)
(95.77780254 3.264762915 -7.346715293e-19)
(95.8182161 3.566281915 -2.345392391e-19)
(94.99031709 6.019361363 3.978587321e-19)
(94.78689728 5.688696857 1.150938567e-19)
(94.24962915 6.155461866 4.78034127e-19)
(94.5221762 6.58209455 3.95074739e-19)
(95.01391054 10.06740094 2.974885738e-20)
(94.42076258 9.840774598 2.516406533e-19)
(93.95385365 10.80557605 -1.492588852e-20)
(94.77934078 11.05666322 2.467594884e-19)
(100.0467306 -0.08998033712 -1.374609111e-23)
(100.1277879 -0.05865417397 6.133497945e-23)
(99.95770034 -0.1693575594 2.0831052e-21)
(100.0644883 -0.1719961951 -7.440759444e-23)
(99.79661343 -0.228379304 -1.093606802e-20)
(99.93639009 -0.2723142073 1.640091441e-21)
(99.53700499 -0.2129904642 -9.93329874e-21)
(99.71865688 -0.3502614769 -1.661462985e-20)
(99.52926869 -0.2907819084 -1.411350196e-20)
(99.47705074 -0.141576722 -7.788290599e-21)
(99.44518968 -0.2510487218 -3.070582608e-21)
(99.36347002 -0.1790118344 4.160840922e-23)
(99.07619675 -0.04247258466 1.257253264e-20)
(99.15531215 -0.1377064293 1.276287328e-20)
(99.01661505 -0.1947071371 6.312263571e-21)
(98.9036173 -0.07437213928 2.16830254e-20)
(98.49652761 0.1661484514 -2.183615418e-20)
(98.59787246 0.017603396 -1.7491402e-20)
(98.37693695 -0.04055091451 -2.75224411e-20)
(98.2534296 0.1846856504 -1.778972676e-20)
(98.20279667 0.1077225311 2.727322001e-20)
(97.75433567 0.5193394841 -6.450847515e-20)
(97.82210691 0.3984508719 4.201395854e-21)
(97.64732597 0.3888657559 -6.483413485e-20)
(97.56710816 0.5261073969 3.169079086e-19)
(96.49146189 1.288360437 -3.717176676e-19)
(96.58633258 1.081498263 -3.965947204e-19)
(96.28659994 1.104588877 1.309614492e-19)
(96.1612251 1.347792198 5.228942175e-19)
(94.46280918 2.835463308 -2.986361359e-19)
(94.55830174 2.478510236 -4.250175594e-19)
(94.05197984 2.556525962 9.137847061e-20)
(93.9101035 2.994000077 -1.385771984e-19)
(91.65336788 5.789177425 -2.028583022e-19)
(91.6253407 5.153438469 3.557948459e-19)
(90.76277183 5.326970229 -2.347530721e-19)
(90.76240982 6.165624166 -2.047995542e-19)
(88.83626393 12.14490786 0)
(88.12140065 10.9531925 0)
(86.26144377 12.28785383 0)
(86.52239794 11.48175376 0)
(87.928035 13.60716093 0)
(86.94917463 13.69204799 0)
(100.1485018 -0.1398634172 1.446908035e-23)
(100.2597254 -0.0846191737 -2.950410211e-21)
(100.0468723 -0.2724933952 -5.366188177e-22)
(100.1896209 -0.2514121526 1.286544346e-21)
(99.86322515 -0.3919898559 -4.234871238e-21)
(100.049175 -0.4114570115 -2.789659512e-21)
(99.55304365 -0.4404528748 8.729854744e-21)
(99.8098083 -0.5576000312 -9.610338646e-22)
(99.57388167 -0.5365989916 9.00390678e-22)
(99.45718597 -0.3754078117 4.242702348e-21)
(99.46451875 -0.5082521175 8.815558283e-21)
(99.34646318 -0.4481241672 6.20723092e-21)
(98.98223778 -0.3666859536 -2.127589419e-21)
(99.10464774 -0.4555057513 3.274063943e-21)
(98.9761393 -0.5547413637 2.165070592e-21)
(98.81153889 -0.4488922264 6.554463069e-21)
(98.29196054 -0.2791296819 -3.657357759e-21)
(98.45557888 -0.4235697628 -2.813697794e-22)
(98.24768752 -0.5420892939 -2.515786773e-21)
(98.03691071 -0.3235894301 -1.781911126e-19)
(98.01682218 -0.4273843051 -1.720901055e-21)
(97.40746197 -0.08640287113 -3.723745178e-20)
(97.523776 -0.2053702231 3.110603617e-22)
(97.35889051 -0.2663449418 -5.359167663e-19)
(97.21946695 -0.1374044624 5.129122236e-19)
(95.79656778 0.3949795594 0)
(95.98931284 0.1879995935 0)
(95.69096395 0.1174576352 0)
(95.4510407 0.3455621084 0)
(93.07859009 1.349283017 -3.30393959e-19)
(93.36970112 0.9873495993 -3.315936669e-19)
(92.87995561 0.862129432 -3.308455826e-19)
(92.49646894 1.258765454 -1.040830705e-19)
(88.73290558 2.881609484 4.987175558e-21)
(89.17331829 2.215578121 -8.097986654e-19)
(88.43132579 1.8597102 -4.67291222e-19)
(87.76508051 2.559386748 9.217746327e-21)
(80.70974199 5.176929994 -2.891618617e-20)
(81.3242817 4.30782998 0)
(80.49565115 3.65507723 0)
(79.5843815 4.555636239 0)
(100.3023968 -0.1952015315 -1.67829764e-21)
(100.4438602 -0.1122681463 9.301871008e-22)
(100.1937667 -0.387242125 -9.768785352e-22)
(100.3707983 -0.3360240246 -6.892720036e-22)
(99.99803135 -0.5746663979 4.98380208e-22)
(100.2260115 -0.5598441714 -2.466130092e-22)
(99.65330039 -0.7005986909 5.680201355e-22)
(99.97903661 -0.7796126979 8.362279308e-22)
(99.70660088 -0.8074112965 4.96712725e-22)
(99.52137385 -0.6513927369 1.4584659e-21)
(99.57597044 -0.7971749565 -1.382610473e-23)
(99.42479738 -0.7583831641 -1.382807123e-23)
(99.00118623 -0.7545264192 -2.158119898e-21)
(99.16437641 -0.8240773512 0)
(99.05875945 -0.9612204261 -1.056136287e-21)
(98.84925606 -0.8849772751 -1.116278722e-21)
(98.24833977 -0.8220723199 -1.684440818e-20)
(98.46900008 -0.9397219577 -1.791192523e-20)
(98.2959851 -1.111118523 2.321182833e-23)
(98.01132391 -0.9304885016 1.677279618e-19)
(98.02793445 -1.048784382 -1.716735156e-20)
(97.30518897 -0.8445142862 -5.325802696e-19)
(97.46331224 -0.9386912306 -5.236311681e-19)
(97.32152554 -1.044572438 6.221635296e-21)
(97.13383159 -0.9466104663 -5.391178743e-19)
(95.54022552 -0.7732199081 2.253159628e-20)
(95.80155728 -0.9309775035 -4.926274389e-19)
(95.54899019 -1.075963585 -9.881886646e-19)
(95.22930818 -0.916619832 -2.733596894e-19)
(92.66867384 -0.6581450557 -3.867549516e-19)
(93.08610732 -0.8985554976 7.311431956e-20)
(92.71539118 -1.14514886 -4.246797441e-20)
(92.22244947 -0.9249009441 2.969053124e-19)
(88.56371994 -0.9727130888 -4.737203194e-19)
(89.20978305 -1.269055603 4.20255171e-19)
(88.82583911 -1.738680222 4.692712356e-19)
(88.09593535 -1.533894035 -1.272341133e-19)
(83.65705786 -3.166242291 -5.531196402e-19)
(84.23680409 -3.152164756 -1.061862178e-20)
(84.19235486 -3.595418314 -1.054091608e-18)
(83.67320861 -3.710740856 5.309100747e-19)
(100.512175 -0.2521126524 1.91725175e-21)
(100.6816824 -0.1397240807 9.426334371e-22)
(100.4027617 -0.5052183024 2.890844527e-23)
(100.6095623 -0.4199505896 9.870316191e-22)
(100.2065537 -0.7622734905 9.688432791e-23)
(100.4685139 -0.7065258721 9.137540022e-22)
(99.84589843 -0.9724195305 -1.39334517e-21)
(100.2287394 -0.9997896904 -7.897684902e-22)
(99.93183059 -1.081460793 6.522923115e-22)
(99.68148067 -0.947245234 -9.956350105e-22)
(99.78601594 -1.093848054 -5.027957023e-22)
(99.60839504 -1.083173684 -9.95572352e-22)
(99.14917306 -1.169679192 2.389165751e-24)
(99.34588561 -1.209208031 1.056085129e-21)
(99.2719334 -1.375324097 1.056094488e-21)
(99.02987811 -1.339277618 1.05607491e-21)
(98.39028753 -1.401356747 1.793796989e-20)
(98.65355831 -1.475205065 1.119211976e-21)
(98.5293432 -1.685824565 1.123052806e-21)
(98.19473584 -1.563324789 -4.865873576e-21)
(98.24560762 -1.681819751 7.695142389e-22)
(97.46576163 -1.639233506 -1.6537314e-20)
(97.65301152 -1.696640401 -2.659128974e-19)
(97.54349307 -1.832086815 -8.152121311e-21)
(97.32830174 -1.776713808 1.057787295e-18)
(95.73106369 -1.955739685 -4.995165804e-19)
(96.03560528 -2.045793653 -4.927286733e-19)
(95.83637267 -2.232807641 1.330793048e-19)
(95.49333986 -2.152972063 -5.686249672e-19)
(93.09920997 -2.469522564 -8.327359583e-19)
(93.54377914 -2.582318599 -3.270691824e-19)
(93.28587063 -2.860234386 -1.008512519e-18)
(92.80028067 -2.779437276 2.403493035e-19)
(89.84167495 -3.535185536 -4.237047655e-19)
(90.41878316 -3.612530101 -6.9435787e-20)
(90.20649246 -4.005391071 -8.5912086e-19)
(89.629339 -3.987465491 -4.057829765e-19)
(86.94142852 -5.453702089 7.843182529e-19)
(87.25380516 -5.393233833 -1.190419755e-19)
(87.23788875 -5.642784396 -1.261750412e-19)
(86.88817131 -5.66956641 4.180117528e-19)
(86.98897709 -5.732325468 -7.93009161e-20)
(100.7775027 -0.306741772 7.528854424e-24)
(100.9710569 -0.1652248248 2.484718117e-21)
(100.6730709 -0.6181983184 1.851299094e-21)
(100.9034185 -0.4975975377 9.380036643e-22)
(100.4878766 -0.9404210296 6.102017525e-23)
(100.7725731 -0.8404988994 -4.453466894e-23)
(100.1289548 -1.235098337 -1.876384203e-21)
(100.5552841 -1.205013103 -8.533823319e-22)
(100.2440545 -1.3378285 -4.749350589e-22)
(99.93795283 -1.238961104 -4.881826524e-22)
(100.0891787 -1.375440392 -9.748634221e-22)
(99.89445972 -1.395368727 8.096961581e-23)
(99.42534574 -1.573818174 0)
(99.64524249 -1.577064843 9.801955745e-22)
(99.60760049 -1.761394649 1.944952256e-21)
(99.3472135 -1.770226603 1.049296801e-21)
(98.7100152 -1.958290424 -3.215056986e-20)
(98.99834006 -1.979054739 -3.096785089e-20)
(98.92843213 -2.213283369 1.302407232e-21)
(98.56514758 -2.157275725 -2.199864688e-20)
(98.64451558 -2.265983894 -3.614969627e-19)
(97.8575942 -2.379948697 -1.009868784e-18)
(98.06023276 -2.397761106 -4.989854782e-19)
(97.98651173 -2.549510381 5.078065886e-19)
(97.7589683 -2.538032513 -3.843127342e-20)
(96.26253671 -2.998717505 6.900526118e-19)
(96.57740503 -3.025724664 0)
(96.43588063 -3.22976341 0)
(96.091392 -3.217449992 4.233315729e-19)
(93.96156932 -3.888406193 1.014871531e-20)
(94.39136035 -3.912056876 0)
(94.21615596 -4.18724646 3.143997898e-19)
(93.76114643 -4.189587389 5.105136188e-19)
(91.29490943 -5.16840904 -9.455789706e-22)
(91.79691512 -5.162635091 3.695971194e-19)
(91.6524238 -5.49822806 -3.81939718e-19)
(91.15494446 -5.528721724 -9.026749632e-20)
(89.00899185 -6.709828464 4.930976734e-19)
(89.24670685 -6.665960748 9.550491052e-20)
(89.22046358 -6.841916467 -1.909405632e-19)
(88.95834868 -6.859069405 2.371096139e-19)
(89.02892729 -6.90784657 -6.118914133e-19)
(101.0942773 -0.3554324256 3.415968438e-21)
(100.999567 -0.7186545578 -9.119716717e-22)
(100.8336404 -1.097055044 -9.119419361e-22)
(100.4894844 -1.471965178 0)
(100.2803872 -1.50548446 6.088213407e-24)
(100.2693736 -1.670519908 1.855585353e-21)
(99.81571681 -1.934790442 -9.785773205e-22)
(100.0475905 -1.899582807 -1.057944762e-21)
(99.78209731 -2.145025739 1.037663394e-21)
(99.18004194 -2.446522907 3.222817887e-20)
(99.47688785 -2.412830382 2.981333449e-21)
(99.08689708 -2.666501587 -3.208297837e-19)
(99.18808804 -2.758179761 -2.028161001e-20)
(98.4341257 -3.010311276 -4.945678063e-19)
(98.6391738 -2.990336989 -4.794835902e-19)
(98.60084179 -3.145929434 -9.487793348e-19)
(98.37381839 -3.1754287 -4.880965989e-19)
(97.03074696 -3.844794487 4.392041641e-19)
(97.3394851 -3.817707171 5.008143551e-19)
(97.25012536 -4.022737922 -6.562999873e-20)
(96.91789916 -4.065934422 4.379291105e-19)
(95.04747779 -4.968086294 3.002213945e-19)
(95.45608425 -4.927592263 1.366196533e-19)
(95.34511019 -5.191952571 -2.85781446e-19)
(94.91549204 -5.253959496 -1.504931827e-19)
(92.73265955 -6.38082627 -3.511300747e-19)
(93.20554426 -6.328464555 0)
(93.10622247 -6.645216338 0)
(92.62226674 -6.710884053 -3.555523477e-19)
(90.59042903 -7.855325162 3.427280698e-19)
(90.8154476 -7.832362971 3.431038742e-19)
(90.78942696 -8.013912519 -7.043559333e-23)
(90.5197789 -8.006168597 6.227050047e-19)
(90.58517993 -8.068597606 2.282583629e-19)
(83.72779795 -2.668845501 2.599163975e-21)
(83.06150854 -3.264494918 -5.42687522e-19)
(83.08528472 -2.645802091 -5.43009438e-19)
(86.95605058 -5.191341028 9.032718295e-19)
(86.63041334 -5.251899368 5.62977496e-19)
(86.57987807 -5.482075229 1.111571556e-18)
(86.68490223 -5.54750363 6.017220327e-19)
(89.03283212 -6.52738861 3.92199443e-19)
(88.78845526 -6.577066538 7.846319468e-19)
(88.7397912 -6.730927794 9.486938159e-19)
(88.81391387 -6.777916422 8.812566861e-20)
(90.61869899 -7.676674972 0)
(90.39470017 -7.699512504 -8.938624915e-20)
(90.32470515 -7.847704323 3.986973376e-19)
(90.3888597 -7.908888316 -3.967728461e-19)
(81.6894914 5.700937209 -2.892794577e-20)
(79.99440921 6.283986707 -1.728518198e-20)
(81.24540074 6.656209795 -3.40272955e-20)
(90.08358915 -3.122719808 4.441453134e-19)
(89.23267771 -3.490959642 -5.81134229e-19)
(89.48326824 -3.008423381 8.794267e-19)
(87.26755188 -5.134963707 0)
(86.96747121 -4.917955297 0)
(87.30520122 -4.879694525 -4.480405069e-19)
(84.31164925 -2.644345943 5.412363417e-19)
(84.85489472 -2.684893896 1.753093764e-21)
(84.76094301 -3.105370877 5.046800703e-19)
(91.45143627 -4.822482973 3.785605496e-19)
(90.78486307 -5.191357 -8.15593588e-19)
(90.93493548 -4.813939422 0)
(89.27027501 -6.48745454 -6.264821567e-21)
(89.05374733 -6.341893822 3.268158043e-21)
(89.30626524 -6.304491079 -6.026587643e-21)
(87.59051361 -5.095833989 0)
(87.55430788 -5.337981974 0)
(88.06195569 -6.148778387 3.027845973e-19)
(88.07836989 -5.93048674 -1.044094094e-19)
(87.79753789 -5.989553982 -5.330626824e-19)
(87.74961528 -6.178898228 -6.954708449e-20)
(87.84104241 -6.228749522 3.856984605e-19)
(87.16826892 -7.066319689 8.458915051e-19)
(87.02594013 -7.117590264 1.564464654e-21)
(87.02015971 -7.01457091 -7.633634832e-19)
(87.17517304 -6.961511907 3.708485394e-19)
(86.97543824 -7.107285991 1.557415019e-21)
(85.90305704 -6.492690391 -3.966620757e-19)
(85.84191397 -6.597058954 -4.045498444e-19)
(86.0753206 -6.454993419 3.921587488e-19)
(86.05996648 -6.579400045 2.690439071e-21)
(85.89379628 -6.63279725 1.79628527e-21)
(92.84498956 -6.061258396 -1.317747776e-20)
(92.24890194 -6.434174839 3.731546987e-19)
(92.36828257 -6.101735822 -3.510710468e-19)
(90.84376965 -7.653031282 0)
(90.64869228 -7.500184579 0)
(90.8764383 -7.475280647 0)
(89.51655307 -6.45119796 3.829512952e-19)
(89.47909732 -6.630030578 8.995108747e-21)
(89.81714828 -7.253007103 -8.4940476e-22)
(89.84871791 -7.082183194 7.279495262e-19)
(89.62290075 -7.112405372 7.375273467e-19)
(89.56298935 -7.255042412 1.070547201e-18)
(89.62613416 -7.308634175 -1.691486029e-19)
(88.74988082 -7.846371416 0)
(88.66078347 -7.842885685 0)
(88.71684536 -7.813803977 0)
(88.79396951 -7.813265855 0)
(88.13342469 -7.419414928 0)
(88.0594545 -7.480378651 0)
(88.26848428 -7.389536006 0)
(88.23404382 -7.466959671 0)
(88.09206848 -7.495036155 0)
(91.07158813 -7.627563547 0)
(91.04199427 -7.807588399 -3.324698581e-19)
(91.47955025 -8.452173528 7.975433711e-19)
(91.46715851 -8.343482656 6.535232786e-19)
(91.35505288 -8.469596856 -1.544254598e-21)
(91.35838315 -8.374035016 8.088231315e-19)
(89.906778 -9.193694493 -2.496515387e-19)
(89.71447001 -9.179772042 3.21819219e-23)
(89.87312596 -9.141645413 3.17500819e-23)
(90.01225698 -9.148839585 2.490322122e-19)
(89.33191872 -8.490952714 2.619056683e-19)
(89.24375055 -8.529497384 2.641642351e-19)
(89.43755291 -8.491735735 5.161246468e-19)
(89.37495708 -8.53258794 5.208521758e-19)
(76.09176709 -4.668253898 -1.603789827e-19)
(76.92535103 -4.46939437 -1.600394028e-19)
(77.11279203 -5.17655444 -1.602211059e-19)
(76.16851164 -5.490418888 -1.069038439e-19)
(76.54504762 -5.5865767 -1.029311728e-19)
(82.08797069 -6.188246599 -5.457356278e-21)
(81.89390072 -5.922767244 -4.926228396e-19)
(81.58882973 -6.166640338 -4.938989307e-19)
(81.75753316 -6.457796819 -3.310604496e-19)
(81.91248303 -6.438843159 -1.289621353e-18)
(70.92774743 6.118760178 0)
(70.02349579 7.315043756 0)
(69.88524592 5.084447601 0)
(68.55131965 6.339670899 0)
(75.95951032 -3.883010608 0)
(75.22905412 -5.000611211 0)
(75.01866081 -4.015017879 0)
(85.73927048 -6.543190752 -2.670262188e-19)
(85.74957354 -6.40776816 -1.209733476e-18)
(85.92020776 -6.369265826 1.176726563e-18)
(85.68982013 -6.508358432 -2.672156479e-19)
(84.59391505 -6.096548048 4.081783707e-19)
(84.57668771 -5.97701524 1.279446087e-18)
(84.7548964 -5.898595648 4.357246735e-19)
(84.77011827 -6.019583088 5.065803876e-21)
(85.55769327 -4.545678816 -4.912083023e-19)
(85.95194781 -4.491906436 0)
(85.94050829 -4.797917432 0)
(85.59338303 -4.891705692 2.287102087e-21)
(84.41401339 -6.186300694 5.502288679e-19)
(84.60145574 -6.215934118 -4.405062247e-19)
(84.38531433 -6.285294843 -2.922477937e-19)
(84.44595946 -6.286909059 -2.918913315e-19)
(85.73590164 -6.609454591 -3.052086857e-19)
(85.6331114 -6.624474804 0)
(85.6566595 -6.564261376 0)
(82.35522085 -5.960707233 4.828378343e-19)
(82.51895204 -6.188640508 4.877995251e-19)
(82.21055674 -6.424623612 8.022729645e-19)
(82.34238302 -6.402280427 3.281527195e-19)
(84.39708497 -6.064613897 1.421172076e-18)
(84.21263509 -6.163858673 3.298199384e-19)
(84.19419368 -6.26829732 2.000993556e-19)
(84.25893409 -6.269146688 6.585333032e-19)
(87.99296922 -7.448623119 0)
(88.03012473 -7.37273198 0)
(88.16530368 -7.340237976 0)
(87.96025719 -7.434218059 0)
(87.12289066 -7.153498555 5.677447918e-19)
(87.319156 -7.013479479 -2.665304553e-19)
(87.31021383 -7.113558364 5.622304812e-19)
(87.17089398 -7.161869096 -1.992410927e-19)
(88.3327937 -6.089740867 4.460717545e-22)
(88.31536407 -6.298929582 1.088087706e-19)
(88.01603304 -6.32785733 7.191925471e-19)
(88.10256992 -6.374753344 -1.758394075e-19)
(87.02938836 -7.176245556 0)
(87.09615177 -7.197187659 -5.77925749e-19)
(87.00758594 -7.221264498 -4.817115174e-22)
(87.97455108 -7.489854064 0)
(87.88236342 -7.499017272 -3.007822233e-19)
(87.9217972 -7.466824856 0)
(85.80927573 -6.654818027 -3.053854176e-19)
(85.70882201 -6.670706072 1.573368499e-21)
(86.93483875 -7.200200458 2.894663593e-19)
(86.94966555 -7.153618961 0)
(89.20188297 -8.48741987 5.199723749e-19)
(89.2896016 -8.448449717 -2.603948922e-19)
(89.39444775 -8.449706715 -2.566684866e-19)
(88.69125872 -7.876382846 0)
(88.82826868 -7.847239335 0)
(88.782626 -7.881161402 0)
(90.04114423 -7.225822634 -3.720069803e-19)
(90.00920949 -7.397767906 -6.342604351e-19)
(89.75348839 -7.395603617 -2.442845038e-19)
(89.81582702 -7.451349351 -2.442506943e-19)
(88.60135334 -7.872996712 0)
(88.62978089 -7.907768207 -2.801217719e-19)
(88.51660052 -7.898357946 0)
(89.11080268 -8.526816371 5.264346117e-19)
(88.92754135 -8.517441485 8.024806285e-19)
(89.07033566 -8.484159863 1.321347083e-18)
(88.01980095 -7.512645018 0)
(87.93047304 -7.521881345 6.046943673e-19)
(88.49133252 -7.865501668 -2.849596686e-19)
(88.5726421 -7.841204974 2.759916803e-19)
(89.74401687 -9.23151809 4.754551518e-22)
(90.0507354 -9.200780631 -4.937089316e-19)
(89.94548785 -9.24488867 -2.493838054e-19)
(91.46430759 -8.548971484 8.00810267e-19)
(89.54868322 -9.216186854 2.555554365e-19)
(89.57831219 -9.264268362 2.547484722e-19)
(89.24559141 -9.240031392 -1.146885302e-20)
(89.1526382 -8.568329556 -2.657253821e-19)
(88.96732112 -8.559549527 -2.677414347e-19)
(89.23238266 -9.194402831 -5.22723064e-19)
(89.52945886 -9.164980209 2.56980738e-19)
(89.02017769 -0.495665488 -6.744007398e-20)
(87.79909391 -0.6713154174 -4.718539447e-19)
(88.38472615 -0.1102962627 -1.531088219e-20)
(83.84710211 -2.102441022 5.417371268e-19)
(84.43452449 -2.186556309 5.322906918e-19)
(82.30578308 4.825030259 0)
(82.79903543 4.056108496 0)
(82.08275377 3.561694768 0)
(81.34442057 -0.2750247354 0)
(81.71139505 0.453952454 0)
(80.36376127 -0.01879313005 0)
(80.88215757 0.869971152 0)
(76.7999441 -3.680159031 0)
(75.91812259 -3.000443441 0)
(76.75239283 -2.967175529 0)
(72.174708 6.95666294 -7.075067183e-19)
(72.93350654 5.890891662 0)
(71.99577422 5.102335845 0)
(85.57123457 -4.216502286 4.868062301e-19)
(85.18266914 -4.651327376 -4.912489432e-19)
(85.14125912 -4.269540401 -4.913722132e-19)
(84.36878246 -5.940872969 8.644469978e-19)
(84.55304102 -5.851658603 -4.074528513e-19)
(82.16027062 -5.694244045 -3.709678344e-21)
(82.44851253 -5.504380009 4.881063297e-19)
(82.59427366 -5.755900818 -4.808279551e-19)
(81.67925257 -5.616304894 0)
(82.00354889 -5.417635796 0)
(77.55707157 -3.579331641 0)
(77.65333216 -4.215125126 0)
(82.15304297 -0.5475001969 5.61432749e-19)
(81.89628386 -1.226098627 0)
(81.01000855 -1.119530208 0)
(79.32431577 -8.977260892 -2.156041384e-18)
(79.60041399 -8.753043287 -2.022953261e-18)
(79.72558204 -8.749142047 1.257485255e-20)
(79.35366072 -9.087958016 7.803996691e-19)
(56.85538512 8.543094534 2.176280138e-19)
(55.74832323 10.09644526 1.07374764e-20)
(55.59752709 7.043137211 2.153954109e-19)
(53.74286643 8.906050372 4.473832963e-19)
(64.18335562 -6.647934139 1.56426187e-18)
(64.45037597 -7.972284081 7.929800381e-19)
(62.96164238 -8.396929138 7.86588515e-19)