/*--------------------------------*- C++ -*----------------------------------*\
| =========                 |                                                 |
| \\      /  F ield         | OpenFOAM: The Open Source CFD Toolbox           |
|  \\    /   O peration     | Version:  v2012                                 |
|   \\  /    A nd           | Website:  www.openfoam.com                      |
|    \\/     M anipulation  |                                                 |
\*---------------------------------------------------------------------------*/
FoamFile
{
    version     2.0;
    format      ascii;
    class       pointVectorField;
    location    "0.42";
    object      pointDisplacement;
}
// * * * * * * * * * * * * * * * * * * * * * * * * * * * * * * * * * * * * * //

dimensions      [0 1 0 0 0 0 0];


internalField   nonuniform List<vector> 
6426
(
(0 0 0)
(0 0 0)
(0 0 0)
(0 0 0)
(0 0 0)
(0 0 0)
(0 0 0)
(0 0 0)
(0 0 0)
(0 0 0)
(-2.750137226e-05 0.01832363114 0)
(-2.883953066e-05 0.01827543977 0)
(-2.985366252e-05 0.01822723794 0)
(6.978358951e-05 0.01822792297 0)
(7.228931732e-05 0.01832424354 0)
(0.001594684075 0.01832506004 0)
(0.001590652087 0.01813227061 0)
(0.001586539414 0.0179395355 0)
(0.001995638061 0.01793871228 0)
(0.00200334297 0.01832442763 0)
(0.001799089873 0.01832472551 0)
(0.003091078625 0.01750174068 3.429895257e-13)
(0.003042019146 0.01688911228 3.381184221e-13)
(0.003225861034 0.01587764686 3.178846075e-13)
(0.00330809573 0.01660853678 3.25503513e-13)
(0.003294590686 0.01234433834 2.419175971e-13)
(0.003177180788 0.01166228008 2.334799021e-13)
(0.002937524914 0.009941195758 1.990074772e-13)
(0.003060615441 0.01057377791 2.072092498e-13)
(0.001849070131 0.005176988832 1.014188733e-13)
(0.001737776522 0.004764790016 9.535428003e-14)
(0.001269244098 0.003273588242 6.550315845e-14)
(0.001367158121 0.003600769727 7.052691764e-14)
(0.000193916586 0.0004336170415 8.493206138e-15)
(0.000157630717 0.0003451332224 6.89726054e-15)
(1.2495175e-05 2.604994613e-05 5.273559367e-16)
(2.387309173e-05 5.083101846e-05 9.992007222e-16)
(0 0 0)
(0 0 0)
(0 0 0)
(0 0 0)
(0 0 0)
(0 0 0)
(0 0 0)
(0 0 0)
(0 0 0)
(0 0 0)
(0 0 0)
(0 0 0)
(0 0 0)
(0 0 0)
(-9.483638893e-05 0.01679423316 0)
(-9.527121874e-05 0.01669748065 0)
(-9.570653891e-05 0.01660063821 0)
(0.000110357466 0.01659971175 0)
(0.0001112278744 0.01679330669 0)
(0.001553670253 0.01678682143 0)
(0.001551929841 0.01639972146 0)
(0.001956680568 0.01633519341 3.57686103e-13)
(0.001964274333 0.0167717023 3.587685704e-13)
(0.00289699331 0.01513296219 3.238520563e-13)
(0.002828462933 0.01447066328 3.16940918e-13)
(0.002947327946 0.01335154116 2.924466225e-13)
(0.0030309322 0.01402576586 3.001765503e-13)
(0.002767379511 0.009526862332 2.038785807e-13)
(0.002655991439 0.008942049615 1.958572193e-13)
(0.002358277976 0.007313580462 1.601774269e-13)
(0.0025201192 0.007994536949 1.710714903e-13)
(0.001310951123 0.003366820074 7.202571872e-14)
(0.001142103831 0.002867079027 6.278311204e-14)
(0.0007748820372 0.001829257714 4.005129561e-14)
(0.0008831430727 0.002133075739 4.563016631e-14)
(3.244761703e-05 6.65115247e-05 1.415534356e-15)
(1.465584788e-05 2.935968839e-05 6.383782392e-16)
(0 0 0)
(0 0 0)
(0 0 0)
(0 0 0)
(0 0 0)
(0 0 0)
(0 0 0)
(0 0 0)
(0 0 0)
(0 0 0)
(0 0 0)
(0 0 0)
(0 0 0)
(0 0 0)
(0 0 0)
(0 0 0)
(-0.0001017985521 0.01524565345 0)
(-0.0001035393689 0.01485846357 0)
(0.0003085876674 0.01485661063 0)
(0.0003103284842 0.01524380052 0)
(0.001533261334 0.01510244108 3.55854235e-13)
(0.001508339108 0.01448985474 3.503308754e-13)
(0.001853043338 0.01404431166 3.395894677e-13)
(0.001898135385 0.01475521037 3.477218513e-13)
(0.002596715825 0.01235162535 2.911421104e-13)
(0.002484498483 0.01151781509 2.785549569e-13)
(0.002516717145 0.01032755516 2.49772425e-13)
(0.002647538805 0.0111479094 2.627620344e-13)
(0.002195725408 0.006876052474 1.620509282e-13)
(0.002039008792 0.006222630853 1.504768532e-13)
(0.001722888249 0.004844319358 1.171285291e-13)
(0.001875787215 0.005412077363 1.2753687e-13)
(0.0007302076118 0.001705238349 4.01761957e-14)
(0.0006272158495 0.001427462054 3.450018049e-14)
(0.0003204810502 0.0006859184809 1.657007864e-14)
(0.0004354726577 0.000956368439 2.252364961e-14)
(0 0 0)
(0 0 0)
(0 0 0)
(0 0 0)
(0 0 0)
(0 0 0)
(0 0 0)
(0 0 0)
(0 0 0)
(0 0 0)
(0 0 0)
(0 0 0)
(0 0 0)
(0 0 0)
(0 0 0)
(0 0 0)
(0 0 0)
(0 0 0)
(-0.0001026645881 0.01315038167 3.447242491e-13)
(-9.744297475e-05 0.01218138706 3.286121375e-13)
(0.0002757416288 0.01197723805 3.231581669e-13)
(0.0002898346188 0.01298232688 3.403666238e-13)
(0.001338844386 0.01185698472 3.109734692e-13)
(0.001248900631 0.01073896549 2.898514762e-13)
(0.001488343301 0.01009318098 2.724348525e-13)
(0.001607826318 0.01122896388 2.945282906e-13)
(0.002008959105 0.008578621308 2.250422071e-13)
(0.001809433724 0.007504128875 2.025740686e-13)
(0.001765354968 0.006481215006 1.749572709e-13)
(0.001982549176 0.007493906415 1.965788643e-13)
(0.001446528578 0.004067169914 1.066646771e-13)
(0.001224112417 0.003343575025 9.023337633e-14)
(0.0009526763337 0.002397848325 6.471212455e-14)
(0.001158386915 0.003001094668 7.870093466e-14)
(0.0002885824604 0.0006053218345 1.587618925e-14)
(0.0001857834056 0.0003786504055 1.021405183e-14)
(4.160552761e-05 7.975466024e-05 2.15105711e-15)
(9.619892162e-05 0.0001897770104 4.968248035e-15)
(0 0 0)
(0 0 0)
(0 0 0)
(0 0 0)
(0 0 0)
(0 0 0)
(0 0 0)
(0 0 0)
(0 0 0)
(0 0 0)
(0 0 0)
(0 0 0)
(0 0 0)
(0 0 0)
(0 0 0)
(0 0 0)
(0 0 0)
(0 0 0)
(-6.981406134e-05 0.008494080438 2.510630592e-13)
(-5.849661115e-05 0.00715731924 2.18505769e-13)
(0.0001870207569 0.00693753972 2.118166753e-13)
(0.0002131232975 0.008263547173 2.44276821e-13)
(0.0008987236492 0.007018320707 2.075145611e-13)
(0.0007653838596 0.005772946552 1.763034163e-13)
(0.0008789563771 0.005236450781 1.599137489e-13)
(0.001043414061 0.006432487727 1.902089597e-13)
(0.001142285631 0.004313837588 1.275646255e-13)
(0.0009167190394 0.003348552767 1.022654184e-13)
(0.0008305881417 0.002687368005 8.20732371e-14)
(0.001061164476 0.003549035884 1.049438314e-13)
(0.0005727094248 0.001426401611 4.217459715e-14)
(0.0003864262825 0.0009314727708 2.843558722e-14)
(0.0002274085566 0.0005053034636 1.543210004e-14)
(0.0003785805167 0.0008690860614 2.568778523e-14)
(3.172274923e-06 5.900432746e-06 1.665334537e-16)
(0 0 0)
(0 0 0)
(0 0 0)
(0 0 0)
(0 0 0)
(0 0 0)
(0 0 0)
(0 0 0)
(0 0 0)
(0 0 0)
(0 0 0)
(0 0 0)
(0 0 0)
(0 0 0)
(0 0 0)
(0 0 0)
(0 0 0)
(0 0 0)
(0 0 0)
(0 0 0)
(0 0 0)
(-2.686166528e-05 0.003454664702 1.170313846e-13)
(-1.862498447e-05 0.002448416142 8.608391777e-14)
(7.615861724e-05 0.00232004452 8.157363673e-14)
(0.0001029094558 0.003299325597 1.11771703e-13)
(0.0003727139848 0.002513599968 8.516798378e-14)
(0.0002595328305 0.001682124696 5.914713164e-14)
(0.0002750438383 0.001411847517 4.965472478e-14)
(0.0004069691874 0.002172207845 7.359390874e-14)
(0.0003286707933 0.001079049881 3.655409309e-14)
(0.0001860636563 0.00058812154 2.067790383e-14)
(0.0001271702499 0.0003563624232 1.253164239e-14)
(0.0002554852998 0.00074344932 2.517430708e-14)
(2.921242789e-05 6.341881882e-05 2.15105711e-15)
(8.199151713e-08 1.714885326e-07 1.387778781e-17)
(0 0 0)
(3.41431627e-07 6.834956726e-07 2.775557562e-17)
(0 0 0)
(0 0 0)
(0 0 0)
(0 0 0)
(0 0 0)
(0 0 0)
(0 0 0)
(0 0 0)
(0 0 0)
(0 0 0)
(0 0 0)
(0 0 0)
(0 0 0)
(0 0 0)
(0 0 0)
(0 0 0)
(0 0 0)
(0 0 0)
(0 0 0)
(0 0 0)
(0 0 0)
(0 0 0)
(-3.252589402e-06 0.0004445527143 1.76386683e-14)
(-1.032404206e-06 0.0001396516352 5.787037516e-15)
(4.59674773e-06 0.0001143434436 4.74620343e-15)
(1.515155318e-05 0.0003960266345 1.57096558e-14)
(3.197676105e-05 0.0001826805159 7.244205236e-15)
(3.948142649e-06 2.157475821e-05 8.881784197e-16)
(7.273473401e-07 3.154339647e-06 1.387778781e-16)
(2.422830454e-05 0.0001098104158 4.357625372e-15)
(0 0 0)
(0 0 0)
(0 0 0)
(0 0 0)
(0 0 0)
(0 0 0)
(0 0 0)
(0 0 0)
(0 0 0)
(0 0 0)
(0 0 0)
(0 0 0)
(0 0 0)
(0 0 0)
(0 0 0)
(0 0 0)
(0 0 0)
(0 0 0)
(0 0 0)
(0 0 0)
(0 0 0)
(0 0 0)
(0 0 0)
(0 0 0)
(0 0 0)
(0 0 0)
(0 0 0)
(0 0 0)
(0 0 0)
(0 0 0)
(0 0 0)
(0 0 0)
(0 0 0)
(0 0 0)
(0 0 0)
(0 0 0)
(0 0 0)
(0 0 0)
(0 0 0)
(0 0 0)
(0 0 0)
(0 0 0)
(0 0 0)
(0 0 0)
(0 0 0)
(0 0 0)
(0 0 0)
(0 0 0)
(0 0 0)
(0 0 0)
(0 0 0)
(0 0 0)
(0 0 0)
(0 0 0)
(0 0 0)
(0 0 0)
(0 0 0)
(0 0 0)
(0 0 0)
(0 0 0)
(0 0 0)
(0 0 0)
(0 0 0)
(0 0 0)
(0 0 0)
(0 0 0)
(0 0 0)
(0 0 0)
(0 0 0)
(0 0 0)
(0 0 0)
(0 0 0)
(0 0 0)
(0 0 0)
(0 0 0)
(0 0 0)
(0 0 0)
(0 0 0)
(0 0 0)
(0 0 0)
(0 0 0)
(0 0 0)
(0 0 0)
(0 0 0)
(0 0 0)
(0 0 0)
(0 0 0)
(0 0 0)
(0 0 0)
(0 0 0)
(0 0 0)
(0 0 0)
(0 0 0)
(0 0 0)
(0 0 0)
(0 0 0)
(0 0 0)
(0 0 0)
(0 0 0)
(0 0 0)
(0 0 0)
(0 0 0)
(0 0 0)
(0 0 0)
(0 0 0)
(0 0 0)
(0 0 0)
(0 0 0)
(0 0 0)
(0 0 0)
(0 0 0)
(0 0 0)
(0 0 0)
(0 0 0)
(0 0 0)
(0 0 0)
(0 0 0)
(0 0 0)
(0 0 0)
(0 0 0)
(0 0 0)
(0 0 0)
(0 0 0)
(0 0 0)
(0 0 0)
(0 0 0)
(0 0 0)
(0 0 0)
(0 0 0)
(0 0 0)
(0 0 0)
(0 0 0)
(0 0 0)
(0 0 0)
(0 0 0)
(0 0 0)
(0 0 0)
(0 0 0)
(0 0 0)
(0 0 0)
(0 0 0)
(0 0 0)
(0 0 0)
(0 0 0)
(0 0 0)
(0 0 0)
(0 0 0)
(0 0 0)
(0 0 0)
(0 0 0)
(0 0 0)
(0 0 0)
(0 0 0)
(0 0 0)
(0 0 0)
(0 0 0)
(0 0 0)
(0 0 0)
(0 0 0)
(0 0 0)
(0 0 0)
(0 0 0)
(0 0 0)
(0 0 0)
(0 0 0)
(0 0 0)
(0 0 0)
(0 0 0)
(0 0 0)
(0 0 0)
(0 0 0)
(0 0 0)
(0 0 0)
(0 0 0)
(0 0 0)
(0 0 0)
(0 0 0)
(0 0 0)
(0 0 0)
(0 0 0)
(0 0 0)
(0 0 0)
(0 0 0)
(0 0 0)
(0 0 0)
(0 0 0)
(0 0 0)
(0 0 0)
(0 0 0)
(0 0 0)
(0 0 0)
(0 0 0)
(0 0 0)
(0 0 0)
(0 0 0)
(0 0 0)
(0 0 0)
(0 0 0)
(0 0 0)
(0 0 0)
(0 0 0)
(0 0 0)
(0 0 0)
(0 0 0)
(0 0 0)
(0 0 0)
(0 0 0)
(0 0 0)
(0 0 0)
(0 0 0)
(0 0 0)
(0 0 0)
(0 0 0)
(0 0 0)
(0 0 0)
(0 0 0)
(0 0 0)
(0 0 0)
(0 0 0)
(0 0 0)
(0 0 0)
(0 0 0)
(0 0 0)
(0 0 0)
(0 0 0)
(0 0 0)
(0 0 0)
(0 0 0)
(0 0 0)
(0 0 0)
(0 0 0)
(0 0 0)
(0 0 0)
(0 0 0)
(0 0 0)
(0 0 0)
(0 0 0)
(0 0 0)
(0 0 0)
(0 0 0)
(0 0 0)
(0 0 0)
(0 0 0)
(0 0 0)
(0 0 0)
(0 0 0)
(0 0 0)
(0 0 0)
(0 0 0)
(0 0 0)
(0 0 0)
(0 0 0)
(0 0 0)
(0 0 0)
(0 0 0)
(0 0 0)
(0 0 0)
(0 0 0)
(0 0 0)
(0 0 0)
(0 0 0)
(0 0 0)
(0 0 0)
(0 0 0)
(0 0 0)
(0 0 0)
(0 0 0)
(0 0 0)
(0 0 0)
(0 0 0)
(0 0 0)
(0 0 0)
(0 0 0)
(0 0 0)
(0 0 0)
(0 0 0)
(0 0 0)
(0 0 0)
(0 0 0)
(0 0 0)
(0 0 0)
(0 0 0)
(0 0 0)
(0 0 0)
(0 0 0)
(0 0 0)
(0 0 0)
(0 0 0)
(0 0 0)
(0 0 0)
(0 0 0)
(0 0 0)
(0 0 0)
(0 0 0)
(0 0 0)
(0 0 0)
(0 0 0)
(0 0 0)
(0 0 0)
(0 0 0)
(0 0 0)
(0 0 0)
(0 0 0)
(0 0 0)
(0 0 0)
(0 0 0)
(0 0 0)
(0 0 0)
(0 0 0)
(0 0 0)
(0 0 0)
(0 0 0)
(0 0 0)
(0 0 0)
(0 0 0)
(0 0 0)
(0 0 0)
(0 0 0)
(0 0 0)
(0 0 0)
(0 0 0)
(0 0 0)
(0 0 0)
(0 0 0)
(0 0 0)
(0 0 0)
(0 0 0)
(0 0 0)
(0 0 0)
(0 0 0)
(0 0 0)
(0 0 0)
(0 0 0)
(0 0 0)
(0 0 0)
(0 0 0)
(0 0 0)
(0 0 0)
(0 0 0)
(0 0 0)
(0 0 0)
(0 0 0)
(0 0 0)
(0 0 0)
(0 0 0)
(0 0 0)
(0 0 0)
(0 0 0)
(0 0 0)
(0 0 0)
(0 0 0)
(0 0 0)
(0 0 0)
(0 0 0)
(0 0 0)
(0 0 0)
(0 0 0)
(0 0 0)
(0 0 0)
(0 0 0)
(0 0 0)
(0 0 0)
(0 0 0)
(0 0 0)
(0 0 0)
(0 0 0)
(0 0 0)
(0 0 0)
(0 0 0)
(0 0 0)
(0 0 0)
(0 0 0)
(0 0 0)
(0 0 0)
(0 0 0)
(0 0 0)
(0 0 0)
(0 0 0)
(0 0 0)
(0 0 0)
(0 0 0)
(0 0 0)
(0 0 0)
(0 0 0)
(0 0 0)
(0 0 0)
(0 0 0)
(0 0 0)
(0 0 0)
(0 0 0)
(0 0 0)
(0 0 0)
(0 0 0)
(0 0 0)
(0 0 0)
(0 0 0)
(0 0 0)
(0 0 0)
(0 0 0)
(0 0 0)
(0 0 0)
(0 0 0)
(0 0 0)
(0 0 0)
(0 0 0)
(0 0 0)
(0 0 0)
(0 0 0)
(0 0 0)
(0 0 0)
(0 0 0)
(0 0 0)
(0 0 0)
(0 0 0)
(0 0 0)
(0 0 0)
(0 0 0)
(0 0 0)
(0 0 0)
(0 0 0)
(0 0 0)
(0 0 0)
(0 0 0)
(0 0 0)
(0 0 0)
(0 0 0)
(0 0 0)
(0 0 0)
(0 0 0)
(0 0 0)
(0 0 0)
(0 0 0)
(0 0 0)
(0 0 0)
(0 0 0)
(0 0 0)
(0 0 0)
(0 0 0)
(0 0 0)
(0 0 0)
(0 0 0)
(0 0 0)
(0 0 0)
(0 0 0)
(0 0 0)
(0 0 0)
(0 0 0)
(0 0 0)
(0 0 0)
(0 0 0)
(0 0 0)
(0 0 0)
(0 0 0)
(0 0 0)
(0 0 0)
(0 0 0)
(0 0 0)
(0 0 0)
(0 0 0)
(0 0 0)
(0 0 0)
(0 0 0)
(0 0 0)
(0 0 0)
(0 0 0)
(0 0 0)
(0 0 0)
(0 0 0)
(0 0 0)
(0 0 0)
(0 0 0)
(0 0 0)
(0 0 0)
(0 0 0)
(0 0 0)
(0 0 0)
(0 0 0)
(0 0 0)
(0 0 0)
(0 0 0)
(0 0 0)
(0 0 0)
(0 0 0)
(0 0 0)
(0 0 0)
(0 0 0)
(0 0 0)
(0 0 0)
(0 0 0)
(0 0 0)
(0 0 0)
(0 0 0)
(0 0 0)
(0 0 0)
(0 0 0)
(0 0 0)
(0 0 0)
(0 0 0)
(0 0 0)
(0 0 0)
(0 0 0)
(0 0 0)
(0 0 0)
(0 0 0)
(0 0 0)
(0 0 0)
(0 0 0)
(0 0 0)
(0 0 0)
(0 0 0)
(0 0 0)
(0 0 0)
(0 0 0)
(0 0 0)
(0 0 0)
(0 0 0)
(0 0 0)
(0 0 0)
(0 0 0)
(0 0 0)
(0 0 0)
(0 0 0)
(0 0 0)
(0 0 0)
(0 0 0)
(0 0 0)
(0 0 0)
(0 0 0)
(0 0 0)
(0 0 0)
(0 0 0)
(0 0 0)
(0 0 0)
(0 0 0)
(0 0 0)
(0 0 0)
(0 0 0)
(0 0 0)
(0 0 0)
(0 0 0)
(0 0 0)
(0 0 0)
(0 0 0)
(0 0 0)
(0 0 0)
(0 0 0)
(0 0 0)
(0 0 0)
(0 0 0)
(0 0 0)
(0 0 0)
(0 0 0)
(0 0 0)
(0 0 0)
(0 0 0)
(0 0 0)
(0 0 0)
(0 0 0)
(0 0 0)
(0 0 0)
(0 0 0)
(0 0 0)
(0 0 0)
(0 0 0)
(0 0 0)
(0 0 0)
(0 0 0)
(0 0 0)
(0 0 0)
(0 0 0)
(0 0 0)
(0 0 0)
(0 0 0)
(0 0 0)
(0 0 0)
(0 0 0)
(0 0 0)
(0 0 0)
(0 0 0)
(0 0 0)
(0 0 0)
(0 0 0)
(0 0 0)
(0 0 0)
(0 0 0)
(0 0 0)
(0 0 0)
(0 0 0)
(0 0 0)
(0 0 0)
(0 0 0)
(0 0 0)
(0 0 0)
(0 0 0)
(0 0 0)
(0 0 0)
(0 0 0)
(0 0 0)
(0 0 0)
(0 0 0)
(0 0 0)
(0 0 0)
(0 0 0)
(0 0 0)
(0 0 0)
(0 0 0)
(0 0 0)
(0 0 0)
(0 0 0)
(0 0 0)
(0 0 0)
(0 0 0)
(0 0 0)
(0 0 0)
(0 0 0)
(0 0 0)
(0 0 0)
(0 0 0)
(0 0 0)
(0 0 0)
(0 0 0)
(0 0 0)
(0 0 0)
(0 0 0)
(0 0 0)
(0 0 0)
(0 0 0)
(0 0 0)
(0 0 0)
(0 0 0)
(0 0 0)
(0 0 0)
(0 0 0)
(0 0 0)
(0 0 0)
(0 0 0)
(0 0 0)
(0 0 0)
(0 0 0)
(0 0 0)
(0 0 0)
(0 0 0)
(0 0 0)
(0 0 0)
(0 0 0)
(0 0 0)
(0 0 0)
(0 0 0)
(0 0 0)
(0 0 0)
(0 0 0)
(0 0 0)
(0 0 0)
(0 0 0)
(0 0 0)
(0 0 0)
(0 0 0)
(0 0 0)
(0 0 0)
(0 0 0)
(0 0 0)
(0 0 0)
(0 0 0)
(0 0 0)
(0 0 0)
(0 0 0)
(0 0 0)
(0 0 0)
(0 0 0)
(0 0 0)
(0 0 0)
(0 0 0)
(0 0 0)
(0 0 0)
(0 0 0)
(0 0 0)
(-2.643593308e-05 0.01837190467 0)
(-7.656382119e-05 0.0183716265 0)
(-7.752832211e-05 0.01832334352 0)
(7.457800787e-05 0.01842069098 0)
(-2.533308772e-05 0.01842017804 0)
(0.001598258368 0.01851804935 0)
(0.001394490347 0.01851823714 0)
(0.001390835208 0.01832526618 0)
(-9.440146158e-05 0.01689107559 0)
(-0.000197435818 0.01689153884 0)
(-0.000197869426 0.0167946964 0)
(-7.865033828e-05 0.01827510621 0)
(0.0001120982828 0.01698690163 0)
(1.647938784e-05 0.01698427424 0)
(-7.999952838e-05 0.01698012206 0)
(0.001566327476 0.01717002371 0)
(0.001362479336 0.0171703917 0)
(0.001157408909 0.01717090007 0)
(0.00115189597 0.01697871977 0)
(0.001147736155 0.0167854993 0)
(0.001386776365 0.01813250385 0)
(0.0007938289421 0.01909832631 0)
(-0.0001009281437 0.0154392484 0)
(-0.0003069921114 0.01544017486 0)
(-0.0003078625198 0.01524657992 0)
(-0.0001983035289 0.01669794388 0)
(-6.500277263e-05 0.01904855905 0)
(-1.472164005e-05 0.01904870166 0)
(0.0007786821802 0.01832600422 0)
(0.0007828907329 0.01851886479 0)
(0.0005799531657 0.0185187611 0)
(0.0005777471195 0.0184222953 0)
(0.0005754498818 0.01832594681 0)
(0.0006907561479 0.01900161264 0)
(0.0007921246116 0.01900165145 0)
(3.5915045e-05 0.01904872578 0)
(-5.317952536e-05 0.01755515104 0)
(-0.0001516121032 0.01755394805 0)
(-0.0001556920808 0.01745834493 0)
(-5.739705628e-05 0.01745959349 0)
(-4.887364063e-05 0.01765078013 0)
(-0.0001475760693 0.01764967726 0)
(4.629497312e-05 0.01755601664 0)
(5.058411068e-05 0.01765160084 0)
(0.0007587363403 0.0175560776 0)
(0.0007641370421 0.01774829437 0)
(0.0005593297934 0.01774873861 0)
(0.0005527977736 0.0175568956 0)
(0.0005730816083 0.01822959864 0)
(0.0005706687393 0.0181333316 0)
(0.0007741777043 0.01813332482 0)
(-2.044781403e-05 0.01870993391 0)
(-7.180246011e-05 0.01871010185 0)
(-7.193928523e-05 0.01866150943 0)
(-2.104190778e-05 0.0186614964 0)
(-0.0003899894696 0.01793701112 0)
(-0.000388015342 0.01798489391 0)
(-0.0004402194061 0.01798533543 0)
(-3.842911368e-05 0.01793857771 0)
(-3.528803292e-05 0.01803465264 0)
(-0.0001344211143 0.01803370458 0)
(-0.0001359368175 0.01798560392 0)
(-0.0001374078855 0.01793761097 0)
(-1.989997891e-05 0.01875836263 0)
(-7.162995956e-05 0.01875864916 0)
(3.030242926e-05 0.01870997549 0)
(3.104947053e-05 0.01875833138 0)
(0.000382112396 0.01871128019 0)
(0.0003840854217 0.01880791789 0)
(0.0002834640709 0.01880765092 0)
(0.0002814639078 0.01871097738 0)
(0.0002868753892 0.01900099165 0)
(0.0003876295367 0.01900119508 0)
(-0.0004582575764 0.01716571016 0)
(-0.0004572578539 0.01721386709 0)
(-0.0001406186128 0.01784154534 0)
(-4.163485503e-05 0.01784252105 0)
(-0.0003904775352 0.01788845624 0)
(-0.0003961005663 0.0175503894 0)
(-0.0003948414638 0.01759843726 0)
(0.0003120688968 0.01563090048 0)
(0.0001060058282 0.01563182695 0)
(-0.0001000581396 0.01563275342 0)
(0.001546001949 0.01560006169 3.584771369e-13)
(0.001136323869 0.01562719461 0)
(0.001134319585 0.01523642551 3.589767372e-13)
(0.001140675506 0.01659507941 0)
(0.001139805502 0.01640157438 0)
(0.0003734498528 0.01832556915 0)
(0.000375776602 0.01842188154 0)
(0.0002751837422 0.0184215515 0)
(0.0002728784926 0.01832522103 0)
(0.0002794850325 0.01861443863 0)
(0.0003801119806 0.01861475053 0)
(2.950237639e-05 0.01866162883 0)
(0.0007294188784 0.01679052728 0)
(0.0007384069793 0.01698084859 0)
(0.0005331644224 0.01698087216 0)
(0.0005233549107 0.01679145375 0)
(0.0005456087618 0.0173653253 0)
(0.0007533017524 0.01736392392 0)
(4.184250697e-05 0.01746050511 0)
(-9.831732358e-05 0.0160199433 0)
(-9.744691763e-05 0.01621353825 0)
(-0.000303510882 0.01621446472 0)
(-0.0003043812904 0.01602086977 0)
(-0.0002026941755 0.01889598055 0)
(-0.0001672315923 0.01890260111 0)
(-0.0001822902591 0.01896419243 0)
(-1.736421456e-05 0.01890356386 0)
(-1.675223188e-05 0.0189521002 0)
(-6.840014324e-05 0.01895226047 0)
(-6.862921588e-05 0.01890365047 0)
(-0.0003974801193 0.01750235107 0)
(-0.0003622535785 0.01716739166 0)
(-0.0003573646526 0.01726317998 0)
(-0.0004537373381 0.0172610955 0)
(-7.207345188e-05 0.01717364932 0)
(-6.716352819e-05 0.01726898794 0)
(-0.000164693316 0.0172673223 0)
(-0.0001686153016 0.01717161955 0)
(-0.0004635607045 0.0171187955 0)
(-0.0002242032956 0.01870995079 0)
(-0.0002247671453 0.01866154012 0)
(-0.0001744307399 0.01866173644 0)
(-0.0001753176761 0.01871058525 0)
(-0.0002259195964 0.0185164136 0)
(-0.0001751374138 0.01851641908 0)
(-0.0001742213337 0.01856461235 0)
(-0.0002242616188 0.01856437874 0)
(-2.335172112e-05 0.01851659089 0)
(-2.253380091e-05 0.01856481158 0)
(-7.280386443e-05 0.01856465094 0)
(-7.36476408e-05 0.01851643936 0)
(-0.0002714964552 0.01856326928 0)
(-0.0002756140311 0.01851604356 0)
(-0.0002609360815 0.01870389344 0)
(-0.0002734446863 0.01866374622 0)
(-0.0002297808009 0.01832320977 0)
(-0.0002299702774 0.01837186661 0)
(-0.0002815667644 0.01837204464 0)
(-0.0002810161381 0.01832331424 0)
(-0.000281361812 0.01846922981 0)
(-0.0002288277463 0.01846878679 0)
(-0.00044073075 0.01813900289 0)
(-0.0003809428393 0.01812815044 0)
(-0.00037981916 0.01817647766 0)
(-0.0004277694512 0.0181784377 0)
(-0.0002313207201 0.01812930312 0)
(-0.0002305259007 0.01817768577 0)
(-0.0002806451252 0.01817743453 0)
(-0.0002812927206 0.01812899726 0)
(-0.0002809925664 0.01827475706 0)
(-0.0002298704054 0.01827468008 0)
(-0.0002366409705 0.01793678025 0)
(-0.0002351834711 0.01798475528 0)
(-0.0002854120326 0.01798458546 0)
(-0.0002868534679 0.01793658338 0)
(-0.0002822718329 0.01808062443 0)
(-0.0002323913878 0.01808096667 0)
(-0.0004283447623 0.01807827784 0)
(-0.0003816174507 0.0180797043 0)
(-0.0002402297357 0.01877177126 0)
(-6.948885765e-05 0.01885525013 0)
(-1.817000828e-05 0.01885510033 0)
(-0.0002151538226 0.01885432244 0)
(-0.00017081215 0.01885505825 0)
(-0.0001772897524 0.01875979861 0)
(-0.0004509325755 0.01735712699 0)
(0.001802529449 0.01851775139 0)
(0.003129412904 0.01806290784 3.466810172e-13)
(0.002807989601 0.01856644333 3.563260798e-13)
(0.002784871608 0.01807287415 3.541611449e-13)
(-7.46128074e-05 0.01846822832 0)
(-2.445400049e-05 0.01846844341 0)
(-0.0001766992816 0.01846839057 0)
(-0.0001785922618 0.01832309653 0)
(-0.0001782186759 0.01837158898 0)
(0.0009969879617 0.01909828513 0)
(0.001608444847 0.01909771208 0)
(0.00140473985 0.01909791757 0)
(-0.0001141956855 0.01904809683 0)
(-0.000119108282 0.01900088368 0)
(-6.731376696e-05 0.01900065081 0)
(-1.58603093e-05 0.0190005004 0)
(3.361392801e-05 0.0189035145 0)
(3.436431368e-05 0.01895201425 0)
(0.0001848364676 0.01890403054 0)
(0.0001857040403 0.01895239488 0)
(0.0001354439668 0.01895221621 0)
(0.0001345421441 0.01890383404 0)
(0.0001369421815 0.01904884705 0)
(0.0001873232813 0.01904894425 0)
(-0.0003314685163 0.01832316341 0)
(-0.00033043614 0.01837138314 0)
(-0.0003672312931 0.01836525413 0)
(-0.0003800463284 0.01832535108 0)
(-0.0003455655052 0.01843292981 0)
(-0.0004146586239 0.01821833044 0)
(-0.0003782566677 0.01822460508 0)
(-0.0003927212815 0.0182860049 0)
(-0.0003306890918 0.01822572204 0)
(-0.0003318661781 0.01827471603 0)
(-0.0004523643623 0.01730907091 0)
(-0.0004336297143 0.01803160588 0)
(-0.0003919991784 0.01774321448 0)
(-0.0003915146593 0.01779158054 0)
(-0.000242378201 0.01774431321 0)
(-0.0002409599424 0.01779236036 0)
(-0.0002904814809 0.01779184566 0)
(-0.0002918107604 0.01774378912 0)
(-0.000288100952 0.01788831966 0)
(-0.0002382177285 0.01788867987 0)
(-0.0001582516954 0.01904737772 0)
(-0.000170596947 0.01900434332 0)
(-0.0001193498801 0.01890352783 0)
(-0.0001202100748 0.01895248442 0)
(-0.0002249275431 0.0186130647 0)
(-0.0002857197438 0.01862434429 0)
(-0.0003068293798 0.0185565672 0)
(-0.0003196875884 0.01851526158 0)
(-0.0002301406285 0.01842057732 0)
(-0.0002829925616 0.01842112067 0)
(-0.000332942684 0.01847268087 0)
(-0.0003313169143 0.01812868265 0)
(-0.0003305705701 0.01817708351 0)
(-0.0003842909129 0.01803207644 0)
(-0.0003340378308 0.0180323001 0)
(-0.0003322035317 0.01808028243 0)
(-0.0002280739258 0.01881165031 0)
(-0.0001761357838 0.01880806276 0)
(-0.0001232962099 0.01880751047 0)
(-0.0001207354256 0.01885533666 0)
(-0.00012369817 0.01871040711 0)
(-0.0001242550188 0.01875917351 0)
(0.001812490808 0.0190973432 0)
(0.002425375056 0.01909624219 0)
(0.002016563745 0.0190969742 0)
(0.003361127864 0.01720793433 3.302913498e-13)
(0.003379351648 0.01291993457 2.479821903e-13)
(0.003492922045 0.01458759256 2.799982468e-13)
(0.003416168055 0.01398493889 2.740863092e-13)
(0.003188115061 0.01123927841 2.157024559e-13)
(0.002000548078 0.00571694064 1.096900348e-13)
(0.002463644359 0.007514504816 1.442040931e-13)
(0.002313278651 0.00691306168 1.35447209e-13)
(0.001511837991 0.004064384939 7.79654119e-14)
(0.0002649607631 0.0006048242512 1.160183061e-14)
(0.0006042320704 0.001452304825 2.785272013e-14)
(0.0004997243824 0.00117660437 2.303712776e-14)
(6.125799374e-05 0.01793927151 0)
(6.433647296e-05 0.01803538269 0)
(0.0003626018017 0.01794056032 0)
(0.0003655922414 0.01803668988 0)
(0.0002648492174 0.01803636052 0)
(0.0002619682763 0.0179401855 0)
(0.0002703996596 0.01822888235 0)
(0.0003709808704 0.01822922143 0)
(0.001977023927 0.01716858185 0)
(0.002945670945 0.01570547945 3.285566264e-13)
(0.002698483049 0.01652201635 3.455985498e-13)
(0.002664279646 0.01597260911 3.418099137e-13)
(0.002760091285 0.01757502087 3.518157987e-13)
(0.003104754587 0.01467110229 3.069211552e-13)
(0.002927286763 0.01029994343 2.154665335e-13)
(0.003100683986 0.01192238817 2.494393581e-13)
(0.002965487682 0.01115737105 2.38781217e-13)
(0.003309042686 0.01327283471 2.657318809e-13)
(0.002651826077 0.008599770947 1.798838856e-13)
(0.001419810612 0.003728540038 7.79654119e-14)
(0.001869566974 0.005240927965 1.096067681e-13)
(0.001747960946 0.00479239779 1.025290963e-13)
(0.002192748258 0.00641739294 1.284389262e-13)
(0.0009748027051 0.00240769502 5.034861417e-14)
(7.520906364e-05 0.0001576653938 3.28903571e-15)
(0.000290929024 0.0006421764112 1.34336986e-14)
(0.0002061697144 0.0004449878904 9.520162436e-15)
(0.0004398952266 0.001014152713 2.028932578e-14)
(0.000107746645 0.01601901684 0)
(0.0001086170534 0.01621261178 0)
(0.0007259376491 0.01601623743 0)
(0.0007268080575 0.01620983237 0)
(0.0005207440897 0.01621075884 0)
(0.0005198736813 0.0160171639 0)
(0.0005224845023 0.01659785881 0)
(0.00072854847 0.01659693234 0)
(0.001928199643 0.01536068771 3.530092885e-13)
(0.002685653105 0.01309739018 3.010647287e-13)
(0.002516814775 0.01409927361 3.240879787e-13)
(0.002446961942 0.01337142656 3.151645611e-13)
(0.002612401992 0.01534878989 3.361477763e-13)
(0.00275311506 0.01188605467 2.732258864e-13)
(0.002326300375 0.007470100753 1.716959908e-13)
(0.0025682088 0.00901703158 2.072647609e-13)
(0.002441040707 0.008358262429 1.969951979e-13)
(0.002859465537 0.01052353239 2.305100555e-13)
(0.002046665311 0.006055498313 1.391664561e-13)
(0.0009069733735 0.002171987747 4.990452496e-14)
(0.001300081625 0.003324372848 7.638334409e-14)
(0.001111758199 0.002772175295 6.530886942e-14)
(0.001571911296 0.004212856837 9.225953335e-14)
(0.0005420566787 0.001220001421 2.803313137e-14)
(0 0 0)
(5.734667191e-05 0.0001153567056 2.650657471e-15)
(2.676689395e-05 5.253528341e-05 1.235123115e-15)
(0.0001554599114 0.0003279278639 7.174816297e-15)
(-0.0001052904288 0.01392235144 3.54938301e-13)
(-0.000514838877 0.01397818144 3.56312202e-13)
(-0.0005020681322 0.01324267929 3.470973509e-13)
(-0.0005139255884 0.01524750639 0)
(-0.0005156664052 0.0148603165 0)
(0.0003000207755 0.01380886494 3.520933545e-13)
(0.001412216965 0.01286512208 3.281541705e-13)
(0.001069590464 0.01330521581 3.393257897e-13)
(0.001021287679 0.01235170554 3.239075674e-13)
(0.001125135835 0.01474816342 3.565203688e-13)
(0.001708787187 0.01227653689 3.131661597e-13)
(0.002189584107 0.009618024277 2.45387044e-13)
(0.002108706387 0.01064265603 2.715189185e-13)
(0.001952169158 0.00957774142 2.512434705e-13)
(0.002356334561 0.01255021483 3.035072194e-13)
(0.00218231746 0.008485264394 2.16479612e-13)
(0.001660089699 0.004800692163 1.224575996e-13)
(0.001908627572 0.006034724464 1.539463002e-13)
(0.001691358627 0.005199304748 1.363770208e-13)
(0.002287064404 0.007631582085 1.845468223e-13)
(0.001359272248 0.003621762315 9.237055565e-14)
(0.0004006943139 0.0008643000419 2.203792704e-14)
(0.0006998746537 0.001611818525 4.110600749e-14)
(0.0005504712674 0.00123276288 3.23213678e-14)
(0.0009861409176 0.002396363425 5.792588631e-14)
(0.0001650077441 0.0003347329706 8.520961714e-15)
(0 0 0)
(0 0 0)
(0 0 0)
(2.565487988e-06 4.907347949e-06 1.249000903e-16)
(-8.050095353e-05 0.009808618447 2.809558142e-13)
(-0.0004089929962 0.009945498075 2.848415948e-13)
(-0.0003641041698 0.008630500466 2.550598621e-13)
(-0.000479486145 0.01229788769 3.31720762e-13)
(0.000236979215 0.009575692927 2.743083538e-13)
(0.001026141153 0.008285774704 2.374350716e-13)
(0.0008001198155 0.008814337185 2.525618603e-13)
(0.000706623193 0.007522887467 2.224193052e-13)
(0.0009594439592 0.01126523269 3.040068197e-13)
(0.001202746393 0.007663415258 2.196021143e-13)
(0.001370635225 0.005345848383 1.532107774e-13)
(0.001378964319 0.00617738375 1.770389391e-13)
(0.001167611622 0.005063616729 1.497274527e-13)
(0.001776022928 0.00846207281 2.284283873e-13)
(0.001298559073 0.004484606487 1.285221929e-13)
(0.0007797390712 0.002004605302 5.744016374e-14)
(0.0009905264965 0.002783469311 7.975564653e-14)
(0.0007632042214 0.002077502318 6.142308884e-14)
(0.001461740293 0.004364926926 1.178224185e-13)
(0.0005551440403 0.001315348052 3.769207169e-14)
(3.60649296e-05 6.922076916e-05 1.984523657e-15)
(0.0001575094126 0.0003227164545 9.24260668e-15)
(6.937837392e-05 0.0001377447147 4.066191828e-15)
(0.000405465402 0.0008822559392 2.381428388e-14)
(0 0 0)
(0 0 0)
(0 0 0)
(0 0 0)
(0 0 0)
(-3.649288489e-05 0.004597165678 1.502409308e-13)
(-0.0002140858234 0.004705340233 1.537658889e-13)
(-0.0001657110487 0.003548067673 1.201816424e-13)
(-0.0003152933552 0.007288026467 2.224748163e-13)
(0.0001310076157 0.004416628198 1.443567488e-13)
(0.0004978232506 0.003489276504 1.14061538e-13)
(0.0004047598311 0.003855870969 1.260380689e-13)
(0.0003081931498 0.002821675231 9.560408021e-14)
(0.00060744757 0.00624058491 1.905697822e-13)
(0.0005552469832 0.003077952028 1.006139616e-13)
(0.0005026070568 0.001711827759 5.595524044e-14)
(0.0005561159138 0.002173419945 7.105427358e-14)
(0.0003823684499 0.001440085065 4.879430193e-14)
(0.0009556040405 0.004007502632 1.224020885e-13)
(0.0004201808323 0.001268162316 4.145295218e-14)
(0.0001074125044 0.0002417437559 7.896461263e-15)
(0.0002087818161 0.0005133605246 1.677824546e-14)
(9.214167793e-05 0.0002185145861 7.410738689e-15)
(0.0005518636243 0.001453705286 4.43950432e-14)
(3.149118587e-05 6.534695839e-05 2.137179322e-15)
(0 0 0)
(0 0 0)
(0 0 0)
(1.487906653e-05 2.859813175e-05 8.743006319e-16)
(0 0 0)
(0 0 0)
(0 0 0)
(0 0 0)
(0 0 0)
(-6.846908613e-06 0.0009317123255 3.544387006e-14)
(-4.987014417e-05 0.0009769251382 3.716471575e-14)
(-2.509543748e-05 0.0004746088053 1.883215806e-14)
(-0.0001212606599 0.002525910152 8.880396418e-14)
(3.119912058e-05 0.0008577484386 3.264055692e-14)
(8.563542677e-05 0.0005108443146 1.942890293e-14)
(7.940510211e-05 0.0006410321893 2.439715097e-14)
(3.358242014e-05 0.0002594369351 1.029731855e-14)
(0.0002195742137 0.001929819759 6.786238238e-14)
(7.966090427e-05 0.000376821466 1.433575481e-14)
(1.767212098e-05 5.157678484e-05 1.970645869e-15)
(4.077631397e-05 0.0001364167252 5.19029264e-15)
(3.077075113e-06 9.869140382e-06 3.885780586e-16)
(0.0002348117635 0.0008512002712 2.99343883e-14)
(2.04339157e-06 5.289161318e-06 1.942890293e-16)
(0 0 0)
(0 0 0)
(0 0 0)
(2.09447796e-05 4.784795667e-05 1.693090113e-15)
(0 0 0)
(0 0 0)
(0 0 0)
(0 0 0)
(0 0 0)
(0 0 0)
(0 0 0)
(0 0 0)
(0 0 0)
(0 0 0)
(0 0 0)
(0 0 0)
(0 0 0)
(-8.567694278e-06 0.0001558385738 6.467049118e-15)
(0 0 0)
(0 0 0)
(0 0 0)
(0 0 0)
(6.819210928e-06 5.036284568e-05 2.081668171e-15)
(0 0 0)
(0 0 0)
(0 0 0)
(0 0 0)
(0 0 0)
(0 0 0)
(0 0 0)
(0 0 0)
(0 0 0)
(0 0 0)
(0 0 0)
(0 0 0)
(0 0 0)
(0 0 0)
(0 0 0)
(0 0 0)
(0 0 0)
(0 0 0)
(0 0 0)
(0 0 0)
(0 0 0)
(0 0 0)
(0 0 0)
(0 0 0)
(0 0 0)
(0 0 0)
(0 0 0)
(0 0 0)
(0 0 0)
(0 0 0)
(0 0 0)
(0 0 0)
(0 0 0)
(0 0 0)
(0 0 0)
(0 0 0)
(0 0 0)
(0 0 0)
(0 0 0)
(0 0 0)
(0 0 0)
(0 0 0)
(0 0 0)
(0 0 0)
(0 0 0)
(0 0 0)
(0 0 0)
(0 0 0)
(0 0 0)
(0 0 0)
(0 0 0)
(0 0 0)
(0 0 0)
(0 0 0)
(0 0 0)
(0 0 0)
(0 0 0)
(0 0 0)
(0 0 0)
(0 0 0)
(0 0 0)
(0 0 0)
(0 0 0)
(0 0 0)
(0 0 0)
(0 0 0)
(0 0 0)
(0 0 0)
(0 0 0)
(0 0 0)
(0 0 0)
(0 0 0)
(0 0 0)
(0 0 0)
(0 0 0)
(0 0 0)
(0 0 0)
(0 0 0)
(0 0 0)
(0 0 0)
(0 0 0)
(0 0 0)
(0 0 0)
(0 0 0)
(0 0 0)
(0 0 0)
(0 0 0)
(0 0 0)
(0 0 0)
(0 0 0)
(0 0 0)
(0 0 0)
(0 0 0)
(0 0 0)
(0 0 0)
(0 0 0)
(0 0 0)
(0 0 0)
(0 0 0)
(0 0 0)
(0 0 0)
(0 0 0)
(0 0 0)
(0 0 0)
(0 0 0)
(0 0 0)
(0 0 0)
(0 0 0)
(0 0 0)
(0 0 0)
(0 0 0)
(0 0 0)
(0 0 0)
(0 0 0)
(0 0 0)
(0 0 0)
(0 0 0)
(0 0 0)
(0 0 0)