/*--------------------------------*- C++ -*----------------------------------*\
| =========                 |                                                 |
| \\      /  F ield         | OpenFOAM: The Open Source CFD Toolbox           |
|  \\    /   O peration     | Version:  v2012                                 |
|   \\  /    A nd           | Website:  www.openfoam.com                      |
|    \\/     M anipulation  |                                                 |
\*---------------------------------------------------------------------------*/
FoamFile
{
    version     2.0;
    format      ascii;
    class       volScalarField;
    location    "1.28";
    object      nut;
}
// * * * * * * * * * * * * * * * * * * * * * * * * * * * * * * * * * * * * * //

dimensions      [0 2 -1 0 0 0 0];


internalField   nonuniform List<scalar> 
3019
(
0.06957385265
0.2093689735
0.2798101147
0.3529856798
0.4369888786
0.5588000083
0.7578760963
0.9975736176
1.157324038
1.151636888
1.148922953
1.148138018
0.1321315596
0.310397247
0.3896072648
0.4593451249
0.5363261271
0.6532211109
0.8364476717
1.049904016
1.158490354
1.152385974
1.14934815
1.148434767
0.1829922134
0.455597379
0.6003709505
0.6344546145
0.6909417345
0.7909478908
0.955472904
1.140546859
1.159572428
1.153159249
1.149890558
1.148906437
0.1938735591
0.4553050087
0.7008978285
0.901109622
0.9094053661
0.9739518885
1.117589345
1.167542009
1.160532634
1.153940515
1.150510707
1.149467778
0.1757971803
0.4370711736
0.6873972137
0.8987053086
1.045174792
1.124180741
1.161869857
1.168358233
1.161286707
1.15461698
1.151088619
1.15001519
0.1510920034
0.4159651433
0.6782613498
0.9010749353
1.04878429
1.126067467
1.162687709
1.168815341
1.161820641
1.155171817
1.151635755
1.15054971
0.1432942441
0.4102296681
0.682202157
0.9067225086
1.051178935
1.12705809
1.162981233
1.168933824
1.162106495
1.155542234
1.152039098
1.150957193
0.1562709307
0.4190312891
0.6883827989
0.9110749515
1.052745345
1.127447931
1.162883368
1.168782826
1.16225093
1.15584171
1.152394504
1.151317382
0.169447152
0.4272672936
0.692578897
0.9140648311
1.053705576
1.127435238
1.162503994
1.168432631
1.162208969
1.155973567
1.152593559
1.151524079
0.1808757966
0.4346707285
0.6957911826
0.9155720109
1.054123505
1.127135639
1.161930674
1.167944817
1.162114413
1.156088707
1.152774847
1.151704428
0.190972927
0.4413209608
0.6984699032
0.915854321
1.053972436
1.126596536
1.161221676
1.167367588
1.161890324
1.15605832
1.152805626
1.151732451
0.2000127593
0.4473272459
0.7007817423
0.9153768828
1.053271572
1.125831056
1.160411009
1.166734276
1.161682465
1.156064981
1.152864867
1.151778769
0.2081844889
0.452821417
0.7028026505
0.914495837
1.052125993
1.124856741
1.15952184
1.16606755
1.161367377
1.155931729
1.152776581
1.151676383
0.2156633588
0.4579188625
0.7045778394
0.9134158217
1.050670736
1.123708047
1.158574592
1.16538267
1.161116693
1.155882863
1.152764435
1.151641623
0.2225317716
0.4626860293
0.7061563221
0.9122457566
1.049020848
1.122427198
1.15758848
1.164690889
1.160755454
1.155683906
1.152596603
1.151452598
0.2288972974
0.4671562458
0.7075875199
0.9110420175
1.047259241
1.12105418
1.15658035
1.164000251
1.16049966
1.155612221
1.152549259
1.151377285
0.2348665635
0.4713814102
0.708904718
0.9098363568
1.045444232
1.119623413
1.155564223
1.163316933
1.160116052
1.155373013
1.152332708
1.151136938
0.2405043875
0.4753866861
0.710134463
0.9086531807
1.0436182
1.11816309
1.15455119
1.16264598
1.159874495
1.15529495
1.152271124
1.151045543
0.245858612
0.4792135965
0.7113041472
0.9075143995
1.041813251
1.116696347
1.153549942
1.161989958
1.159488899
1.155041969
1.152036688
1.15078816
0.251004038
0.4828887051
0.712440711
0.9064404
1.040054921
1.115242306
1.152567208
1.161353303
1.159260344
1.154953014
1.151960192
1.150681713
0.2560097696
0.4864469302
0.7135733536
0.9054522235
1.038364166
1.113816007
1.151608094
1.160733726
1.158910987
1.154728714
1.151750949
1.150452593
0.2609173598
0.4899333956
0.7147385661
0.9045722722
1.03675934
1.1124321
1.150679347
1.160140986
1.158649751
1.154590376
1.151624964
1.150296299
0.2657581935
0.4933990782
0.7159731877
0.9038214447
1.035256304
1.111102175
1.149797771
1.159575347
1.158434481
1.15446642
1.151509751
1.150165809
0.2705458162
0.4968578769
0.7172881434
0.9032074968
1.033864081
1.109832251
1.149025496
1.159099965
1.158107388
1.154286994
1.151346179
1.149967435
0.05168867954
0.06521971023
0.1838983928
0.09794997424
0.05319109416
0.1245485887
0.2502904954
0.1871201584
0.1350938497
0.1030251759
0.1455549556
0.08226173343
0.07955002482
0.09479832801
0.161542636
0.1491810436
0.03511556686
0.06322625931
0.03193935861
0.04242014445
0.1084560731
0.06766031255
0.1771626658
0.3831857355
0.2823353189
0.12254207
0.1132880729
0.04587901629
0.201333447
0.1678951418
0.09831746298
0.1114284418
0.00689090306
0.02171108641
0.03779032531
0.08777962029
0.01071628194
0.01365903187
0.04218180571
0.01068243945
0.01034266645
0.01384340545
0.01068827528
0.01084960286
0.02298691619
0.01558356301
0.03275855871
0.02582919571
0.01062431779
0.007094523183
0.02437802501
0.01016520895
0.01054549979
0.1912806211
0.2441285265
0.04448440489
0.01524707946
0.02219647817
0.01086265284
0.01688506748
0.0324552823
0.0654633672
0.01058852372
0.007380923053
0.00748484254
0.01075573089
0.01055398593
0.04149312161
0.03510644465
0.01017025344
0.0102176755
0.01017948623
0.01029785434
0.007070348203
0.01037425037
0.01041262274
0.01227928653
0.01075425205
0.01061079022
0.01059119721
0.01040702908
0.01141560053
0.01109766041
0.01076936823
0.01070724639
0.01088387156
0.01263718694
0.01185714537
0.01032532233
0.01084067394
0.01069040838
0.01285181592
0.01161141695
0.01014994886
0.2612808826
0.3153966806
0.3340484097
0.3943768156
0.4173447632
0.4984402677
0.08246541376
0.1228358752
0.1228847341
0.275769411
0.3379743501
0.2620242697
0.356005559
0.4087374801
0.3336008693
0.425850064
0.4865337581
0.4142001873
0.5082995484
0.5832662247
0.5185175974
0.1459072598
0.2670984221
0.2169264982
0.4516617897
0.5249834232
0.3732911508
0.5354472477
0.5694660805
0.4424957966
0.5828408854
0.627353692
0.5145372571
0.646139105
0.7130066253
0.6121641407
0.1213524426
0.1089109362
0.1946875621
0.3926228138
0.387967333
0.4575012462
0.6450771971
0.5954010172
0.7033363168
0.8371714336
0.6240352004
0.8300861017
0.8388299224
0.6738859201
0.8484118127
0.8974434909
0.7557208467
0.1106091534
0.1215939748
0.1820717977
0.378881461
0.3910352492
0.4426463595
0.6312270168
0.6424664177
0.6909315144
0.8524488433
0.8566839873
0.8990343873
1.014087824
0.9041667619
1.044039842
1.108942813
0.9537872042
0.08633085199
0.1044492958
0.1564225151
0.3558592844
0.3732201347
0.4202710193
0.6167127914
0.6271657298
0.6794090319
0.8507059802
0.8513123491
0.8998056426
1.018426539
1.015119469
1.04801532
1.111388028
1.109671235
0.07412509244
0.08119367038
0.1427263456
0.3443003576
0.3512294275
0.4098826008
0.6139409817
0.6145729032
0.680224998
0.8562839231
0.8514546535
0.9054343966
1.021753183
1.019374219
1.05066986
1.112806822
1.111823486
0.08424504251
0.07518733588
0.1526331702
0.3510811974
0.3443659036
0.4168401887
0.6206705527
0.6157432482
0.687075594
0.8618534917
0.8578230625
0.9101072348
1.024068958
1.022413601
1.052416602
1.113521374
1.113041075
0.09927977627
0.0879995727
0.1663437627
0.3601366021
0.3534302428
0.425288975
0.6259608068
0.6220940596
0.6916503842
0.8657017959
0.8629882662
0.9134563652
1.025639131
1.024525424
1.053516293
1.113754461
1.113617779
0.1136415789
0.1029483088
0.1781540823
0.3683258457
0.3622618891
0.4328919474
0.6304602412
0.6271473733
0.6950486248
0.8677521985
0.8663735835
0.9153271412
1.026528936
1.025927144
1.054071209
1.113644725
1.113755941
0.126154455
0.1169592123
0.1885570027
0.3757990478
0.3702500492
0.4397240568
0.6344060592
0.6314944633
0.6978390055
0.8684681351
0.8680311603
0.9158726825
1.026689219
1.026638877
1.054064193
1.113246468
1.113571946
0.1368882729
0.1289909494
0.1978431577
0.3826698413
0.3775740374
0.4458792496
0.637897243
0.6353191488
0.7002332673
0.8684436605
0.8685131876
0.9155450914
1.026152293
1.026616125
1.053493667
1.112568238
1.11310352
0.1462714069
0.1393416969
0.2062120279
0.3889825953
0.3842977406
0.451489357
0.6410110724
0.6387093636
0.7023222434
0.8680487457
0.8683708291
0.9147407386
1.025072299
1.025926059
1.052446615
1.111625709
1.112356755
0.1546625532
0.1484658893
0.2138546103
0.3948404377
0.390487743
0.4566756414
0.6438020191
0.6417383362
0.7041547152
0.8674663799
0.8679166603
0.9136974349
1.023633623
1.024739978
1.051056756
1.110460279
1.111353803
0.1621599046
0.1566113836
0.2208673804
0.4002747301
0.3962383827
0.4615246965
0.6463174216
0.6444554058
0.705777326
0.8667903859
0.8673042741
0.9125431017
1.021982976
1.023236602
1.04944657
1.109125752
1.110140953
0.1689896366
0.1639207568
0.2273473082
0.4053498215
0.4015747921
0.4660632432
0.6486177237
0.6469112742
0.707241555
0.8660707837
0.866613925
0.911344268
1.020218516
1.021549959
1.047706686
1.107673166
1.108772373
0.175382901
0.1706220521
0.2334080377
0.4101407914
0.4065740554
0.4703474557
0.6507523193
0.6491664765
0.7085847867
0.8653344631
0.8658881122
0.91013666
1.018403939
1.019767949
1.045900519
1.106145594
1.10729727
0.1814669779
0.1769311718
0.2391252637
0.414687889
0.4113001059
0.4744037845
0.6527533229
0.651264911
0.7098338547
0.8646022017
0.8651508805
0.9089457097
1.016583535
1.017948361
1.044073899
1.104578117
1.105756746
0.1872746777
0.1829421865
0.2445459625
0.4190269735
0.4157917578
0.478272517
0.6546517115
0.6532372255
0.7110160196
0.8638949405
0.8644229338
0.9077938949
1.014790084
1.016131982
1.042261073
1.10299888
1.104183897
0.192862176
0.1886839593
0.2497393146
0.4231989107
0.4200848507
0.4819828696
0.6564780468
0.6551148281
0.7121582887
0.8632331425
0.863725125
0.9067017952
1.01304945
1.014349523
1.040488989
1.101430975
1.102605498
0.1982976897
0.1942218249
0.2547839762
0.4272385827
0.4242198398
0.4855678048
0.6582598103
0.6569273932
0.7132889177
0.8626385667
0.8630779822
0.905690095
1.011383208
1.012625597
1.038779537
1.099892682
1.101043433
0.2036126192
0.199608889
0.2597340635
0.4311887287
0.428229657
0.4890717828
0.6600377714
0.6587033869
0.7144428898
0.862136006
0.8625039728
0.9047810754
1.009810634
1.010981051
1.037151657
1.098400308
1.099515097
0.2088477412
0.2048648885
0.2646416015
0.4351106799
0.432156101
0.4925600899
0.6618606657
0.6604861668
0.7156628757
0.861751915
0.8620282707
0.903997519
1.008349151
1.009434642
1.03562217
1.096968269
1.098036597
0.2140641032
0.210014069
0.2695697927
0.4390820629
0.4360444643
0.4961073691
0.6637879742
0.6623160408
0.7169996869
0.8615190643
0.8616748277
0.9033670384
1.00701827
1.008002739
1.034209499
1.095611649
1.096621306
0.219662561
0.2150760344
0.2748952784
0.4434243634
0.4399112006
0.5000064349
0.6660109532
0.6642113439
0.7185928857
0.8614700909
0.8614509481
0.9028983168
1.005787648
1.006694192
1.032879716
1.09430326
1.095276359
0.04893445851
0.03990356269
0.04185737821
0.08459782765
0.08027333283
0.06050933359
0.1677104979
0.1479798204
0.1564197007
0.09032186657
0.03747827037
0.02497658158
0.03293916006
0.05448151051
0.1532149997
0.1420909673
0.1086824802
0.2171851839
0.1831297167
0.2210649551
0.1603499309
0.1755497049
0.2098627367
0.1155605824
0.101216982
0.1424787633
0.1311178044
0.1280844943
0.1276822702
0.1417005158
0.02712071002
0.03790836981
0.06504877617
0.06744037423
0.08427557709
0.0757299855
0.05709911922
0.06121310469
0.1278954788
0.1257454308
0.08663834664
0.1567814228
0.1406977949
0.1449437539
0.1332372401
0.1361190223
0.1528313186
0.02426154963
0.02708452336
0.03737137368
0.01474416152
0.01368839031
0.01077664121
0.05919918427
0.03539647162
0.04074026996
0.02954482132
0.01867801334
0.02133053291
0.06672095453
0.06196436535
0.03506077761
0.1041250841
0.08266127674
0.08709313114
0.07795130857
0.09929910685
0.04907945709
0.0534861035
0.07170956104
0.01823353943
0.01644487434
0.04369676622
0.04293251402
0.2529431788
0.2458029112
0.1527342089
0.3769896214
0.3144706297
0.3205924713
0.2443100824
0.3033401003
0.3290800549
0.1221375218
0.1007126481
0.1049211244
0.09175502315
0.09611050865
0.1173538378
0.05589226412
0.07566688957
0.07110357593
0.1871374405
0.1660247384
0.1775646575
0.1500312479
0.1571638405
0.1758891783
0.1033351208
0.135693276
0.1298063656
0.1065990312
0.06958861729
0.07304921195
0.01910161771
0.01163502202
0.01295524705
0.05070165668
0.04809701639
0.05341452297
0.0519223457
0.03584286075
0.08577719943
0.06965689323
0.07065120803
0.01128329365
0.01686745012
0.01470281544
0.02210251977
0.01945837972
0.01241217258
0.03998428994
0.02987223612
0.03248555579
0.02038945326
0.01324971279
0.01463930367
0.01122024273
0.01197205962
0.01782160727
0.03079455254
0.02043962594
0.02273213388
0.01645965264
0.01836777162
0.02800817552
0.01470634076
0.01636554861
0.02676563193
0.2119805252
0.1988993971
0.1788307477
0.2289841033
0.211664387
0.2256826346
0.03492188803
0.03726503524
0.04694491632
0.01694460317
0.02707406983
0.02467322085
0.03226875383
0.02992425206
0.01952068807
0.04317167866
0.04104491916
0.0297358346
0.06092565019
0.05222907446
0.05230637625
0.04858144153
0.05933793325
0.0226848569
0.02059921121
0.03912630785
0.03036749462
0.03257881653
0.0254280306
0.02790687656
0.03691984821
0.5293568015
0.6251079194
0.7294456066
0.8396724621
0.96508542
1.112733563
0.07400600645
0.09316583702
0.08903566537
0.2263815118
0.2464552943
0.227270925
0.3009825969
0.3196140946
0.2973520374
0.374308204
0.3935650587
0.3732865401
0.4585923355
0.4835345511
0.4622811288
0.6142878213
0.7083307538
0.6609556162
0.7926162552
0.8950109048
0.8659923831
1.003095767
1.137193429
1.105506546
0.1367349508
0.1756479567
0.1691580949
0.3545378152
0.3736123374
0.3296310326
0.4305643146
0.4468578678
0.4073530015
0.4954004081
0.5136453471
0.477813847
0.5701571036
0.5923080985
0.5600835107
0.7365091515
0.8181733357
0.7599069318
0.8912258168
0.9818143329
0.9349807234
1.068725801
1.16424774
1.145594108
0.1888200853
0.2639838679
0.2589164566
0.4578248266
0.5235753501
0.5222471749
0.6790502675
0.6774813839
0.6072194418
0.6925330122
0.7013095079
0.6463338845
0.7387437874
0.7557752414
0.7096622413
0.9051762778
0.9629414729
0.8857470549
1.029860501
1.102927045
1.03852253
1.166789529
1.165323003
1.164809091
0.1914959632
0.2622333541
0.2656033061
0.4520314265
0.5160110155
0.5194923563
0.6978869487
0.7538384013
0.7563990248
0.9003999693
0.9416095161
0.9078951719
0.9769768548
0.9816782166
0.9180440915
1.123536687
1.149936703
1.051666119
1.161128219
1.166630379
1.166027029
1.167958583
1.166193708
1.165816815
0.1691847377
0.2388193085
0.2455260045
0.4311610429
0.4962536433
0.5016194526
0.6841877251
0.742847971
0.7453294289
0.8987318888
0.9424186795
0.941926872
1.046219265
1.071584531
1.070706567
1.125697168
1.151566879
1.150902548
1.162354124
1.167551902
1.167187709
1.168647326
1.166784313
1.166551263
0.1467378968
0.2165669158
0.2208832926
0.4125003113
0.4791569313
0.4823563966
0.6781415199
0.7399220632
0.7395761057
0.9026041272
0.9470221688
0.9457262612
1.049478445
1.074250589
1.07369357
1.12687887
1.152316069
1.152023614
1.162891179
1.167918786
1.167786857
1.168923365
1.167080698
1.166990218
0.1450802224
0.2139344172
0.2123723521
0.4122992286
0.4799804917
0.477940871
0.6840051381
0.7469483229
0.7451621243
0.9079300622
0.9513927506
0.950411649
1.05163694
1.075919927
1.075576161
1.127395869
1.152513835
1.152471675
1.162974137
1.167906372
1.167950961
1.168895218
1.167124261
1.167158397
0.1597665884
0.2261647133
0.2232452936
0.4211706323
0.4879099305
0.4860015363
0.6895683307
0.7524294424
0.7512965284
0.911958462
0.9546587093
0.9539389499
1.053037113
1.076909501
1.076713705
1.127468752
1.152332385
1.15246205
1.162722876
1.167617877
1.167789307
1.168634171
1.166968383
1.167097518
0.1724465483
0.2369531694
0.2343771559
0.4291934102
0.4950682991
0.4933512691
0.6934493861
0.7557583144
0.755073171
0.9145783857
0.9568466987
0.9564086431
1.053861608
1.077402839
1.077320754
1.127232996
1.151889628
1.152138051
1.162237299
1.167135903
1.167395487
1.168206919
1.166663854
1.166863529
0.1835149422
0.2465775625
0.244267099
0.4364015024
0.5014805862
0.4999422108
0.6965022931
0.7578881134
0.7574262029
0.9157396346
0.9578486037
0.9577075515
1.054140061
1.077460902
1.077487522
1.126751034
1.151259936
1.151595104
1.16159064
1.166521944
1.166841423
1.167668308
1.166262891
1.166505451
0.1933258612
0.2552329959
0.253153099
0.4428785971
0.5072279486
0.5058494601
0.6990788326
0.7594362858
0.7590857688
0.9157895959
0.957795819
0.9578904967
1.053845988
1.077073648
1.077212479
1.126040714
1.150481498
1.150887852
1.160827503
1.165817881
1.166178458
1.167058908
1.165797503
1.166069435
0.2021302082
0.2630516333
0.2611672188
0.4487443976
0.5123982703
0.51115309
0.701312827
0.7606587887
0.7603769582
0.9151845806
0.9570221313
0.9572645682
1.053021721
1.076256263
1.076497695
1.125115941
1.149575902
1.150043339
1.159974935
1.1650515
1.165440566
1.166405713
1.165297721
1.165582155
0.2101164362
0.2701997332
0.2684654066
0.4541303892
0.5171066472
0.5159678285
0.7032682929
0.7616537301
0.7614231362
0.9142393336
0.9558345446
0.9561574892
1.051786337
1.075082381
1.07540394
1.124007145
1.148564977
1.149082103
1.159054239
1.164243016
1.16465105
1.165727775
1.164774261
1.165068915
0.2174354472
0.2768376379
0.2752220323
0.4591422771
0.5214178435
0.5203756347
0.7049893241
0.7624755024
0.7622835298
0.9131292273
0.9544338485
0.9547965939
1.050272927
1.073649809
1.074027072
1.122755647
1.147473683
1.148027771
1.158085319
1.163408595
1.16382789
1.165037535
1.164244763
1.164537951
0.2241668067
0.2830227454
0.2815151713
0.4638296861
0.5253849165
0.5244203404
0.7065268926
0.763171999
0.7630073135
0.9119468463
0.9529345006
0.9533145635
1.048588495
1.072046354
1.072459228
1.12140247
1.146326658
1.146905666
1.15708633
1.162561502
1.162985655
1.164345278
1.163709499
1.164004949
0.23042471
0.2888283411
0.2874078425
0.468235024
0.5290926726
0.5281862925
0.7079270228
0.7637791109
0.7636343228
0.9107401388
0.9513991015
0.9517840079
1.046808823
1.070339576
1.070772951
1.119983436
1.145145599
1.145739063
1.156072844
1.161712546
1.162136409
1.163657171
1.163181855
1.163468934
0.2363071474
0.294323925
0.2929762042
0.4724023713
0.5326052255
0.5317410387
0.7092198499
0.7643201674
0.7641898507
0.9095379159
0.949865794
0.9502472673
1.044987562
1.068580191
1.06902272
1.11852833
1.143948553
1.14454781
1.155057516
1.160870316
1.1612895
1.162980149
1.162658558
1.162943602
0.2418698407
0.2995478087
0.2982647257
0.4763597225
0.535969302
0.5351415906
0.7104320373
0.764818173
0.7646963325
0.9083638595
0.948363113
0.9487345908
1.043164071
1.066806576
1.067249614
1.117061378
1.142750018
1.143348001
1.154050515
1.160041709
1.16045263
1.162316769
1.162149105
1.162422229
0.2471660491
0.3045367394
0.30330698
0.4801462458
0.539196906
0.5384015109
0.7115908781
0.7652972606
0.7651779237
0.9072394064
0.9469146756
0.9472705523
1.041368643
1.06504878
1.065485375
1.11560271
1.141561922
1.142152243
1.153060248
1.159232357
1.159631004
1.161673457
1.161654289
1.161919724
0.2522768643
0.3093454352
0.30815274
0.4837891336
0.5423081303
0.5415401483
0.7127235386
0.7657819614
0.7656587593
0.9061848324
0.9455413448
0.9458765234
1.039625389
1.063330719
1.063755395
1.114168154
1.140396157
1.14097151
1.152093717
1.15844718
1.15882945
1.161049808
1.161171394
1.161423883
0.2572682487
0.3140300645
0.3128561796
0.4873268573
0.5453305956
0.54457916
0.7138608354
0.766300855
0.766166028
0.9052216202
0.9442636337
0.9445729639
1.037954485
1.061672038
1.062080169
1.112772358
1.139262725
1.139816843
1.151156413
1.157689597
1.158049938
1.160454262
1.160722793
1.160951852
0.2621899436
0.3186470845
0.3174642305
0.4908139933
0.54831868
0.5475662453
0.7150422145
0.766888222
0.7667321541
0.9043724689
0.9431020188
0.9433803599
1.036373801
1.060090128
1.060477544
1.111427695
1.138165053
1.13869534
1.15024973
1.156959504
1.157298389
1.159879056
1.160266461
1.160487591
0.2670989012
0.3232623002
0.3220170828
0.4943211872
0.5513332758
0.5505445999
0.7163131869
0.7675830169
0.7673892386
0.9036609488
0.9420770435
0.9423173767
1.034899852
1.058600844
1.058962923
1.110146291
1.137086891
1.137622183
1.149350719
1.156234404
1.156586227
1.159312106
1.159862027
1.160056739
0.2720680804
0.327957716
0.3265305382
0.4979362942
0.5544621057
0.5535317536
0.7177357179
0.7684452031
0.7681465615
0.9031244772
0.9412198966
0.9413921874
1.03355542
1.057226098
1.05754521
1.10891028
1.135989794
1.136664356
1.148451572
1.155519558
1.155969952
1.158758179
1.159427205
1.159688515
0.1762703624
0.1682936553
0.1730205591
0.09645800831
0.07340799902
0.08041088779
0.0451380723
0.04549468089
0.05759587105
0.1830212951
0.184555031
0.1940649694
0.1360978403
0.1421554966
0.1108605299
0.1076731118
0.09360601529
0.05297273263
0.05017710967
0.04027346122
0.03190909388
0.03026878718
0.04624736225
0.05898646137
0.05457534013
0.09916266572
0.1115009556
0.1115763219
0.0362918349
0.03427046705
0.278646961
0.2624497848
0.2457139961
0.2975158034
0.27976052
0.2967612078
0.3530949827
0.3358888721
0.316205252
0.3778504899
0.356234828
0.3727881284
0.4424553506
0.4261609081
0.4010101472
0.4834653455
0.4534449785
0.4695974829
0.1012368466
0.09744533067
0.07841794394
0.1236412779
0.1171252603
0.1148682605
0.1093794035
0.1133893083
0.1252387746
0.2953614584
0.268783293
0.2484808148
0.3079678038
0.2855594766
0.31499462
0.2420455491
0.2613396865
0.2826329817
0.3735569897
0.343680913
0.3261047157
0.3803867251
0.3615951313
0.3916092824
0.314926112
0.3378198722
0.3561234645
0.4454671508
0.4198272157
0.3999628605
0.4585021035
0.4391081793
0.4663763601
0.3929199422
0.4135807308
0.4355532603
0.5323879379
0.5064928144
0.4807101713
0.5590952818
0.532624997
0.5583510067
0.4891540234
0.5096140901
0.5356775954
0.1857780918
0.18051928
0.1428902067
0.1936608816
0.2129461805
0.2396151014
0.4959997855
0.4285085627
0.4114862065
0.4658526885
0.4488034444
0.5120047196
0.3513206632
0.3955922683
0.4156251089
0.5466820854
0.4933186509
0.4789733273
0.520742717
0.5078581114
0.5581576687
0.4253246879
0.4633295072
0.4786054798
0.5970488095
0.5523862064
0.5358459505
0.5868278281
0.5689584059
0.6114078361
0.496178382
0.5312176735
0.5497728569
0.6672749688
0.6287828746
0.60663294
0.6768312117
0.6514614927
0.6889811823
0.5862208266
0.6171887434
0.6413298378
0.1190644013
0.1142178199
0.2672397534
0.2669027265
0.1929402461
0.3927848374
0.3319091908
0.3319243758
0.3259524035
0.3298567139
0.3913125096
0.5220706199
0.5233044967
0.4583325294
0.6467193238
0.5865263988
0.5848725726
0.5865160921
0.587134774
0.647347851
0.7585149296
0.7601727139
0.705076372
0.7535347761
0.7564026465
0.8101172821
0.6154823448
0.6796701864
0.6849561036
0.8284922069
0.7616094805
0.7561458286
0.7790738005
0.7693124561
0.8318475702
0.6591486521
0.7115618776
0.7238530863
0.8598542508
0.8056006042
0.7913666278
0.8478983289
0.8231586019
0.8760877597
0.7296603236
0.7751431311
0.7987963875
0.1157231888
0.1198415299
0.2517858901
0.2575528789
0.1873640865
0.3839818875
0.3224552626
0.3168057139
0.3302473051
0.3270249391
0.3881300386
0.5068091935
0.5116818967
0.4477281065
0.6353553648
0.5744394607
0.5698949759
0.5821447953
0.5786260429
0.6391506593
0.7480858393
0.7510135107
0.6944478322
0.8539291258
0.8042581617
0.8021119574
0.8083841274
0.8064493519
0.8553208655
0.9416047524
0.9415517738
0.8996377011
1.013187092
0.9793855191
0.9800316847
0.9027623605
0.9789132573
0.9794484569
1.069724665
1.054675636
1.042928672
1.075374953
1.060314679
1.091197876
0.9321079976
0.9933849275
1.009833707
0.09230065592
0.09863720444
0.2261827009
0.2323548868
0.1626618787
0.3613671735
0.2978467551
0.2920303887
0.3105567833
0.304034112
0.3671863431
0.4862898468
0.4911222795
0.4255352685
0.619705647
0.5561072927
0.5523464202
0.5651495791
0.5605513904
0.6231320364
0.7398222008
0.7409483585
0.6814362159
0.8504279354
0.7975143316
0.797211185
0.8000834384
0.7984870538
0.8506261688
0.9443608848
0.9431982812
0.8990887302
1.017388208
0.9827220293
0.9839567631
0.980688089
0.9815932393
1.016258611
1.073068734
1.072368518
1.047163433
1.11088723
1.093442209
1.094026075
1.092037166
1.092782545
1.110318958
0.0750830435
0.0772927832
0.2122300919
0.2136042703
0.1439952588
0.3450372393
0.2803015343
0.2792027975
0.2870594337
0.2830997265
0.3474871246
0.4771192737
0.4775456334
0.4104325633
0.6132516001
0.5458299986
0.54568021
0.5490338159
0.5467369189
0.6134406552
0.7432136912
0.7411941049
0.678567536
0.8546507229
0.8001985153
0.8020839344
0.7974853849
0.798421257
0.8529381957
0.9493592264
0.9482311845
0.9040630206
1.021030575
0.9871642695
0.988075299
0.9851117684
0.9861785592
1.020239769
1.075186402
1.074746257
1.050104905
1.112528205
1.095391832
1.095738305
1.094541156
1.094994622
1.112202906
0.08050219669
0.07698792468
0.2202268521
0.2171030716
0.1488470567
0.3486741269
0.2834167254
0.2860546909
0.2791772933
0.2807492126
0.3462228394
0.4840462517
0.4820405889
0.4145942067
0.6191537037
0.5507051749
0.5524261067
0.5470591333
0.5489146382
0.6175184402
0.7500121435
0.7485649015
0.6856235822
0.8606112793
0.8070414288
0.8084291166
0.8038618712
0.8055167106
0.8592661928
0.9531546372
0.9523062659
0.9090583025
1.023567151
0.9904144839
0.9910776205
0.9889174543
0.989695617
1.023016638
1.076485352
1.076221824
1.052048228
1.113395015
1.096516451
1.096701151
1.096038576
1.096296668
1.113236312
0.09554824309
0.09176605018
0.2317246658
0.2289894081
0.1631186893
0.3579570639
0.2936084247
0.2960063109
0.2886324103
0.2911502406
0.355721147
0.4915858531
0.4897717647
0.4232563138
0.6247278253
0.5572786779
0.5588084821
0.5540902806
0.5557061867
0.6234414411
0.7543009855
0.7534254343
0.690651508
0.8649146095
0.8117421067
0.8125732119
0.8096751711
0.8107783641
0.8640095277
0.9558963073
0.9553120665
0.91275338
1.025309526
0.9927517564
0.9932055305
0.9916874978
0.9922454259
1.024938386
1.077211652
1.07707497
1.053293671
1.113732199
1.097073507
1.097144627
1.096853872
1.096977145
1.113687336
0.1101894505
0.106595079
0.2418943472
0.2394577817
0.1753431165
0.3663529068
0.302853646
0.3050286104
0.2983448501
0.3006260464
0.3643330369
0.4983616495
0.4967377689
0.4310671297
0.6293932346
0.5631415463
0.5645049994
0.5602950542
0.5617388069
0.6282897202
0.7569232198
0.7563707798
0.6942698273
0.8673900574
0.8143828399
0.8148033344
0.8132817126
0.8138802103
0.8669335312
0.9574953337
0.9572089232
0.9149977692
1.026373131
0.9942332068
0.9944591255
0.9936049501
0.9939480604
1.026172088
1.077486446
1.077458147
1.053983671
1.113700331
1.097219419
1.097200321
1.09719209
1.09721668
1.113737366
0.1232092836
0.120145333
0.2510188755
0.248827155
0.1860720142
0.3739873657
0.3112456762
0.3132186245
0.3071543856
0.3092252291
0.3721367744
0.5044330987
0.5029772672
0.4380846168
0.6334655907
0.568369817
0.5695867712
0.5658300939
0.5671178199
0.6324951442
0.7587132166
0.758315422
0.6971837733
0.8683788683
0.8156911155
0.8158959967
0.8151540921
0.8154465461
0.8682362336
0.9579347105
0.957922648
0.9158370537
1.026718379
0.9947808394
0.9947747851
0.9946251319
0.9947317648
1.02670181
1.077323451
1.07740632
1.054120235
1.113372777
1.097012736
1.096906259
1.097159667
1.097097025
1.113480799
0.1343494956
0.1317178591
0.2592378292
0.2572606792
0.1956139187
0.3810081922
0.318873163
0.3206760828
0.3151461531
0.3170300461
0.3793090851
0.5098777498
0.5085701798
0.4443968366
0.6370628809
0.5730358141
0.5741241478
0.5707690303
0.5719178585
0.6362035785
0.7600801567
0.7597671866
0.6996659607
0.8684949551
0.8163310809
0.8164316197
0.8160674089
0.8162107906
0.8685197015
0.9574775325
0.9576563601
0.9156844056
1.026344837
0.9944588795
0.9942680927
0.9947165089
0.994609756
1.026500333
1.076715233
1.076907641
1.053685792
1.112764106
1.096454924
1.096261395
1.096777809
1.096627086
1.112942054
0.1440300936
0.1417206457
0.2666971998
0.2648939927
0.2041941927
0.3874514352
0.325858314
0.3275186763
0.3224399103
0.324166214
0.3858898475
0.5148041189
0.5136147859
0.4501303344
0.640264853
0.5772238824
0.5782072726
0.5751838737
0.5762163819
0.6394975594
0.7611810146
0.7609265825
0.7018258232
0.8681702531
0.8166365896
0.8166796032
0.8165145417
0.8165820536
0.8682783098
0.9564650734
0.9567544342
0.9149712977
1.025382828
0.9934958358
0.9931849781
0.994041253
0.9937824365
1.025668349
1.075707817
1.07599251
1.05274595
1.111884685
1.0955608
1.095290381
1.096047398
1.095813348
1.112128012
0.152659581
0.1505944158
0.2735775506
0.27190344
0.212004897
0.3934167587
0.3323251486
0.333871566
0.3291486746
0.3307508504
0.3919640809
0.5193107007
0.518221519
0.455411995
0.6431324204
0.5810170361
0.5819100861
0.5791667055
0.5801027195
0.6424444983
0.7620831397
0.7618735357
0.7037184233
0.8676236228
0.8167487075
0.8167561216
0.8167117453
0.816734213
0.8677740282
0.9551520782
0.95549876
0.9139724991
1.024018108
0.9921360049
0.9917567354
0.9928527408
0.9925020868
1.024387563
1.074392478
1.074744802
1.051429268
1.110770085
1.094384013
1.094054015
1.095003426
1.094700723
1.11106765
0.1603573309
0.1585059651
0.2799829609
0.2784242131
0.2191682336
0.3989537307
0.338341858
0.3397790421
0.3353893957
0.3368789392
0.3976080591
0.5234386583
0.5224384084
0.4603434799
0.6457114193
0.5844646302
0.5852794023
0.5827815411
0.5836323769
0.6450908053
0.762836741
0.7626597583
0.7053885795
0.8669650362
0.8167407932
0.8167264016
0.8167566226
0.8167510543
0.8671364544
0.9536917614
0.9540652468
0.9128378946
1.022409494
0.9905573871
0.9901428408
0.9913659841
0.9909655495
1.022827804
1.072864773
1.073262047
1.049864378
1.109472713
1.092996026
1.092624153
1.09371206
1.093358875
1.109810887
0.1673311335
0.1656424568
0.285967598
0.2845062956
0.2257700079
0.4041103119
0.3439473709
0.3452953009
0.3411912025
0.3425798428
0.4028517277
0.5272667513
0.5263333947
0.464954513
0.648059979
0.5876270295
0.5883820414
0.5860771352
0.5868589999
0.6474911154
0.7634851224
0.7633312232
0.7068881724
0.8662532305
0.8166598567
0.8166321131
0.8167076774
0.816685138
0.8664342922
0.9521686386
0.9525523788
0.9116460652
1.020666461
0.9888700045
0.9884397019
0.9897226454
0.9892979203
1.021110546
1.071202421
1.071627192
1.048150084
1.108045222
1.091463457
1.091064401
1.092244239
1.091856897
1.108411417
0.1738163026
0.1722294882
0.291611785
0.29022921
0.2319264265