/*--------------------------------*- C++ -*----------------------------------*\
| =========                 |                                                 |
| \\      /  F ield         | OpenFOAM: The Open Source CFD Toolbox           |
|  \\    /   O peration     | Version:  v2012                                 |
|   \\  /    A nd           | Website:  www.openfoam.com                      |
|    \\/     M anipulation  |                                                 |
\*---------------------------------------------------------------------------*/
FoamFile
{
    version     2.0;
    format      ascii;
    class       volScalarField;
    location    "2.67";
    object      omega;
}
// * * * * * * * * * * * * * * * * * * * * * * * * * * * * * * * * * * * * * //

dimensions      [0 0 -1 0 0 0 0];


internalField   nonuniform List<scalar> 
3259
(
30.42507607
30.44675983
30.47416357
30.50949743
30.5770015
30.66824897
30.85634467
31.18601654
32.12032523
34.46685762
41.52861665
97.37069053
30.31979616
30.34348737
30.37431373
30.41469152
30.48953082
30.59945063
30.81617185
31.18885887
32.25446948
34.91391154
43.72308127
146.8821307
30.21882676
30.24457962
30.27867486
30.32343747
30.4027618
30.52652087
30.76202985
31.16233349
32.26914254
35.08060084
46.03870331
485.3042108
30.11842012
30.14610781
30.18342221
30.23308299
30.31793762
30.45369802
30.70669997
31.12173358
32.21699387
35.01143309
47.14917224
638.4049673
30.02116023
30.05081939
30.09106069
30.14462553
30.23378068
30.37979948
30.64932647
31.08142789
32.14293153
34.79510019
46.02383382
421.6729003
29.92224791
29.95363982
29.9967507
30.05485042
30.14940557
30.30403623
30.588334
31.04844914
32.10608361
34.62658831
44.73943144
268.7650754
29.82576408
29.85879989
29.90442817
29.96586694
30.0640199
30.22598519
30.52356496
31.01107329
32.12678478
34.73370077
45.11619454
224.0276259
29.72575328
29.76005935
29.80813341
29.87382391
29.97719836
30.14555652
30.4553676
30.96890832
32.14891769
35.00918021
47.77772118
263.118726
29.62848786
29.66385515
29.71386281
29.78226205
29.8885055
30.06279491
30.38425655
30.92294607
32.16964862
35.33385587
51.66459808
303.5189345
29.52617581
29.56219008
29.61405838
29.68633463
29.79784901
29.9777811
30.31073367
30.87430277
32.19163541
35.71699082
56.18077514
327.6582389
29.4280721
29.46451589
29.51761058
29.59168486
29.70508845
29.8906553
30.23522918
30.82395607
32.21829799
36.20766902
60.51925311
338.2308794
29.32328552
29.35983025
29.41422864
29.49178876
29.61057095
29.80168783
30.15823847
30.7730933
32.25504901
36.8756617
64.45775104
340.3554337
29.22524798
29.26175172
29.31678888
29.39520571
29.51444807
29.71131376
30.08045263
30.72326152
32.31075188
37.72320959
68.03043262
337.2386024
29.11810934
29.15436879
29.21035583
29.29218296
29.41739217
29.6200446
30.00266903
30.67635452
32.39626812
38.67454167
71.26334328
328.8216085
29.0215253
29.05748312
29.11374277
29.1956393
29.31951788
29.52840015
29.92565395
30.63419822
32.51976395
39.65731528
74.19202336
317.2814809
28.91193303
28.94748193
29.00453002
29.09012812
29.22160666
29.43683787
29.85007774
30.59848625
32.6834724
40.6328869
76.84813146
304.2240474
28.81847674
28.85362626
28.91077586
28.9957975
29.12346901
29.3457551
29.77656592
30.57118551
32.88440071
41.58591075
79.26301761
290.6209243
28.70574904
28.74044248
28.79832737
28.88756723
29.02603874
29.25550097
29.70573405
30.55401983
33.11675729
42.51247764
81.46422557
277.1107674
28.61748904
28.65179208
28.70976723
28.79798501
28.9287145
29.16639258
29.63821714
30.54873582
33.37404769
43.41076731
83.45174369
264.8643333
28.50013504
28.534001
28.59269273
28.68556584
28.83281765
29.07875215
29.5746809
30.55541402
33.65059752
44.28138173
85.23122058
253.2561
28.41982095
28.45337254
28.5122807
28.60424428
28.73719993
28.99292261
29.51578175
30.57517302
33.94248836
45.12987165
86.84674938
242.1418714
28.29526398
28.32842508
28.38803909
28.48429185
28.64409005
28.90940294
29.46223151
30.60770985
34.24669751
45.95951584
88.32720913
231.4710226
28.22655148
28.25953113
28.31955245
28.41662447
28.55187929
28.8289733
29.414863
30.6525207
34.56008897
46.76606261
89.65989968
221.1251279
28.06808072
28.10072387
28.16184863
28.26383434
28.4652365
28.75316915
29.37509187
30.70874527
34.87772597
47.53876441
90.85920485
211.0601058
96.27151474
126.0119364
41.2437064
81.05232231
43.34573404
102.470645
82.62782752
106.1500155
1140.181241
734.0760365
153.2414878
722.3498509
1095.313417
8549.713981
1151.460726
107.6211848
1809.227267
7643.139725
1105.132274
1776.049137
4044.814725
798.5763353
213.2624847
227.8358108
196.0068191
207.8252558
795.0025953
567.0546482
181.4773884
191.9946265
178.2280566
557.5209789
755.1034826
769.1298695
234.1904202
247.1367431
1435.968637
2906.86848
1283.638376
2222.650743
1147.885499
6209.252468
2502.316211
5290.675678
1144.003352
3642.26737
1625.910831
45.4674153
112.7440063
105.7104568
165.8769255
4196.763762
7784.986745
1046.903181
402.1782813
423.0718765
6399.133745
3088.817087
730.0559282
918.3837159
8854.633965
317.7499685
370.9302264
431.0086591
450.2147445
1163.681476
1479.53001
1831.744204
7841.065578
1384.561667
1212.481338
16118.01489
1118.043851
1687.432572
372.5858096
394.9476104
948.7065003
763.930868
350.9173265
366.9626444
737.7812159
827.2786505
1209.344606
463.7302521
512.1554438
5733.194373
6540.635928
1915.502203
7116.475584
5034.388284
1705.639024
1120.167939
6183.921743
3396.776736
6878.499748
3866.746849
1624.843263
331.7143521
346.1429766
758.184819
637.6876725
312.2342023
326.9799898
1718.572087
1694.958408
1070.638897
1812.256097
1111.311206
1755.387277
1741.340467
1776.084852
295.1083609
307.6232045
608.178919
538.3553984
281.4959387
291.5939512
1098.451403
1098.17263
751.5651142
771.9008192
1107.266091
1111.673258
1516.02523
984.2950106
970.8388629
12630.01098
2388.308415
1532.846843
4468.985519
3586.339923
1829.805475
1806.66245
1131.825123
5983.647761
6523.917968
6227.66188
4843.658132
1205.968799
1878.272699
1818.298395
2536.331778
1713.388617
1727.951537
2182.907487
1013.78272
1647.459201
1581.823013
858.58359
1218.681446
12947.10156
1165.063939
794.4575458
798.3725809
1834.656477
7451.72711
7698.023163
9214.849876
5785.522335
5325.224947
1772.097983
1759.843624
1112.501716
1737.638478
1761.088301
1762.163547
1743.450639
1746.88426
1154.895531
1167.075763
802.3179518
1825.592411
1725.540918
1780.750245
1771.087693
828.0601518
833.9448143
1213.331268
5558.267193
8578.278232
8950.825627
8333.458225
8381.828683
6190.101189
1863.617556
6136.350324
4290.131883
4688.219372
1129.221941
1797.402237
1780.431008
6149.318786
6767.294187
6506.468611
5270.974183
5764.00878
7173.898306
6795.951904
4273.022601
6444.042232
5515.410902
2228.222527
1789.061899
1194.487595
31.18679521
31.77696911
32.09791368
33.61650339
34.39733792
38.50186585
31.19194335
31.87436591
31.79435155
32.2362451
33.94833108
33.66433358
34.83711956
39.75882758
38.6949057
42.00771476
49.50625205
48.13092252
100.9615793
165.1478969
156.8518674
31.17083265
31.89042456
31.88470343
32.27246472
34.09591458
34.00355077
35.06290363
40.87176272
40.04023266
44.28491655
51.98387976
53.237611
149.9322031
298.5161034
263.693315
31.13275189
31.85479761
31.88527939
32.23354927
34.06291714
34.10253344
35.04935783
41.46159459
41.1133199
47.11778831
173.8593693
125.0016975
659.4805714
31.09051805
31.79641051
31.84081026
32.15997416
33.90802803
34.03021322
34.85494611
41.07821645
41.46478384
46.42902804
159.4949136
175.4574786
478.3084224
31.05710196
31.75807713
31.78317549
32.10684048
33.76400689
33.8645504
34.6549224
40.33515079
40.86822957
44.959287
128.004352
150.8849209
294.6627819
31.02095493
31.7605383
31.75783447
32.12097408
33.78856942
33.74673254
34.67618121
40.31947431
40.22339547
44.83076805
115.7265295
122.6846135
227.5496654
30.9799005
31.76136179
31.76115042
32.14358691
33.94699749
33.82526203
34.93539289
41.48719957
40.49347048
46.98911253
128.2431165
116.8419199
250.9360719
30.93475465
31.75858037
31.76096813
32.16447021
34.13038538
33.99076168
35.24813299
43.24898907
41.87930077
50.59815294
148.2648787
133.2530356
294.7731674
30.88667785
31.75421372
31.75755859
32.1858574
34.33963314
34.17999252
35.61387323
45.65631706
43.78410985
55.04562204
166.2337307
153.0426269
323.2433156
30.83665097
31.75059192
31.75316075
32.21094405
34.58996072
34.39739105
36.07069418
48.57181443
46.35749179
59.47177297
180.4396349
170.1652785
336.4961105
30.78578646
31.75079427
31.75018092
32.24450978
34.91800833
34.66285648
36.69010648
51.50827952
49.31887279
63.50959392
191.0268576
183.4120615
340.452509
30.73552755
31.75938351
31.7518937
32.29445297
35.36591044
35.01774618
37.49810046
54.2505836
52.21424117
67.16966391
198.4913133
193.1357735
338.5215726
30.68770905
31.78275197
31.76359241
32.3715625
35.93597013
35.49815477
38.43158754
56.77962481
54.9031362
70.485831
204.4148787
200.031924
331.2921023
30.64421222
31.82754972
31.79174435
32.48510825
36.58962316
36.09342675
39.41128346
59.10727975
57.37979129
73.48619651
209.1962015
205.7557646
320.3259107
30.60672203
31.89865151
31.84273213
32.63887249
37.28514678
36.76102765
40.39081045
61.25385149
59.66081167
76.20855701
212.4022801
210.1594309
307.5332704
30.57715964
31.99847444
31.92091698
32.83097553
37.99514209
37.46211995
41.35007556
63.23800155
61.76447993
78.68000809
214.0469717
212.938328
293.9645997
30.55727915
32.12645989
32.02793849
33.05608748
38.70572776
38.17319024
42.28345006
65.08317054
63.7121734
80.93359224
214.4280262
214.3084619
280.2571579
30.54873747
32.27995341
32.16260923
33.30773467
39.40953207
38.88264183
43.18893708
66.79732123
65.52448659
82.975236
213.1583559
214.2983297
267.7257231
30.55249011
32.45537691
32.32193086
33.57990503
40.1026651
39.58398521
44.06609422
68.38332432
67.20589087
84.80344123
210.7000026
212.7008524
255.9366645
30.56903531
32.64944513
32.50229919
33.86825554
40.78586148
40.27441521
44.91957102
69.86400041
68.76269133
86.45571843
207.5834886
210.0631942
244.6316598
30.59840642
32.85939814
32.70059209
34.16967462
41.46083474
40.95549897
45.75418577
71.26263714
70.22116778
87.97443678
204.0440894
206.8662358
233.7530644
30.64022082
33.08260251
32.91409615
34.4812179
42.12586388
41.62817114
46.56835821
72.57267826
71.59696899
89.35143027
199.9921811
203.30622
223.2084129
30.69420397
33.31734481
33.14007723
34.80121192
42.78067664
42.28910901
47.36202486
73.79927368
72.87570879
90.61206919
195.2508063
199.1137433
212.8849659
30.76468159
33.57884373
33.37457253
35.15040564
43.469022
42.92954585
48.18876379
75.03390028
74.05035855
91.8550632
189.8071566
194.3655862
202.1458517
154.1444663
146.7930167
93.07002088
253.343418
232.2159809
122.9259026
880.1382394
47.67279633
46.27512157
40.86009526
76.8944225
50.92804866
52.49029428
52.76517162
49.98151071
42.25095031
89.99626533
55.48889108
59.38078124
53.05130534
54.8653043
87.65542006
177.8610747
168.4600984
102.2005551
1133.80291
750.9931956
761.7454895
528.8824336
537.3110008
743.3788694
2975.52756
3707.977466
179.5225639
2613.7944
2035.928023
827.4935731
750.2907355
703.4110276
508.3489621
519.9083229
278.6409221
531.1228709
92.1191138
144.511091
12027.4651
1310.59486
2374.683044
774.7189775
780.2749023
1153.241877
111.9919842
193.3259601
182.392869
5299.265069
5395.935545
9254.200703
594.3660287
610.1197876
830.6110989
216.8460776
289.2990279
284.2200369
334.8246022
310.1574383
223.361849
199.6264363
262.0219932
256.4814243
274.7576696
269.3412104
204.1792084
779.0805999
574.9114573
585.5163741
438.8767799
445.8110648
574.4640736
184.8385337
238.816097
233.7515212
250.1663503
244.5458211
188.4432248
172.0462851
220.204447
228.9682204
224.4960047
175.0979438
551.9110076
426.4468623
432.1826263
237.3384713
359.8806232
342.2096698
402.0988614
369.8101783
247.8501132
1350.951643
1912.293854
1839.927673
3289.646068
2972.378541
2058.642321
2738.628219
4046.116642
3611.350743
3203.849722
2259.844273
54.26736541
53.07442686
44.8578596
119.1849079
69.31327882
71.89089158
60.16244548
61.12767282
115.7802317
337.34991
275.4608448
156.4725896
4588.205453
1086.535331
1345.352652
397.9764175
341.9450056
6498.252478
699.4705114
728.939184
1104.318748
409.1867319
528.3115407
514.2206872
550.3547576
541.8619223
417.0225314
4818.744731
919.739078
1270.294689
1156.870436
1272.642704
3542.102916
1084.469191
1081.02198
723.5442208
3505.388391
5001.505047
13149.0294
336.0271076
608.4373065
551.7106173
704.4712906
631.6266934
354.3432701
436.3593768
567.4493155
561.4504822
584.759167
579.620604
445.5480978
1220.120294
1533.547551
3039.892442
2666.137926
3672.812302
4161.746016
1681.146947
16265.12711
14032.85728
379.4098698
471.2588688
461.996208
497.4782459
483.8713551
386.4257976
856.8974046
630.7499871
660.3925999
559.1392893
568.027907
774.417376
356.3150937
440.0682867
433.3234149
454.0495641
446.6922296
361.2877971
742.7118486
1091.267223
1090.378585
468.0324621
609.8882122
604.5846889
683.9795688
689.4837169
514.3855573
3579.918635
3825.733924
5483.262727
1819.408152
2722.704157
2478.191019
5020.642241
4473.212883
3093.356385
336.57167
414.7191713
408.3251998
427.1263924
420.744132
341.1650815
749.8315324
544.3079639
552.3483422
479.1855712
494.4787917
674.3775737
317.2080693
386.8523238
378.8850038
401.7722908
394.6026279
322.1244115
299.1152851
358.6542374
353.203937
371.4494249
364.586972
303.0691888
589.6417232
454.6229951
465.8672429
414.9808047
420.3975239
544.1079578
284.7426352
338.0092412
333.0180995
348.036956
343.0233477
287.959017
2284.396091
2084.525858
1421.454181
4207.94378
3062.16145
3194.845245
2667.108649
2770.092759
3913.572393
2864.167326
1122.01743
2245.092343
1587.652219
2415.182414
2291.132455
1184.005554
13384.09029
5193.465572
5373.545381
10388.17211
12723.85241
8343.296557
6427.905425
8885.364628
8396.510058
8420.991667
9739.312955
6427.595851
30.6241544
30.66014434
30.71217561
30.78679119
30.89091175
31.0776008
30.5329193
30.57591039
30.61244001
30.63659449
30.72226549
30.74609145
30.84208746
31.06226028
31.07164411
31.1824749
31.33785033
31.33575839
32.1501835
32.56965108
32.52610103
34.56780171
35.62228863
35.49327216
98.55931294
112.5810949
111.079859
30.44512674
30.49472534
30.53330265
30.56315323
30.65888847
30.69058181
30.78926767
31.02970445
31.05486579
31.18436874
31.35973596
31.36126173
32.26567652
32.73234222
32.71411454
34.97851474
36.19497292
36.09829128
30.3596434
30.41506889
30.45294846
30.49044322
30.59501409
30.62714205
30.73431758
30.98722063
31.01902891
31.15324706
31.33685087
31.34474938
32.26081795
32.73958231
32.74726971
35.08438971
36.40727324
36.38838506
46.54259408
56.76140197
55.52554026
578.9024872
1954.065356
2169.89743
30.27537176
30.33572424
30.37368494
30.4171728
30.52919163
30.56239807
30.67842805
30.94393992
30.97534904
31.11097972
31.29552714
31.30656667
32.19830427
32.66357306
32.68745021
34.96501412
36.29369516
36.34586364
47.03141025
58.20815594
58.37452908
594.2977996
1415.242743
1524.168909
30.1912889
30.25567052
30.29425121
30.34238866
30.46070355
30.49531061
30.61930489
30.90277382
30.93344646
31.07339545
31.25724277
31.26491247
32.12688091
32.56856547
32.59107572
34.74110492
35.98940495
36.06464206
45.6360684
55.41276375
56.24436822
371.056714
1014.082112
1109.249186
30.10648465
30.17424203
30.21377847
30.26547752
30.3892346
30.42534416
30.55640573
30.85705993
30.89137692
31.03965591
31.23386267
31.23985683
32.10951568
32.53883675
32.53505587
34.62419322
35.81333811
35.82272004
44.61440461
53.12178245
53.45400222
248.939093
724.1468319
783.0112471
30.02048351
30.09106113
30.13171992
30.18620485
30.31485106
30.35239337
30.48986119
30.80674607
30.84458105
31.00101459
31.20665134
31.21394193
32.1325243
32.58701459
32.5740555
34.79739061
36.07383438
35.96895744
45.62741514
54.93026297
53.95647678
225.6313405
604.5373311
620.8027828
29.93273506
30.00593078
30.04779782
30.10457464
30.23783339
30.27665009
30.42014237
30.75256075
30.79329721
30.95776671
31.17450566
31.18294061
32.15416135
32.64031808
32.62681143
35.08594874
36.56008565
36.42941296
48.64468753
61.21906056
59.48853711
274.6493034
568.2756598
577.5399547
29.84313157
29.91872416
29.96183539
30.02064697
30.15848819
30.19843755
30.34776677
30.69542711
30.73835455
30.9110233
31.13874832
31.14794506
32.17492302
32.69653296
32.68202782
35.42310021
37.1452106
36.98830605
52.77280522
68.34556958
66.58727928
311.251829
528.1531104
538.8211182
29.75135955
29.82942547
29.87375645
29.93453477
30.07703155
30.11801435
30.2732012
30.63617752
30.68066002
30.86185198
31.10078454
31.1104163
32.19771595
32.75934477
32.74275616
35.82669754
37.88384707
37.67833114
57.30086308
74.95249824
73.36859547
331.3867825
490.4130388
499.241407
29.65777449
29.73814155
29.7835782
29.84642662
29.99368018
30.03557442
30.19688054
30.57570063
30.62104203
30.81124921
31.06194636
31.07164988
32.22629941
32.834816
32.81424916
36.35619627
38.88829824
38.60897145
61.54126349
80.85654011
79.44261527
339.3312523
457.0806278
465.2222467
29.5623047
29.64517364
29.69152376
29.75668148
29.9088233
29.95140931
30.11939467
30.51512048
30.56044469
30.76048099
31.02393845
31.03324692
32.26679154
32.93443523
32.90637339
37.07298314
40.15348351
39.8199701
65.3837127
86.1212129
84.86324944
340.0570654
425.3099541
433.1441494
29.46581208
29.55093695
29.59794163
29.66578353
29.8230201
29.86600356
30.04150975
30.45580418
30.50006058
30.71119657
30.98908018
30.99735389
32.32894841
33.07531133
33.03528774
37.95480081
41.53650472
41.1875049
68.87032211
90.7773814
89.66991615
335.5626861
394.8803327
402.3531181
29.36812027
29.4559001
29.50332084
29.5742572
29.73689726
29.77996213
29.96402089
30.39910642
30.44128938
30.66532436
30.96017482
30.96666972
32.42340813
33.27150998
33.21692798
38.91937157
42.91957312
42.57727686
72.02250019
94.86409259
93.88970354
326.1249204
365.9532254
373.0415735
29.27043756
29.3604959
29.40808168
29.4825882
29.65104339
29.69390874
29.88764325
30.34621572
30.38543932
30.6246095
30.93969334
30.94386519
32.5569845
33.5252289
33.45674895
39.90288202
44.25539086
43.92689758
74.88125917
98.48639765
97.62175887
314.0730553
338.6703345
345.3348822
29.1720592
29.26510963
29.31270701
29.39120521
29.56596878
29.60839128
29.81301807
30.29841773
30.33369282
30.59079406
30.93034926
30.93149857
32.73043318
33.82812557
33.74844139
40.87358349
45.53074796
45.21764307
77.47327663
101.6840771
100.9222736
300.7771342
313.2019773
319.4021067
29.07465719
29.1700556
29.21746246
29.3004621
29.48211532
29.52388995
29.7407584
30.25708824
30.28738786
30.56588447
30.93469169
30.93218711
32.93982346
34.16834537
34.08041851
41.82020475
46.74752047
46.44848792
79.83320471
104.4990433
103.8296706
287.0787092
289.7033331
295.4015854
28.9766543
29.07559883
29.12278347
29.21067285
29.39987771
29.44083
29.67147504
30.22354215
30.24787937
30.55154787
30.95452569
30.94805496
33.17902257
34.53505686
34.44140563
42.73987774
47.91058767
47.62470749
81.9817264
106.9546128
106.3770202
273.8588208
268.0660295
273.3735436
28.88061469
28.98195241
29.02877709
29.12209193
29.31963664
29.35962542
29.6058075
30.19894548
30.21652076
30.54918013
30.99057803
30.98003984
33.44159247
34.91957737
34.82215045
43.63096756
49.02175368
48.74867035
83.91502008
109.0295938
108.548738
261.7685708
248.0377206
252.9537833
28.78353995
28.88925225
28.93594062
29.03492969
29.24172254
29.28069965
29.54435714
30.18401239
30.19422237
30.55917287
31.04265836
31.02814524
33.72228488
35.31615854
35.21607697
44.49544931
50.08650726
49.82402914
85.64905758
110.7538557
110.3526132
250.2242394
229.9391977
234.3708415
28.689507
28.79751978
28.84427297
28.94926088
29.1663927
29.20452012
29.48763479
30.17949259
30.18183177
30.5821241
31.11030881
31.09198735
34.01754085
35.72180699
35.61967288
45.33927142
51.11569796
50.86121815
87.23237595
112.2227411
111.8738583
239.1394784
214.0201228
217.9748383
28.59293015
28.70654076
28.75461857
28.86500479
29.09372723
29.1316733
29.43600306
30.18506159
30.17985342
30.61779913
31.19256922
31.17069647
34.32438449
36.13399169
36.03046574
46.16417403
52.11264916
51.8661362
88.68002609
113.4646936
113.1706395
228.4533193
200.1255936
203.7012351
28.49994437
28.61556889
28.66722927
28.78153728
29.02336385
29.06302057
29.38938314
30.20131155
30.18804941
30.66569923
31.28829317
31.26308166
34.64007998
36.55005813
36.44527521
46.96717383
53.07293775
52.83231211
89.99431594
114.5438819
114.2698322
218.0151141
187.960659
191.2921152
28.39211243
28.51708417
28.58428772
28.6926272
28.95094356
29.00005959
29.34635661
30.23016499
30.20659778
30.72626085
31.39794576
31.36724536
34.96728907
36.97453211
36.85815572
47.75925489
54.00986438
53.74699266
91.21268716
115.502151
115.2256942
207.827918
177.2236466
180.4684484
109.6077277
108.165751
95.14839403
159.0894535
152.0692198
128.0395711
79.59761113
67.27215378
68.29939053
100.4430051
80.54238808
82.27057326
69.39049913
70.48458331
84.21627733
122.3994245
120.7614164
104.81941
90.36268176
101.1449946
109.0000581
125.8970282
124.4403426
1804.973729
83.97706321
85.71093157
108.8976063
2972.944163
3274.562849
7399.529511
5818.066913
4301.172086
4832.859243
1367.944104
1582.98426
2086.740017
1185.257105
31.33097121
31.33221915
31.19231667
31.7665317
31.52187384
31.52343688
32.49638947
32.4593877
32.07394448
33.54355833
32.94063216
32.99388742
35.39293409
35.27664087
34.30542393
38.26196967
36.53988754
36.69979347
31.36149561
31.34171705
31.18224766
31.82786013
31.55356668
31.58547983
31.53542338
31.5448036
31.81300536
32.68595777
32.60061996
32.1723255
33.80003983
33.13362878
33.24613719
33.03167543
33.09187275
33.74484609
35.98523683
35.7184493
34.64035234
39.16210694
37.14667957
37.52890335
36.83609575
37.01485148
38.96838756
115.7004462
114.1281296
99.71626962
162.4239056
134.0896149
136.1426587
130.0495788
132.0049312
159.4636944
31.35145723
31.35611211
31.17799383
31.89181908
31.58992488
31.58690447
31.5894448
31.59076045
31.89021649
32.7477767
32.74394263
32.27134145
34.07710385
33.33388444
33.3433401
33.28657499
33.31453771
34.04657633
36.34507427
36.28121309
35.02828783
40.60741862
38.0108122
38.14227841
37.70190929
37.86287922
40.32249347
198.5960568
202.7033028
271.9408953
31.31747156
31.32760196
31.1431605
31.86684583
31.56446846
31.55380472
31.58088363
31.57384742
31.87746043
32.70772837
32.72699043
32.24863964
34.0861792
33.32619196
33.30436007
33.34551837
33.33922654
34.10019014
36.38811367
36.40811957
35.07385678
41.41045582
38.3334051
38.33143916
38.24074424
38.30454287
41.29002365
58.25926855
57.75826223
46.92773913
165.2156851
81.85101641
83.73174748
74.61429189
78.30220064
145.3153486
1634.013749
1772.923066
649.4662813
968.9346731
901.6348338
1213.561901
1078.949477
31.27423381
31.28453445
31.10028972
31.81101847
31.51735128
31.5056187
31.5418921
31.52963511
31.82608681
32.61365609
32.63975196
32.17947529
33.95193494
33.21712162
33.18306166
33.27806256
33.24798891
33.99255188
36.14835615
36.2242106
34.91191683
41.24957364
38.14873888
38.04227493
38.29855016
38.24289398
41.3950069
57.05166591
57.72468011
46.76244059
167.3276347
83.69879317
82.14597949
84.55234194
84.57326284
173.0651896
1207.578358
1311.101791
538.1980795
856.2825455
865.359587
861.4981775
852.5949979
31.24555827
31.25106789
31.06527597
31.76352355
31.47971835
31.47571536
31.49514598
31.48624323
31.77187711
32.53978293
32.55279182
32.11595252
33.78935153
33.09779977
33.07999749
33.15180793
33.12190471
33.82473438
35.86448574
35.91555448
34.69031447
40.48134096
37.69170447
37.61157717
37.91761401
37.80540498
40.6758242
53.9440592
54.63125621
45.26204735
134.5906344
76.14737505
74.37588548
80.21086781
78.11231785
142.3516034
849.3542719
927.8858885
329.0180051
863.6735344
837.0814119
877.9256792
874.8201923
31.22091398
31.2275461
31.03039185
31.75972582
31.46756864
31.46434538
31.47317189
31.47050413
31.75875191
32.56134397
32.54901756
32.1151425
33.75991337
33.08410394
33.10479263
33.06972579
33.07247506
33.74731229
35.88374035
35.83889102
34.64165832
40.20646655
37.5577702
37.62743244
37.54707291
37.52595604
40.17247297
53.40339057
53.09485407
44.64173442
116.5949568
71.83675346
72.21799805
73.05868023
72.15669076
118.9682076
642.8954425
679.2529909
235.9508706
753.2288325
728.0290417
808.0895312
779.3657005
31.19112841
31.19903723
30.99054342
31.76153106
31.45274858
31.44826319
31.46080436
31.45693324
31.76149031
32.61342826
32.60015787
32.13812306
33.9047536
33.1745389
33.19923447
33.12722305
33.15049683
33.86410716
36.30461364
36.18597766
34.86470626
41.12335821
38.11271406
38.31584563
37.74749508
37.92225237
40.786576
57.84611012
56.31865532
46.27408532
123.3569895
77.67036387
80.4905629
73.28453387
74.99678616
118.8584576
586.3521731
595.0024802
237.9817489
663.3470399
641.747517
706.6287849
685.7833472
31.15698229
31.16584571
30.94632816
31.75952685
31.4332521
31.42784147
31.44349705
31.4384787
31.76033063
32.6678668
32.65398745
32.15932219
34.08239941
33.27674851
33.30384232
33.22450185
33.2503176
34.03586374
36.83910256
36.69657678
35.16555282
42.75630836
38.99988721
39.25464934
38.53140362
38.75921035
42.30109943
64.80035762
63.00175662
49.5873325
143.3669559
89.10834421
91.89697737
83.36834147
86.25602888
138.3327359
549.1381346
558.7921942
285.2355832
582.290901
563.7774218
621.1553504
601.4194488
31.1199647
31.12941967
30.89890123
31.75533073
31.41077044
31.4048973
31.42227278
31.41656753
31.75645143
32.72681987
32.7114428
32.18030165
34.2843822
33.38984014
33.42043564
33.33165968
33.36028242
34.23123359
37.48819645
37.31122959
35.51619325
44.98970696
40.13024642
40.47064127
39.5257572
39.81637415
44.36420668
71.73921966
70.06527552
53.90510872
162.0696573
99.87650331
102.398498
94.61943835
97.27760884
157.642415
508.4194541
518.0242733
317.8173134
512.704021
496.6778243
546.0808935
529.138546
31.08137201
31.09109969
30.84927809
31.75130801
31.38706293
31.38115125
31.39896863
31.39301035
31.75216968
32.79493857
32.77669667
32.20411767
34.52193058
33.52000522
33.55659163
33.45219602
33.4852949
34.45793708
38.34825302
38.10671721
35.94412434
47.82431506
41.6657116
42.11772417
40.83991634
41.23864982
47.08315474
77.98717651
76.49062936
58.39845994
177.2438349
109.4920628
111.6928324
104.847966
107.2155689
173.8492901
473.455853
481.8321583
334.1792409
450.5746448
436.0884422
480.9118711
465.4904495
31.04270925
31.05229375
30.79850592
31.7503056
31.36409161
31.35872019
31.37533453
31.36964169
31.75015225
32.88061203
32.8568586
32.23498557
34.82607978
33.68120647
33.72920545
33.59537649
33.6367474
34.74124802
39.49617344
39.18479308
36.51688996
50.78977066
43.57456473
44.07728464
42.59000118
43.07721926
50.05908858
83.56751168
82.23223104
62.53765271
188.6917528
117.7915519
119.6608008
113.8098369
115.8352516
186.1150172
441.050497
449.0330606
340.2382791
394.7000187
381.833462
421.8912667
408.0721895
31.00594888
31.0148256
30.74793677
31.75611507
31.34441588
31.34046404
31.35360945
31.34882043
31.75365186
32.99862012
32.96509318
32.27985758
35.24162221
33.89911272
33.96575092
33.78121722
33.83769943
35.12551468
40.83946694
40.49412712
37.28086786
53.58513082
45.58505414
46.08062576
44.58166781
45.08485586
52.90624138
88.52518391
87.34229943
66.28726873
196.9432749
124.7858014
126.334095
121.4425612
123.1517257
195.1352332
409.9120793
417.5690336
339.4069224
346.4987041
335.8091146
369.5068541
357.7330603
30.97368499
30.98120218
30.69933059
31.77517231
31.3319199
31.33029963
31.33700638
31.33410787
31.76879549
33.16604751
33.1188635
32.34916514
35.78381459
34.1982903
34.2866256
34.03778696
34.11529223
35.63761968
42.23229277
41.8851221
38.19129818
56.16722526
47.52922604
47.99792751
46.57030127
47.05324234
55.54168989
92.88499031
91.84888648
69.68831179
203.0258801
130.5676245
131.861561
127.8076615
129.2156225
201.5459669
380.2225623
387.5135085
333.575858
306.8697147
298.2155766
325.6595415
316.0201215
30.94870225
30.95416584
30.65459187
31.81406963
31.33074821
31.33257936
31.32972195
31.32993278
31.80216262
33.39153464
33.32975091
32.45299891
36.42087004
34.58079102
34.6875033
34.3800133
34.47816003
36.25523259
43.59464615
43.25882268
39.16512661
58.5429829
49.3590293
49.79829956
48.45901932
48.91258966
57.96710984
96.7295946
95.810492
72.76291805
208.1328067
135.4645562
136.5795353
133.1101769
134.3082131
206.983318
352.0965993
358.9857358
323.3017519
274.8709131
267.8589899
290.0309971
282.256365
30.93349226
30.93620458
30.61541909
31.87822783
31.34476505
31.35112626
31.33555892
31.33960013
31.85959519
33.67126292
33.59680489
32.59669364
37.10914893
35.02806533
35.14723801
34.79786431
34.91148319
36.9342909
44.90074106
44.58004574
40.14742674
60.73359248
51.07279973
51.48380717
50.23027519
50.6549692
60.20249575
100.1364868
99.32573774
75.55308274
211.7719771
139.6494583
140.5751435
137.6483734
138.666837
210.9919408
325.6985153
332.146778
310.85854
248.8951817
243.1935248
261.2090916
254.8943449
30.93085667
30.93036136
30.58369454
31.97081392
31.37762406
31.38907163
31.35867492
31.36746944
31.94494839
33.99429507
33.91014693
32.77962299
37.81723651
35.51707815
35.64368221
35.26864807
35.39198145
37.63947873
46.14607235
45.84022055
41.11262217
62.7558403
52.67775101
53.06387697
51.88811197
52.28586682
62.26458375
103.1366834
102.4233039
78.08352679
213.8088502
143.0981614
143.841944
141.4559194
142.2979772
213.432073
301.1897273
307.1618292
297.408812
227.7638528
223.1108402
237.7848578
232.6457794
30.94261147
30.93816157
30.56122796
32.09195085
31.43129505
31.44807899
31.40179809
31.41586348
32.0590893
34.34898775
34.25792934
32.99707835
38.52851603
36.03030173
36.16097278
35.7715263
35.90042612
38.35094476
47.33560065
47.04324483
42.05268217
64.63434539
54.18875285
54.55321921
53.44429071
53.81908685
64.17714449
105.7728867
105.1483782
80.38982946
214.4770269
145.8647177
146.4465975
144.5590657
145.228416
214.4691964
278.6928457
284.1880788
283.6876561
210.5032245
206.6866738
218.6944899
214.490832
30.9704797
30.96199333
30.54973291
32.23939238
31.50631311
31.52831402
31.46618007
31.48559302
32.20025324
34.72553215
34.62981143
33.24270141
39.2345355
36.55615262
36.68865311
36.2922333
36.42397601
39.05886793
48.47251257
48.19320195
42.96530845
66.38127011
55.61489532
55.95855161
54.91235569
55.26613881
65.95675882
108.0404688
107.5112211