/*--------------------------------*- C++ -*----------------------------------*\
| =========                 |                                                 |
| \\      /  F ield         | OpenFOAM: The Open Source CFD Toolbox           |
|  \\    /   O peration     | Version:  v2012                                 |
|   \\  /    A nd           | Website:  www.openfoam.com                      |
|    \\/     M anipulation  |                                                 |
\*---------------------------------------------------------------------------*/
FoamFile
{
    version     2.0;
    format      ascii;
    class       pointVectorField;
    location    "1.4";
    object      pointDisplacement;
}
// * * * * * * * * * * * * * * * * * * * * * * * * * * * * * * * * * * * * * //

dimensions      [0 1 0 0 0 0 0];


internalField   nonuniform List<vector> 
6506
(
(0 0 0)
(0 0 0)
(0 0 0)
(0 0 0)
(0 0 0)
(0 0 0)
(0 0 0)
(0 0 0)
(0 0 0)
(0 0 0)
(0 0 0)
(0 0 0)
(0 0 0)
(0 0 0)
(0 0 0)
(0 0 0)
(0 0 0)
(0 0 0)
(0 0 0)
(0 0 0)
(0 0 0)
(0 0 0)
(0 0 0)
(0 0 0)
(0 0 0)
(0 0 0)
(0 0 0)
(0 0 0)
(0 0 0)
(0 0 0)
(0 0 0)
(0 0 0)
(0 0 0)
(0 0 0)
(0 0 0)
(0 0 0)
(0 0 0)
(0 0 0)
(0 0 0)
(0 0 0)
(0 0 0)
(0 0 0)
(0 0 0)
(0 0 0)
(0 0 0)
(0 0 0)
(0 0 0)
(0 0 0)
(0 0 0)
(0 0 0)
(0 0 0)
(0 0 0)
(0 0 0)
(0 0 0)
(0 0 0)
(0 0 0)
(0 0 0)
(0 0 0)
(0 0 0)
(0 0 0)
(0 0 0)
(0 0 0)
(0 0 0)
(0 0 0)
(0 0 0)
(0 0 0)
(0 0 0)
(0 0 0)
(0 0 0)
(0 0 0)
(0 0 0)
(0 0 0)
(0 0 0)
(0 0 0)
(0 0 0)
(0 0 0)
(0 0 0)
(0 0 0)
(-2.941423307e-07 1.499650472e-06 2.775557562e-17)
(0 0 0)
(0 0 0)
(0 0 0)
(0 0 0)
(0 0 0)
(0 0 0)
(0 0 0)
(0 0 0)
(0 0 0)
(0 0 0)
(0 0 0)
(0 0 0)
(0 0 0)
(0 0 0)
(0 0 0)
(0 0 0)
(0 0 0)
(0 0 0)
(0 0 0)
(0 0 0)
(0 0 0)
(0 0 0)
(0 0 0)
(0 0 0)
(0 0 0)
(0 0 0)
(0 0 0)
(0 0 0)
(-1.832514181e-05 1.862016504e-05 4.857225733e-16)
(-0.000105470547 0.0001168144911 3.080868893e-15)
(-1.379022046e-06 1.642331996e-06 2.775557562e-17)
(-0.0002003114935 0.0003266453613 8.007483565e-15)
(-0.0004976569543 0.000755536361 1.992850329e-14)
(-0.0005908349244 0.001023523385 2.699229729e-14)
(-0.0002753700809 0.0005121624911 1.257327575e-14)
(-0.000335804997 0.001079360838 2.646494135e-14)
(-0.0005895514033 0.001768507256 4.662936703e-14)
(-0.0004928306747 0.001954122084 5.151434834e-14)
(-0.0002895047233 0.00122835789 3.011479954e-14)
(0 0 0)
(0 0 0)
(0 0 0)
(0 0 0)
(0 0 0)
(0 0 0)
(0 0 0)
(0 0 0)
(0 0 0)
(0 0 0)
(0 0 0)
(0 0 0)
(0 0 0)
(0 0 0)
(0 0 0)
(0 0 0)
(0 0 0)
(0 0 0)
(0 0 0)
(0 0 0)
(0 0 0)
(0 0 0)
(-5.117958982e-05 2.727654217e-05 1.026956298e-15)
(-0.0002795985401 0.0001589547972 6.022959909e-15)
(-6.622643834e-05 4.171683559e-05 1.429412144e-15)
(-0.0009453046841 0.0007444399229 2.53824739e-14)
(-0.001512196722 0.001076096098 4.06341627e-14)
(-0.001929857711 0.001499134426 5.65658631e-14)
(-0.001299961812 0.001117115065 3.806677196e-14)
(-0.002023921004 0.002392315235 8.142098107e-14)
(-0.002678777181 0.002865280109 1.079553114e-13)
(-0.002696684318 0.003296789532 1.241784453e-13)
(-0.002081172096 0.002810644336 9.563183578e-14)
(-0.001634193215 0.00384546844 1.308814168e-13)
(-0.002033116744 0.004338269128 1.634942182e-13)
(-0.001612075562 0.004572646701 1.723898801e-13)
(-0.001307060716 0.00408331166 1.390138005e-13)
(0 0 0)
(0 0 0)
(0 0 0)
(0 0 0)
(0 0 0)
(0 0 0)
(0 0 0)
(0 0 0)
(0 0 0)
(0 0 0)
(0 0 0)
(0 0 0)
(0 0 0)
(0 0 0)
(0 0 0)
(0 0 0)
(0 0 0)
(0 0 0)
(0 0 0)
(-2.201902534e-05 5.517569839e-06 3.747002708e-16)
(0 0 0)
(-0.0009374065506 0.0003374738978 1.891542478e-14)
(-0.001393358238 0.0004200599143 2.807476474e-14)
(-0.002180914788 0.0007042162704 4.692080058e-14)
(-0.001601197702 0.0006160036913 3.447242491e-14)
(-0.003662951762 0.001771550462 9.864331574e-14)
(-0.004446122248 0.001811309506 1.198208199e-13)
(-0.004974316509 0.002215592698 1.462996391e-13)
(-0.004183885194 0.002211362784 1.229710778e-13)
(-0.004771836305 0.003481271208 1.931649285e-13)
(-0.005441582609 0.003347244345 2.204902927e-13)
(-0.005205957623 0.003662220092 2.412514633e-13)
(-0.004610395389 0.003846620558 2.134126209e-13)
(-0.003193308285 0.004661869212 2.591121762e-13)
(-0.003527407971 0.004340238283 2.866318294e-13)
(-0.002729726534 0.004474237116 2.959160694e-13)
(-0.002483835675 0.004830707795 2.687849943e-13)
(0 0 0)
(0 0 0)
(0 0 0)
(0 0 0)
(0 0 0)
(0 0 0)
(0 0 0)
(0 0 0)
(0 0 0)
(0 0 0)
(0 0 0)
(0 0 0)
(0 0 0)
(0 0 0)
(0 0 0)
(0 0 0)
(0 0 0)
(-0.0001017712483 1.005066875e-05 1.637578961e-15)
(-0.0002314465859 1.213488149e-05 3.719247132e-15)
(-0.0008221434629 4.568030304e-05 1.393329896e-14)
(-0.0005527049137 5.759004844e-05 9.381384558e-15)
(-0.003250664762 0.0004081453872 6.535050279e-14)
(-0.003845861859 0.0002619253773 7.731315588e-14)
(-0.004959828092 0.0003644808019 1.063177324e-13)
(-0.004299700562 0.0005792721157 9.217626662e-14)
(-0.006801906172 0.001173742745 1.822569873e-13)
(-0.007512070714 0.0007105317148 2.011169009e-13)
(-0.007924849533 0.0008261082175 2.313982339e-13)
(-0.00724399162 0.001376884478 2.118721865e-13)
(-0.00718865175 0.001923119875 2.904204655e-13)
(-0.007631075017 0.001146306992 3.072264665e-13)
(-0.007057649864 0.001219318054 3.251982017e-13)
(-0.006672540449 0.002041812654 3.083366895e-13)
(-0.004245456701 0.002266514977 3.44474449e-13)
(-0.004382790404 0.001315599705 3.540084892e-13)
(-0.003316430446 0.001319888522 3.573669138e-13)
(-0.003235770891 0.002293963802 3.500394419e-13)
(0 0 0)
(0 0 0)
(0 0 0)
(0 0 0)
(0 0 0)
(0 0 0)
(0 0 0)
(0 0 0)
(0 0 0)
(0 0 0)
(0 0 0)
(0 0 0)
(0 0 0)
(0 0 0)
(-9.686516392e-06 -1.586400257e-06 1.526556659e-16)
(-2.643181792e-07 -3.209240051e-08 1.387778781e-17)
(0 0 0)
(-0.00072664578 -6.28782416e-05 1.169897512e-14)
(-0.0009171551335 -0.0001217973722 1.476596623e-14)
(-0.001903011411 -0.0002647395068 3.223810108e-14)
(-0.001623571947 -0.0001469143337 2.750577544e-14)
(-0.005276890301 -0.0005520693923 1.060262989e-13)
(-0.005743432402 -0.000931666569 1.1536605e-13)
(-0.006979228162 -0.001200115737 1.494637747e-13)
(-0.006613327556 -0.0007302651788 1.416783357e-13)
(-0.009158536849 -0.001237665361 2.448596881e-13)
(-0.009533293507 -0.002018804483 2.546990396e-13)
(-0.00979157503 -0.002255389871 2.850913949e-13)
(-0.009453866059 -0.001388557955 2.75474088e-13)
(-0.008554075556 -0.001715482152 3.411576577e-13)
(-0.008724784978 -0.002751964762 3.473055177e-13)
(-0.007857902575 -0.002827142931 3.56312202e-13)
(-0.007757613407 -0.001769295937 3.528011217e-13)
(-0.004551208219 -0.001777299539 0)
(-0.004607988244 -0.002846271024 0)
(-0.004052316208 -0.002843381779 0)
(-0.003466495133 -0.002816690572 0)
(-0.003433469177 -0.002287586352 0)
(-0.003422186125 -0.001771060337 0)
(0 0 0)
(0 0 0)
(0 0 0)
(0 0 0)
(0 0 0)
(0 0 0)
(0 0 0)
(0 0 0)
(0 0 0)
(0 0 0)
(0 0 0)
(0 0 0)
(0 0 0)
(0 0 0)
(-8.728088808e-05 -2.908441158e-05 1.276756478e-15)
(-4.973882972e-05 -1.446567441e-05 7.21644966e-16)
(-4.069069747e-05 -1.01140592e-05 5.967448757e-16)
(-0.001317796181 -0.000358837623 2.120525977e-14)
(-0.001366658474 -0.0004355637915 2.199629368e-14)
(-0.002530688415 -0.0008467284593 4.284073096e-14)
(-0.002463967609 -0.0007041670148 4.171663015e-14)
(-0.006632534394 -0.002227279992 1.330879851e-13)
(-0.006737142719 -0.002651576459 1.351280199e-13)
(-0.008023576422 -0.003358117933 1.715294573e-13)
(-0.007912728886 -0.002824571245 1.692257445e-13)
(-0.01028475149 -0.004551666587 2.740724314e-13)
(-0.01038532421 -0.005391892876 2.765704332e-13)
(-0.01052689256 -0.005950296426 3.053113318e-13)
(-0.01043817621 -0.005028942799 3.029798634e-13)
(-0.008975104141 -0.005909693251 3.554379013e-13)
(-0.009010196929 -0.006959632706 3.56312202e-13)
(-0.007987788828 -0.00702862648 0)
(-0.007973732524 -0.005983029599 3.592681708e-13)
(-0.004683078974 -0.0060103297 0)
(-0.004692528352 -0.006540330487 0)
(-0.004144409802 -0.00654374138 0)
(-0.004135018542 -0.006014574949 0)
(0 0 0)
(0 0 0)
(0 0 0)
(0 0 0)
(0 0 0)
(0 0 0)
(0 0 0)
(0 0 0)
(0 0 0)
(0 0 0)
(0 0 0)
(0 0 0)
(0 0 0)
(0 0 0)
(-0.0001432760227 -7.196248319e-05 2.095545959e-15)
(-0.0001294071375 -5.953398272e-05 1.887379142e-15)
(-0.0001135269777 -4.743205135e-05 1.665334537e-15)
(-0.001623729681 -0.0007437928909 2.611799665e-14)
(-0.001678954313 -0.0008469961415 2.700617507e-14)
(-0.002927945729 -0.00155161737 4.954370247e-14)
(-0.002858950508 -0.00137558232 4.83779683e-14)
(-0.007153686927 -0.004056248349 1.433991814e-13)
(-0.007238626291 -0.004521839445 1.45064516e-13)
(-0.008511353516 -0.005656990075 1.817435091e-13)
(-0.008428905635 -0.00508471523 1.800226634e-13)
(-0.01067331526 -0.007991020066 2.837036162e-13)
(-0.01073232612 -0.008852590266 2.850913949e-13)
(-0.01080790617 -0.009702842955 3.125000259e-13)
(-0.01075971325 -0.008768564404 3.113342917e-13)
(-0.009080210713 -0.01009349598 3.57686103e-13)
(-0.009096748486 -0.01113288916 3.579081476e-13)
(-0.008035004769 -0.01118805562 0)
(-0.008023880996 -0.01015077851 0)
(-0.004738562205 -0.01018943339 0)
(-0.004744440956 -0.0107084288 0)
(-0.004197728334 -0.01071478503 0)
(-0.004191777461 -0.01019579049 0)
(0 0 0)
(0 0 0)
(0 0 0)
(0 0 0)
(0 0 0)
(0 0 0)
(0 0 0)
(0 0 0)
(0 0 0)
(0 0 0)
(0 0 0)
(0 0 0)
(0 0 0)
(0 0 0)
(-0.0002113495942 -0.0001418131594 3.094746681e-15)
(-0.0001905463478 -0.0001198150266 2.789435349e-15)
(-0.0001720239642 -0.0001009150244 2.525757381e-15)
(-0.00181638615 -0.001168821537 2.922662112e-14)
(-0.001872054412 -0.001291322889 3.011479954e-14)
(-0.003166713464 -0.00229501447 5.358213873e-14)
(-0.003098330871 -0.002094677231 5.243028234e-14)
(-0.007446756341 -0.005937216686 1.491445856e-13)
(-0.007529025777 -0.006435238895 1.50754409e-13)
(-0.00879303285 -0.007996661673 1.875166689e-13)
(-0.008713520015 -0.007391928628 1.858790899e-13)
(-0.0108785583 -0.01144886602 2.884359418e-13)
(-0.01093466674 -0.0123346566 2.897404539e-13)
(-0.01097373183 -0.01346684354 3.163580509e-13)
(-0.01092823868 -0.01251347859 3.152755834e-13)
(-0.009140571186 -0.01424532658 3.583799923e-13)
(-0.00915508757 -0.01528401757 3.585465258e-13)
(-0.008077808258 -0.01532845632 0)
(-0.00806727037 -0.01429391322 0)
(-0.004784090047 -0.01433244621 0)
(-0.004789631991 -0.01484942595 0)
(-0.004243663186 -0.01485565302 0)
(-0.004240843844 -0.01459713969 0)
(-0.004238027103 -0.01433884272 0)
(0 0 0)
(0 0 0)
(0 0 0)
(0 0 0)
(0 0 0)
(0 0 0)
(0 0 0)
(0 0 0)
(0 0 0)
(0 0 0)
(0 0 0)
(0 0 0)
(0 0 0)
(0 0 0)
(-0.0003026645823 -0.0002541799601 4.440892099e-15)
(-0.0002779286626 -0.0002216783172 4.066191828e-15)
(-0.000254003646 -0.0001918752426 3.719247132e-15)
(-0.002046093609 -0.001695641888 3.291811268e-14)
(-0.002107403548 -0.001844017454 3.390343561e-14)
(-0.003452695321 -0.003174302416 5.841160888e-14)
(-0.003378676453 -0.002941907105 5.714873019e-14)
(-0.007780621991 -0.007989878165 1.556949014e-13)
(-0.007867333574 -0.008529836565 1.573879915e-13)
(-0.009118680496 -0.01051807952 1.942057626e-13)
(-0.00903542816 -0.009871508798 1.925126725e-13)
(-0.01110396531 -0.01503863368 2.936678678e-13)
(-0.01116140233 -0.01595607032 2.950001354e-13)
(-0.01115616309 -0.01734312452 3.206462873e-13)
(-0.01111018804 -0.01636448205 3.195776976e-13)
(-0.009196089462 -0.01840284394 3.589351039e-13)
(-0.009208872518 -0.01944241784 3.590322484e-13)
(-0.008118882839 -0.01946904613 0)
(-0.008108794499 -0.01843389651 0)
(-0.004827631862 -0.01847226098 0)
(-0.004832867057 -0.0189897253 0)
(-0.00428783613 -0.01899596514 0)
(-0.00428515843 -0.0187372337 0)
(-0.004282457268 -0.01847855064 0)
(0 0 0)
(0 0 0)
(0 0 0)
(0 0 0)
(0 0 0)
(0 0 0)
(0 0 0)
(0 0 0)
(0 0 0)
(0 0 0)
(0 0 0)
(0 0 0)
(0 0 0)
(0 0 0)
(-0.0003825227855 -0.0003858004143 5.606626274e-15)
(-0.0003955921873 -0.00038228502 5.800915304e-15)
(-0.0003611210053 -0.0003337400809 5.287437155e-15)
(-0.002307799339 -0.002339666809 3.712308239e-14)
(-0.002386152149 -0.002529431358 3.838596108e-14)
(-0.003785309755 -0.004215737134 6.400435737e-14)
(-0.003692426915 -0.003933005076 6.245004514e-14)
(-0.008143867035 -0.01022730365 1.627725732e-13)
(-0.008249162606 -0.01083056563 1.648264858e-13)
(-0.00948334943 -0.01324358493 2.016720124e-13)
(-0.009383149336 -0.01253447675 1.996180998e-13)
(-0.01134107482 -0.01876360112 2.99149594e-13)
(-0.01140764159 -0.01972601699 3.006900284e-13)
(-0.01135085441 -0.02133551871 3.252120795e-13)
(-0.01129871832 -0.02032193115 3.239908342e-13)
(-0.009244546873 -0.02255776149 3.592404152e-13)
(-0.009255606638 -0.02359487374 3.592681708e-13)
(-0.008158428114 -0.02360842806 0)
(-0.008148559031 -0.02257351625 0)
(-0.004867944706 -0.02261148942 0)
(-0.00487272255 -0.02312891115 0)
(-0.004328723928 -0.02313501836 0)
(-0.004326285769 -0.02287621191 0)
(-0.004323825881 -0.02261759808 0)
(-0.004185696557 -0.009675980016 0)
(-0.004732553713 -0.009669646087 0)
(-0.004235210361 -0.01408054576 0)
(-0.004232390152 -0.0138219603 0)
(-0.004778547814 -0.01381544243 0)
(-0.004279756974 -0.0182199397 0)
(-0.004277055233 -0.01796120855 0)
(-0.004822349164 -0.01795484533 0)
(-0.004321366571 -0.02235903233 0)
(-0.004318882643 -0.02210041879 0)
(-0.004863120516 -0.02209421252 0)
(-0.004124153614 -0.005484828497 0)
(-0.004672355812 -0.005480375485 0)
(-0.0006146244786 -0.001784231289 0)
(-0.0006223868517 -0.002298106681 0)
(-0.008056659204 -0.01325927481 0)
(-0.00912642223 -0.01320807791 3.582412145e-13)
(-0.005325067532 -0.01380904042 0)
(-0.005330537932 -0.01432606911 0)
(-0.005285563315 -0.01018307369 0)
(-0.005291393407 -0.01070202159 0)
(-0.008098585089 -0.01739867621 0)
(-0.009182959301 -0.01736324654 3.588102038e-13)
(-0.005368172279 -0.01794849979 0)
(-0.005373383144 -0.01846594035 0)
(-0.005335984002 -0.01484307405 0)
(-0.004806154961 -0.01640180907 0)
(-0.004260523304 -0.01640808017 0)
(-0.004257699916 -0.01614923027 0)
(-0.004254901724 -0.01589047624 0)
(-0.004800677335 -0.01588417936 0)
(-0.002624450238 -0.01642685957 0)
(-0.00262338699 -0.01629741841 0)
(-0.002622747147 -0.0161679962 0)
(-0.002895303625 -0.01616488781 0)
(-0.002897910647 -0.01642374031 0)
(-0.002601639011 -0.01435781826 0)
(-0.00287443051 -0.01435465896 0)
(-0.002877462462 -0.01461285716 0)
(-0.002604862133 -0.01461591799 0)
(-0.002603189314 -0.01448677268 0)
(-0.008138715723 -0.02153874839 0)
(-0.009232387002 -0.02151856969 3.591571485e-13)
(-0.005408295688 -0.02208797095 0)
(-0.005413048045 -0.02260527276 0)
(-0.005378522177 -0.01898340582 0)
(-0.004848287333 -0.02054238615 0)
(-0.004303642791 -0.02054876562 0)
(-0.004301060966 -0.02029000898 0)
(-0.004298454232 -0.02003118052 0)
(-0.004843220134 -0.02002489578 0)
(-0.002673097935 -0.02056738237 0)
(-0.002670924872 -0.02043802669 0)
(-0.002808041409 -0.0204364023 0)
(-0.002809813281 -0.02056578686 0)
(-0.002651906159 -0.01849704725 0)
(-0.002922752093 -0.0184940556 0)
(-0.002925717703 -0.01875273549 0)
(-0.002655088424 -0.01875574858 0)
(-0.002653701204 -0.0186263594 0)
(-0.005417778096 -0.0231227191 0)
(-0.004886693446 -0.02468101237 0)
(-0.004614670094 -0.02468406626 0)
(-0.004612351272 -0.02442518625 0)
(-0.004884398953 -0.02442215611 0)
(-0.00270269918 -0.02470601827 0)
(-0.002704004034 -0.02457635628 0)
(-0.002846992077 -0.02457432469 0)
(-0.002846938299 -0.02470385141 0)
(-0.00268816487 -0.0226362523 0)
(-0.002829055604 -0.02263436615 0)
(-0.002831257318 -0.02276350509 0)
(-0.002691289171 -0.02276533207 0)
(-0.002526457585 -0.008132215737 0)
(-0.002529832095 -0.008392908014 0)
(-0.002256275616 -0.008395836074 0)
(-0.002254585335 -0.008265438277 0)
(-0.00225305748 -0.008135351102 0)
(-0.002552242347 -0.01021499622 0)
(-0.002277637509 -0.01021832159 0)
(-0.002276189123 -0.01008864461 0)
(-0.002275457623 -0.009958598358 0)
(-0.002549384802 -0.009955305179 0)
(-0.002488420459 -0.006017881726 0)
(-0.002494818391 -0.006284662674 0)
(-0.002219459142 -0.006282236125 0)
(-0.002213062871 -0.006015993267 0)
(-0.002249448062 -0.007873719117 0)
(-0.00252286021 -0.007870785578 0)
(-0.002599969083 -0.01422891336 0)
(-0.002598464261 -0.014099742 0)
(-0.002871398558 -0.01409646075 0)
(-0.002578225505 -0.01228827926 0)
(-0.002850632063 -0.01228510054 0)
(-0.002853669506 -0.01254375552 0)
(-0.002581334781 -0.01254690933 0)
(-0.004761659609 -0.012262679 0)
(-0.004767329561 -0.01278030639 0)
(-0.004220978127 -0.01278670637 0)
(-0.004215236343 -0.01226910388 0)
(-0.002309748971 -0.01254995797 0)
(-0.002308234243 -0.01242076267 0)
(-0.002306341209 -0.01229149979 0)
(-0.002464544111 -0.01435944238 0)
(-0.002462799656 -0.01423053838 0)
(-0.002555336253 -0.0104743478 0)
(-0.002280773243 -0.01047755245 0)
(-0.002278777017 -0.0103479061 0)
(-0.00230465348 -0.01216211423 0)
(-0.002302759381 -0.01203256283 0)
(-0.002574992846 -0.01202938619 0)
(-0.002650184103 -0.01836780636 0)
(-0.002648342421 -0.018238615 0)
(-0.002919643973 -0.0182355217 0)
(-0.002900736637 -0.01668280658 0)
(-0.002626940814 -0.01668602605 0)
(-0.002625236059 -0.01655642429 0)
(-0.004811610858 -0.01691963139 0)
(-0.004266076809 -0.01692602155 0)
(-0.004263300635 -0.01666709894 0)
(-0.002486182996 -0.01655816813 0)
(-0.002485637293 -0.01642857648 0)
(-0.002517266775 -0.01849852164 0)
(-0.00251515074 -0.01836930953 0)
(-0.002466291258 -0.0144883704 0)
(-0.002485607218 -0.01629907481 0)
(-0.002685317039 -0.02250716921 0)
(-0.002826974382 -0.02250524979 0)
(-0.002811536493 -0.02069512391 0)
(-0.002675268304 -0.02069671405 0)
(-0.004853277786 -0.02105949275 0)
(-0.004308751424 -0.02106570248 0)
(-0.004306222593 -0.02080735396 0)
(-0.002538103397 -0.02069831497 0)
(-0.00253511651 -0.02056906524 0)
(-0.002543672745 -0.02263837411 0)
(-0.002539493925 -0.02250937915 0)
(-0.002519263762 -0.01862783135 0)
(-0.00253213116 -0.02043974337 0)
(-0.002848350427 -0.02483331243 0)
(-0.002704452108 -0.02483542709 0)
(-0.004888987072 -0.02493979651 0)
(-0.00461696372 -0.0249428504 0)
(-0.002557947393 -0.0248377414 0)
(-0.002555120712 -0.02470841762 0)
(-0.002548293626 -0.0227673397 0)
(-0.002557686837 -0.02457866834 0)
(-0.008012428509 -0.009112158885 0)
(-0.009060933204 -0.009051754829 3.573807916e-13)
(-0.005279627523 -0.009663333598 0)
(-0.005231185264 -0.006005899 0)
(-0.005240385223 -0.006535153087 0)
(-0.004713992519 -0.008109723172 0)
(-0.00416679151 -0.008115455321 0)
(-0.004159876627 -0.007592274256 0)
(-0.004707125255 -0.007586503064 0)
(-0.002796156183 -0.007867788518 0)
(-0.002799755528 -0.008129182586 0)
(-0.002762428382 -0.006016304812 0)
(-0.002769011025 -0.006283850068 0)
(-0.004209442142 -0.01175114136 0)
(-0.004755962149 -0.0117447634 0)
(-0.002847567689 -0.01202620545 0)
(-0.002825779108 -0.01021182795 0)
(-0.002828873014 -0.01047117953 0)
(-0.002822729237 -0.009952139226 0)
(-0.002803106142 -0.008389887173 0)
(-0.004720219863 -0.008629714626 0)
(-0.004173167203 -0.008635786419 0)
(-0.001450838447 -0.00918664288 0)
(-0.001461509537 -0.009316665819 0)
(-0.001340412291 -0.009317977396 0)
(-0.001328545313 -0.009187680305 0)
(-0.001383912247 -0.006005511088 0)
(-0.001389909482 -0.006143362021 0)
(-0.00125150718 -0.006141436349 0)
(-0.001244547077 -0.006001693894 0)
(-0.001410043938 -0.007090549245 0)
(-0.001272581521 -0.007090403326 0)
(-0.001269739498 -0.006957403367 0)
(-0.001409197694 -0.006957758521 0)
(-0.002384258979 -0.003857713281 0)
(-0.002432166635 -0.00440987971 0)
(-0.002151985361 -0.004405556339 0)
(-0.001863080515 -0.004393804797 0)
(-0.001838691314 -0.004120107192 0)
(-0.001814949191 -0.003850633586 0)
(-0.00220426102 -0.005746053921 0)
(-0.002482454349 -0.0057534197 0)
(-0.002714123816 -0.02367032149 0)
(-0.002847288545 -0.02366898505 0)
(-0.002849372657 -0.02379834181 0)
(-0.002717048775 -0.02379962005 0)
(-0.003791116768 -0.02365876833 0)
(-0.003793576367 -0.02391735813 0)
(-0.003523090465 -0.02392029736 0)
(-0.003520534993 -0.02366173276 0)
(-0.003800905926 -0.02469303191 0)
(-0.003530516187 -0.02469596999 0)
(-0.003528053409 -0.02443711575 0)
(-0.003798491518 -0.02443420114 0)
(-0.001422801244 -0.008144103866 0)
(-0.001404968353 -0.008277761132 0)
(-0.001234541524 -0.008311630108 0)
(-0.001298300884 -0.008143943976 0)
(-0.001315970212 -0.009058281362 0)
(-0.001439389989 -0.00905715826 0)
(-0.002540119373 -0.009174605382 0)
(-0.00226710737 -0.009177623073 0)
(-0.002265234987 -0.009047277958 0)
(-0.00226342733 -0.008917316772 0)
(-0.002536700221 -0.008914199768 0)
(-0.001576833769 -0.009055553986 0)
(-0.001585767476 -0.009185261192 0)
(-0.001559061926 -0.008142689337 0)
(-0.00155016584 -0.008275111492 0)
(-0.001408556419 -0.01023261684 0)
(-0.001400632489 -0.01011030311 0)
(-0.001546118558 -0.01009965771 0)
(-0.001542213562 -0.01022963948 0)
(-0.001593968625 -0.009315434045 0)
(-0.002543444964 -0.009435228519 0)
(-0.002270626351 -0.009438532415 0)
(-0.002268946871 -0.00930823307 0)
(-0.002510638378 -0.007081371641 0)
(-0.00223705518 -0.007083677278 0)
(-0.002231768259 -0.006816910385 0)
(-0.002505336854 -0.006814790064 0)
(-0.001548086508 -0.006956752406 0)
(-0.001549136544 -0.007089694563 0)
(-0.001524593816 -0.006012226613 0)
(-0.001528455434 -0.006145836578 0)
(-0.00143098462 -0.008011798479 0)
(-0.001564038549 -0.00801084568 0)
(-0.001548694037 -0.007222286787 0)
(-0.001407773585 -0.007223100929 0)
(-0.002515064934 -0.007345773312 0)
(-0.002241452622 -0.007348257226 0)
(-0.001269469983 -0.00722378503 0)
(-0.001304822666 -0.008011826874 0)
(-0.002589374527 -0.01332365657 0)
(-0.002451928921 -0.01332530896 0)
(-0.002450965684 -0.01319598681 0)
(-0.002587988463 -0.01319436355 0)
(-0.001524219909 -0.01229972437 0)
(-0.001644990202 -0.01229841672 0)
(-0.001650975348 -0.01242746209 0)
(-0.001530671445 -0.01242876413 0)
(-0.002590616925 -0.0134529994 0)
(-0.002453039095 -0.01345465338 0)
(-0.002565219568 -0.01125244339 0)
(-0.002291864557 -0.01125572969 0)
(-0.002289869002 -0.01112593908 0)
(-0.002288148089 -0.01099619325 0)
(-0.002561908428 -0.01099302229 0)
(-0.001470770111 -0.01126596164 0)
(-0.00146387256 -0.0111364223 0)
(-0.001588447054 -0.0111349487 0)
(-0.001594998129 -0.01126446815 0)
(-0.001546339309 -0.01035901978 0)
(-0.001417002835 -0.01036079108 0)
(-0.001517827897 -0.0121706358 0)
(-0.001639001496 -0.01216927521 0)
(-0.001601381878 -0.0113938694 0)
(-0.001477583899 -0.01139533367 0)
(-0.00256850262 -0.01151152821 0)
(-0.00229551274 -0.01151478608 0)
(-0.002293612874 -0.01138535498 0)
(-0.002637442027 -0.01746211855 0)
(-0.002499818231 -0.01746374903 0)
(-0.002497592856 -0.01733444206 0)
(-0.002635415902 -0.01733278514 0)
(-0.002639127641 -0.01759152819 0)
(-0.002502011104 -0.01759315257 0)
(-0.002614622983 -0.01539182703 0)
(-0.002478842243 -0.01539336323 0)
(-0.002477049602 -0.01526405105 0)
(-0.002612995934 -0.01526248883 0)
(-0.002616274362 -0.01552118899 0)
(-0.002480618634 -0.01552272368 0)
(-0.002688550692 -0.02160114507 0)
(-0.002555652815 -0.0216024783 0)
(-0.002555021721 -0.02147298385 0)
(-0.00268764313 -0.02147165395 0)
(-0.002688165441 -0.02173069982 0)
(-0.002553631547 -0.02173214889 0)
(-0.002657394839 -0.01953239643 0)
(-0.002514699225 -0.01953435238 0)
(-0.002515180928 -0.01940482051 0)
(-0.002656773651 -0.01940292591 0)
(-0.002658630891 -0.01966181148 0)
(-0.002515709295 -0.01966377013 0)
(-0.003803343796 -0.02495181432 0)
(-0.00353305022 -0.02495475124 0)
(-0.002582030436 -0.02367157291 0)
(-0.00257734387 -0.02354234361 0)
(-0.002710967488 -0.02354097762 0)
(-0.00258637745 -0.0238007582 0)
(-0.001309641507 -0.00490405915 0)
(-0.001335903329 -0.005181321636 0)
(-0.001047043301 -0.005170298095 0)
(-0.001011413851 -0.004891034742 0)
(-0.001236211651 -0.005861551768 0)
(-0.001376034487 -0.005865437756 0)
(-0.002796479155 -0.01953065222 0)
(-0.002797842624 -0.01966006573 0)
(-0.003748979141 -0.01951975418 0)
(-0.003751730119 -0.01977858091 0)
(-0.003479971504 -0.01978165567 0)
(-0.003477172734 -0.01952285356 0)
(-0.003759861981 -0.02055499043 0)
(-0.003488319733 -0.02055806258 0)
(-0.003485545293 -0.02029928422 0)
(-0.003757159663 -0.0202962112 0)
(-0.003737955237 -0.01848478412 0)
(-0.003740728521 -0.01874346632 0)
(-0.00346877787 -0.01874656743 0)
(-0.003465956504 -0.01848788581 0)
(-0.003474398005 -0.01926405116 0)
(-0.003746252494 -0.0192609512 0)
(-0.002795283972 -0.01940123668 0)
(-0.003780836392 -0.02262364507 0)
(-0.003783416483 -0.02288225746 0)
(-0.003512426304 -0.02288525084 0)
(-0.003509726299 -0.02262666394 0)
(-0.003517855848 -0.02340288113 0)
(-0.003788581868 -0.02339991496 0)
(-0.002845059611 -0.02353958195 0)
(-0.002910116593 -0.01745903278 0)
(-0.002913301171 -0.01771792643 0)
(-0.002641095688 -0.0177210306 0)
(-0.003726713231 -0.01744967242 0)
(-0.003729561239 -0.01770857011 0)
(-0.00345739451 -0.01771169786 0)
(-0.003454498421 -0.01745280074 0)
(-0.003463112543 -0.01822932468 0)
(-0.003735159068 -0.01822619838 0)
(-0.002120864224 -0.01850249377 0)
(-0.002115240267 -0.01837349214 0)
(-0.002247678967 -0.01837216444 0)
(-0.002251743259 -0.0185012329 0)
(-0.002098374164 -0.01798636697 0)
(-0.002235264718 -0.0179847453 0)
(-0.00223940556 -0.01811398116 0)
(-0.002103982737 -0.018115489 0)
(-0.00264472829 -0.017979991 0)
(-0.002646523913 -0.01810935123 0)
(-0.002510805679 -0.01811088667 0)
(-0.002508625693 -0.01798155511 0)
(-0.002822844178 -0.02159969889 0)
(-0.002823463252 -0.02172919348 0)
(-0.003770467367 -0.02158914802 0)
(-0.003772976781 -0.02184788148 0)
(-0.003501819474 -0.02185097305 0)
(-0.003499213607 -0.0215922167 0)
(-0.0035070512 -0.02236814887 0)
(-0.003778257456 -0.02236512884 0)
(-0.003762537946 -0.02081357762 0)
(-0.00349106782 -0.0208166489 0)
(-0.003496511289 -0.02133343748 0)
(-0.00376783746 -0.02133039196 0)
(-0.002821672747 -0.02147025903 0)
(-0.002681787663 -0.0210837953 0)
(-0.002547143471 -0.02108526974 0)
(-0.002544108029 -0.02095638126 0)
(-0.002679607782 -0.02095487249 0)
(-0.002145929702 -0.02108944398 0)
(-0.002138315279 -0.02096087503 0)
(-0.002273108523 -0.0209593988 0)
(-0.002279204729 -0.02108808218 0)
(-0.002116784421 -0.02057433492 0)
(-0.002255518032 -0.02057261896 0)
(-0.002261337875 -0.02070171441 0)
(-0.002123923522 -0.02070336642 0)
(-0.002127710127 -0.02264433662 0)
(-0.00211894636 -0.02251556509 0)
(-0.00224500301 -0.02251397749 0)
(-0.0022529016 -0.02264278347 0)
(-0.002093249418 -0.02213688942 0)
(-0.002237131012 -0.02212638353 0)
(-0.002233509591 -0.02225595315 0)
(-0.00210151914 -0.0222587662 0)
(-0.002682250006 -0.022119253 0)
(-0.002681874464 -0.02224861528 0)
(-0.00253500856 -0.02225088585 0)
(-0.002536890589 -0.02212143332 0)
(-0.002656747375 -0.01901454035 0)
(-0.002521216369 -0.01901604949 0)
(-0.002521696535 -0.01888658977 0)
(-0.00265628303 -0.01888511603 0)
(-0.002128288084 -0.01901981155 0)
(-0.00213252831 -0.01889011427 0)
(-0.002258823265 -0.01888914896 0)
(-0.002254803925 -0.01901881953 0)
(-0.002255484735 -0.01863044951 0)
(-0.002126210465 -0.01863159491 0)
(-0.002109645032 -0.02044527938 0)
(-0.002249707228 -0.02044347531 0)
(-0.002088192629 -0.02005806508 0)
(-0.002232305778 -0.02005601996 0)
(-0.002238085329 -0.02018516398 0)
(-0.002095346443 -0.02018712044 0)
(-0.002664431551 -0.02004991122 0)
(-0.002666583266 -0.02017929121 0)
(-0.002526174884 -0.02018109944 0)
(-0.002523227999 -0.02005177709 0)
(-0.002701132126 -0.02315307064 0)
(-0.00256282644 -0.02315478146 0)
(-0.002557952645 -0.02302557846 0)
(-0.002697827323 -0.02302377665 0)
(-0.002164376211 -0.0231594274 0)
(-0.002155211923 -0.02303054047 0)
(-0.002278141073 -0.02302920687 0)
(-0.002286606065 -0.02315812625 0)
(-0.002261224554 -0.02277148816 0)
(-0.00213686556 -0.02277288704 0)
(-0.00223734484 -0.02418756957 0)
(-0.002343981936 -0.0241888603 0)
(-0.002329574902 -0.02431928091 0)
(-0.002246444084 -0.02430604615 0)
(-0.002718645751 -0.02418685665 0)
(-0.002714265799 -0.02431653156 0)
(-0.002579188585 -0.02431798717 0)
(-0.002588250604 -0.02418796744 0)
(-0.001480233831 -0.009705355566 0)
(-0.001371288446 -0.009704260899 0)
(-0.00136099494 -0.009576445487 0)
(-0.001478243662 -0.009575612972 0)
(-0.001465392738 -0.009836671027 0)
(-0.001380658023 -0.009823623862 0)
(-0.001402594259 -0.006551483801 0)
(-0.001265256786 -0.006551730704 0)
(-0.001260876116 -0.006414745884 0)
(-0.001398557014 -0.006414865133 0)
(-0.0009836346916 -0.006411959661 0)
(-0.0009923116297 -0.006547108751 0)
(-0.0009634023807 -0.005989032831 0)
(-0.0009729804847 -0.00613254104 0)
(-0.001000428077 -0.00668203616 0)
(-0.0009008639635 -0.006666277163 0)
(-0.001405840612 -0.006688515919 0)
(-0.001267850408 -0.00668806858 0)
(-0.001404353423 -0.008670011095 0)
(-0.00127665893 -0.008671762648 0)
(-0.001262392544 -0.008543682424 0)
(-0.001394979678 -0.008540501532 0)
(-0.001415866305 -0.008799254499 0)
(-0.001290194596 -0.008800861513 0)
(-0.001550334141 -0.00866751073 0)
(-0.001558607977 -0.008797129693 0)
(-0.001983354399 -0.008660405426 0)
(-0.001985882516 -0.00879069457 0)
(-0.001845516449 -0.008792622506 0)
(-0.001841931985 -0.008662466283 0)
(-0.001994136814 -0.009180688354 0)
(-0.001857711782 -0.009182232293 0)
(-0.001853653717 -0.009052081764 0)
(-0.001991375502 -0.009050402015 0)
(-0.001978178675 -0.008138287846 0)
(-0.001978889862 -0.008268644516 0)
(-0.001838444379 -0.008270366628 0)
(-0.001839221414 -0.008139400578 0)
(-0.001839298181 -0.008531986057 0)
(-0.001981246509 -0.008529870789 0)
(-0.001544476871 -0.008537502052 0)
(-0.001602151943 -0.009704923755 0)
(-0.001587049095 -0.009836266407 0)
(-0.002000048487 -0.009701222193 0)
(-0.001998660081 -0.009831534376 0)
(-0.001859537011 -0.009833255016 0)
(-0.001864065226 -0.009702712732 0)
(-0.001994589385 -0.01022213317 0)
(-0.001846447498 -0.01022446717 0)
(-0.001848314708 -0.01009458202 0)
(-0.00199488068 -0.01009236315 0)
(-0.001996723982 -0.009311289362 0)
(-0.001861421074 -0.009312771722 0)
(-0.001865522588 -0.009572736337 0)
(-0.002000095525 -0.009571334886 0)
(-0.001604555932 -0.009574887892 0)
(-0.00140764425 -0.007619742737 0)
(-0.001551682184 -0.007617441251 0)
(-0.001557547849 -0.007748748215 0)
(-0.001417596651 -0.007750385038 0)
(-0.00197150331 -0.007613629992 0)
(-0.001973622235 -0.007745282551 0)
(-0.001836090926 -0.007746806128 0)
(-0.001833483483 -0.007615118566 0)
(-0.001839411851 -0.008008641148 0)
(-0.001977055563 -0.008007467266 0)
(-0.001262921371 -0.007622670393 0)
(-0.001253847405 -0.007492296444 0)
(-0.001402024517 -0.007488692494 0)
(-0.001278844183 -0.007752132479 0)
(-0.001550765061 -0.01281575433 0)