/*--------------------------------*- C++ -*----------------------------------*\
| =========                 |                                                 |
| \\      /  F ield         | OpenFOAM: The Open Source CFD Toolbox           |
|  \\    /   O peration     | Version:  v2012                                 |
|   \\  /    A nd           | Website:  www.openfoam.com                      |
|    \\/     M anipulation  |                                                 |
\*---------------------------------------------------------------------------*/
FoamFile
{
    version     2.0;
    format      ascii;
    class       volScalarField;
    location    "2.19";
    object      k;
}
// * * * * * * * * * * * * * * * * * * * * * * * * * * * * * * * * * * * * * //

dimensions      [0 2 -2 0 0 0 0];


internalField   nonuniform List<scalar> 
3259
(
36.99251045
36.99673702
36.99324113
36.9848432
36.97477054
36.96619845
36.96073227
36.95721588
36.91088133
36.90945962
36.90879357
36.90842321
36.9818388
37.00141458
36.98982025
36.95075267
36.90210016
36.86003416
36.81009424
36.79029236
36.73561522
36.73096143
36.7286856
36.72762558
37.01267655
37.04403786
37.02599396
36.96306582
36.8670655
36.77185258
36.68040115
36.63633613
36.56809892
36.55763126
36.55261765
36.55060348
37.14481935
37.17075627
37.12938928
37.03636442
36.90078834
36.75098952
36.59168558
36.50596782
36.41119618
36.39135346
36.38157388
36.37772213
37.46504146
37.4659147
37.36010001
37.19972143
37.00810607
36.79404001
36.56875396
36.40894428
36.27024121
36.23228325
36.21462835
36.20775063
38.1881481
38.11702666
37.81246694
37.50542296
37.2100841
36.90851144
36.59233766
36.35310336
36.14574393
36.07955962
36.05031706
36.03875815
39.93856218
39.74513136
38.64867412
38.00880979
37.5278247
37.09648483
36.65827204
36.34205166
36.03778314
35.93335226
35.88742671
35.86931893
42.4572973
40.03268708
38.73029282
37.96769555
37.35761369
36.76521319
36.35547616
35.94743813
35.7943378
35.72637342
35.69982488
46.90623137
41.76479197
39.61238289
38.49090714
37.67068581
36.90048257
36.38486785
35.8734117
35.66478281
35.57014072
35.53350182
50.07736733
43.35946801
40.51998022
39.05713543
38.00883316
37.04978606
36.42418553
35.81569748
35.54831178
35.42395765
35.37572523
51.65973847
44.5743264
41.36169365
39.60666042
38.33995
37.19596908
36.4692734
35.77081685
35.44778969
35.29299884
35.23230794
52.33604937
45.42701672
42.06509082
40.08823631
38.62856515
37.32559495
36.51380267
35.73933521
35.36373752
35.18018845
35.10687795
47.40283913
42.81805071
50.92460966
47.84724759
52.60234525
51.22250359
53.27729666
52.71535696
53.31620542
39.88207582
42.3578598
39.67593665
50.71072667
44.32088785
46.4044263
42.15480356
40.55341988
55.2737368
56.50645601
49.78381305
44.13809643
42.69279431
54.44954644
53.90719857
51.53133255
45.58426001
44.56244247
55.71971425
55.00482882
39.42422803
56.43041266
56.21186844
56.38426668
51.03162541
45.39461798
50.12534499
55.06097593
53.97494072
55.100987
49.57198482
55.96393755
55.28520504
55.27689136
56.03515678
49.3326895
54.86987045
54.5295874
52.14011801
55.78834292
56.00481085
55.25271364
55.74322504
51.95397376
56.17520863
55.79556953
40.1143302
40.83231445
56.45721872
39.34162484
60.76651349
46.78218143
45.88439452
52.29727146
46.51529285
45.87253889
52.32787158
49.77848777
48.36322377
43.94920836
49.21751212
44.78870081
47.95623506
44.2279759
53.07646733
56.15647592
56.27460903
56.02344078
56.14491399
53.00783491
41.46428934
43.81702567
41.52935249
41.51474466
64.967556
47.85034623
60.39506451
45.97055296
57.17961848
47.03553369
56.47576897
56.57020369
54.11239424
54.07757491
40.86131541
43.85668055
55.45767173
41.22906244
42.86609763
45.24464653
41.32401971
55.36994381
52.45000598
50.55366722
47.63734709
54.36575287
53.98074403
54.62585247
54.7279294
55.62712971
53.43017379
52.8246388
54.03892926
53.59983294
55.57497788
56.21138207
51.48519743
50.4673275
52.59376291
51.7868894
56.25381352
55.0129377
45.78674426
54.95375641
43.36106464
47.22315602
55.98556934
43.54406266
40.89513268
53.55053667
52.97507263
59.50442136
39.66642626
40.05828553
52.99222824
40.31966206
43.02941209
43.08695306
45.97637241
42.84751763
43.14665569
55.8629941
58.5285941
57.53467715
56.70196702
54.23706608
45.39191046
45.8042942
48.24220425
47.49794907
53.81733846
55.70925493
59.56083979
58.7781104
52.53312772
48.40790615
46.99334738
50.08957568
48.85327246
52.8900615
54.21886689
49.43870299
48.57785608
54.82556392
46.05530365
46.39931293
54.71093104
55.89795632
54.86179475
54.76001403
55.30254654
54.45389104
54.15641662
54.71744617
54.52910908
55.31843265
56.03290486
47.78407985
51.39027987
48.32007327
54.67198125
53.6911426
53.62991598
46.08298381
46.07816211
40.18432096
39.68709966
52.59187887
57.0294223
48.10147496
57.49388778
42.72244129
40.41236417
45.97756743
45.45782579
49.16450727
65.48561538
54.44583207
50.98869871
58.13355942
55.21414255
50.32394942
47.43464632
52.30777809
55.6855847
55.0455237
56.0901375
56.69890201
57.20796899
56.0986342
46.23621817
45.56016494
54.17720694
46.54107884
46.93957039
45.07900412
46.28615884
47.08518369
53.86467164
47.37458383
46.49022445
41.10503968
41.40006174
41.41387995
51.1888791
50.37367863
42.75232722
48.6487383
47.28075327
50.04688721
49.08519627
42.22580579
41.30813651
42.06500211
40.66111687
59.2030717
58.80113321
55.38717725
60.32994014
61.06305259
61.3003068
59.97765568
59.00559991
61.26772318
59.85622855
52.72865078
58.07498367
59.24996455
50.59362176
49.63515591
54.31603792
54.83817241
52.02149169
50.95302608
44.98105227
44.23024776
46.87896873
45.47008949
46.30939475
43.95017576
44.74575345
44.00699306
43.73934986
49.15327854
42.03262461
48.37530499
44.92542706
48.13860297
41.59349863
53.3038087
42.04136989
40.05802384
38.85738969
51.49679307
51.12536125
46.70593056
51.43380752
56.2829841
56.21348735
53.44822017
44.90594211
44.37948109
47.08076453
51.96722023
44.83766184
44.95943919
41.00215033
41.33999612
43.61647301
49.38780445
52.74237595
55.3732955
44.46727304
42.69318238
40.32675559
51.99453706
53.42691744
56.34161167
56.13179424
57.80354778
52.34234784
45.45114058
42.21359564
54.4482233
49.24962076
45.01143579
61.23532731
45.79161432
41.09495594
42.24831484
51.70864745
40.07574693
40.79545567
50.01863302
46.50321023
44.989366
46.85247531
46.51850611
40.21047896
39.9937769
42.59383114
42.84048273
45.40479736
62.30934914
58.00340294
55.65907236
65.25679705
62.71215405
40.85323061
42.41855006
41.74261962
46.98515791
46.38138592
42.44639349
52.19280873
51.47272772
41.61610873
45.38813376
41.99269514
42.19089869
44.27268168
39.82187163
40.25518389
45.90549159
45.80548474
42.516802
42.84470255
45.707016
45.87461941
46.30200065
54.76896928
46.57787386
47.92596625
53.7191106
51.39800634
50.83100541
43.37578172
42.26942063
39.86598795
54.36349573
53.78978083
58.17595667
40.92807645
49.86779509
46.11644672
50.10583926
49.29090985
41.77756054
43.9996574
44.65400612
48.47902369
53.80210636
54.14249078
53.2773055
53.54598705
58.24247098
57.45950776
57.69899107
56.96053646
57.21029018
57.86310232
47.96861499
48.29062068
48.51635025
47.937055
48.07239846
47.84649788
59.25165258
58.21431941
58.21091963
57.92324476
58.11162313
59.01799549
49.02626741
49.27556992
49.53143594
48.76572228
49.01132605
48.78417196
52.59845919
52.78253115
51.93628834
52.12514382
56.08266651
55.44373194
53.745967
44.33267607
55.97236366
58.42252118
63.72082018
58.7571421
60.36911323
56.72053292
49.41420677
62.48676314
57.41552308
46.34754901
46.49577252
52.65777781
43.76543581
46.95822406
54.10864177
48.94142443
50.06797524
48.41609469
61.69753263
58.4515261
62.03349142
57.01851805
59.54041629
61.93792982
63.14326332
62.49507445
55.19057801
55.34738659
55.60649345
54.75015481
54.91236174
54.92836846
56.82048135
56.44285711
56.70165144
55.90231891
56.16342027
56.4565182
46.00625822
48.73646984
48.72685996
46.65378458
46.89179332
45.49744632
46.62347499
46.38404862
46.1159525
47.46505292
47.82278863
46.92317171
48.0988293
47.90892097
48.65733024
48.43774604
46.68429103
46.36736489
44.07033446
40.93076793
47.61147733
47.47847942
47.27205429
41.83148485
46.55585484
46.14831249
42.00686511
41.93856239
43.79477336
59.08560518
57.89931194
57.78524073
58.0542607
58.04374045
58.95170063
60.68984115
60.8290569
59.7643936
62.53390671
62.48915673
62.35217832
62.49615559
59.58440144
61.38469376
62.03573192
63.7304958
61.39107203
50.34004515
50.34649058
50.62159984
49.80074725
50.0718468
49.94954552
51.61984968
51.35622338
51.54156502
50.89599256
51.14670182
51.34187366
45.31268485
45.44302646
45.86445555
43.29886795
44.0774388
44.17737235
46.07826296
46.14221625
46.25162955
46.28374957
44.47662599
43.80878643
44.61471331
44.05053132
45.75305261
45.62002177
43.69426944
47.72202587
41.13483099
41.7595552
40.43597203
40.69392573
48.11075805
47.24880246
46.99543659
42.57940585
44.51493375
48.46755489
52.71653511
36.98651286
36.96942215
36.99848255
37.02404473
36.9983941
37.0273449
37.02007907
36.99759556
37.01236893
36.97225394
36.96334406
36.9550267
36.89008108
36.91463397
36.86754934
36.80532925
36.86994552
37.08192268
36.99961825
37.09966617
37.12804689
37.04115741
37.1269292
37.10757193
37.0346246
37.09436482
37.03598979
36.98236174
37.01098927
36.92034825
36.89207568
36.88628037
36.78217653
36.79172986
37.34118289
37.12624082
37.36271017
37.37729633
37.17254717
37.36212336
37.31182299
37.14502499
37.28544577
37.1874103
37.06378201
37.14874798
37.01963982
36.93835859
36.9731545
36.82725611
36.78682415
37.9151854
37.43292153
37.95192991
37.95339727
37.46753245
37.87561571
37.72988242
37.39280692
37.66962852
37.4782786
37.24454528
37.41247148
37.21554456
37.05862811
37.14843456
36.94584282
36.84910393
39.58408972
38.13072267
39.60713668
39.38913103
38.1276873
39.05517039
38.5544171
37.89011974
38.39204054
37.98107487
37.58026982
37.86059449
37.53902981
37.28310869
37.43648701
37.14199541
36.98615853
41.02105909
41.09539396
39.94657753
40.51991834
39.85151067
39.40342309
39.63567409
38.75478765
38.14567889
38.53594009
37.9957084
37.64109091
37.8406524
37.42066217
37.20246898
44.14051162
42.84279501
41.60149065
41.32611607
39.75726119
38.98008233
39.40614028
38.58380645
38.13673675
38.35953953
37.7686163
37.50028919
48.31124585
45.77135548
44.70459287
42.98847693
40.81456598
40.00462214
40.33589004
39.2200828
38.72959631
38.92228285
38.15230425
37.86062427
50.82511677
47.86999098
47.20392902
44.29619086
41.76211945
41.04100855
41.18663727
39.84628999
39.36639197
39.47927327
38.53722191
38.24826272
52.00232779
49.05240756
48.72513947
45.21798581
42.56293681
41.96555511
41.92037422
40.39523785
39.97535512
39.9776967
38.88661949
38.62921612
52.48406611
50.09871757
49.98927808
42.71997567
40.51647729
38.9624502
46.68391005
47.9683397
49.10168496
43.08120398
43.85978027
43.42892036
50.5877693
52.51318219
52.97652258
49.45380699
50.41429906
48.52725741
52.45877984
54.06589799
54.2954148
53.10194028
53.44966421
51.49565149
53.20994213
54.20579734
54.25270934
53.89730446
53.97014117
52.82698293
54.28446809
54.32812227
53.37053915
50.32589834
51.47082955
51.68711086
41.05876061
51.92677532
49.59591623
41.82839113
41.97718452
42.58790284
39.84555091
41.02726863
40.72701003
50.18891757
50.87204866
51.43587513
44.88179428
45.55927662
45.10212345
44.37669202
43.15860729
44.69383744
41.61687809
42.57015685
43.23114497
41.24359722
41.89727077
41.07284151
55.45035606
54.054303
53.76844095
57.34474896
57.26417634
56.59957911
46.94441886
46.07474646
48.70801649
43.69184391
45.05402397
45.56516421
43.87939217
44.48266879
43.1999396
54.36086623
52.59207581
52.76241078
51.57617266
51.46119211
53.85189433
48.55987382
48.07710326
51.02383283
45.28676847
46.82454538
47.13659025
46.03944929
46.44770505
44.93390874
55.63454616
54.08995287
54.35267641
50.89783979
51.62455432
55.13505723
39.64961794
39.50346374
39.56046869
56.35322749
53.82889512
54.78852145
55.78082393
55.88914066
56.25682018
56.21933698
57.38795441
57.38605791
51.98982646
52.5498166
51.51831922
46.289645
47.56195618
46.14628751
50.67392302
49.37523489
48.74480429
52.64736376
52.17027545
54.22604915
54.04885805
51.85232462
51.71075759
53.47064571
53.21743777
54.96238715
51.72127221
52.34064388
49.98753033
55.77970129
55.23640681
55.1241015
56.00856082
55.95510598
55.38909162
55.79368405
53.47561461
53.05990107
55.03024107
54.80553587
56.21753884
48.70614616
50.6995377
51.49567488
54.71703404
49.71898304
50.6489323
52.87843562
52.97917278
54.5961902
53.85419414
54.02536713
52.31482698
55.8268642
56.22224263
56.22312534
54.94513179
54.88085157
55.92298805
55.21635739
56.08951489
56.05468077
56.22319092
56.22013563
55.40831854
51.73411547
53.54004394
53.79188828
56.12774525
55.54573317
55.67135625
54.56068027
54.758446
55.86901886
55.0490653
39.96998721
47.75869014
51.45243851
49.02385517
49.84398927
49.2006561
52.07551269
46.33698926
47.88115317
48.05261632
47.42654976
47.65868512
46.10444313
48.97860363
41.24279458
42.82884399
45.4550228
45.85109867
48.8275818
45.94630946
44.48979556
43.28532503
48.05258644
47.41318402
48.55284241
44.03674847
44.50761625
45.84041761
47.49071925
44.24967748
44.7976841
41.02091429
41.39965247
44.76965846
54.12523163
54.17324097
53.15952921
56.21057431
55.31421217
55.0093321
55.32075775
55.31538651
56.22103751
56.08398063
54.98828911
54.96094334
55.01263245
54.99871934
56.10073676
52.91330014
54.0242657
54.08060243
42.4786909
43.3349312
43.56345343
43.98746563
41.45359471
42.38794574
42.22129502
42.51261109
42.50649978
41.44482976
49.2904799
51.97610439
49.0255923
50.54887719
46.94882667
45.39111637
54.48734015
53.03766977
56.67419856
45.77691459
47.12398426
48.72824451
56.16448258
56.01727094
56.39482274
56.62315822
56.55291191
56.41891108
52.17456871
52.18461984
54.12993811
54.02181097
51.98315298
52.12633133
53.50017332
53.81748753
55.54766609
41.26550901
43.5075768
42.99807487
46.75327486
46.28103798
42.41208801
42.55575029
42.30345663
41.5397157
55.2508421
51.87777801
52.20973881
51.86410675
47.3921095
48.35272621
43.51827629
44.76711254
51.22078522
55.97136107
56.27300762
54.71607843
53.58358519
55.16121665
55.59130394
52.79235583
52.6355532
54.52123737
54.80410285
53.02161353
52.93244332
55.72089053
55.61583217
55.73988799
53.2413368
54.45520911
54.61842012
54.05219256
54.27369066
53.04387867
53.90284826
55.0268256
55.13743034
54.76754136
54.90432893
53.76100249
55.43558144
55.88891375
55.81168602
54.17460657
53.81463462
55.9273488
51.16539924
52.36267899
52.69457752
51.61769496
52.00261195
50.82543376
52.33965234
53.57106149
53.83074066
53.01326985
53.29532124
52.07418119
56.25282408
54.76088435
54.44033436
48.34973163
49.33326262
55.31803398
54.89414884
53.47020992
53.59019659
45.09940962
52.0473877
52.38799937
52.98011485
52.54867579
45.67341331
55.92644976
54.94259562
55.11339886
42.99595593
40.53277314
40.68705547
41.19497332
40.87516211
40.98695629
49.24668874
39.72378314
41.40540209
40.64929568
42.9165561
43.68694083
44.18667749
43.72032491
42.80477757
46.26145173
44.07939216
45.02165949
45.39747187
46.53795201
43.00820674
43.94892247
43.63106047
44.17497592
44.09524909
43.09442206
54.79292814
54.39433309
55.65435656
56.66249918
57.14783051
57.03325431
52.29326571
52.43590211
54.27654937
45.39572716
49.11493998
48.85790921
49.90929913
49.50535087
45.51199083
53.81696075
51.37230587
51.36712647
57.09914957
57.28838242
55.99070813
50.60522079
49.97740556
51.57642226
47.94834183
48.80968141
49.33808207
47.71650769
48.27958405
47.47804449
49.69499611
50.77539254
51.21158685
49.83712025
50.32196185
49.2820841
53.90157695
51.68604305
51.15248637
52.15364999
52.00375801
54.13345158
54.84650166
52.97867047
52.86999115
46.19722907
50.34733011
50.17993912
50.58558215
50.46566887
46.29631015
54.65523189
53.05037193
53.137243
56.2171332
56.21984966
55.85853359
54.83137338
55.71842229
55.72664699
55.68431065
55.70484102
54.80147381
56.14542648
56.12247631
55.2280227
54.36274099
55.40011834
55.4674724
55.23609701
55.32352066
54.26876624
54.66069902
55.62156278
55.65735191
55.52699835
55.57883789
54.60296647
55.37429206
56.18910755
56.17470688
55.2689131
55.41635735
56.08570303
48.71700757
53.71506825
53.40170109
54.32879935
54.03147712
50.7597344
50.30045012
52.84564311
58.66289131
39.96507711
39.65999483
39.52429233
40.06927548
39.79961617
39.76897494
49.39116982
41.62146949
40.19547208
40.2826791
40.28462674
40.21059568
40.87970188
45.47645725
41.89627156
42.43935495
53.06876196
55.4008607
57.17433381
52.90492556
54.63027011
52.35059865
58.061238
59.46265072
56.43267827
49.06341048
50.55292904
52.07059052
48.4248115
49.60346248
48.44949823
53.83950076
51.27201063
50.17897856
56.25762308
55.62858137
55.28046692
56.87853924
56.7491864
56.67777611
48.76465569
48.73132191
45.75258271
54.15917917
52.19423512
52.22639798
51.49180874
51.7382555
53.9440531
44.51236836
44.04273168
41.33726383
50.95019355
48.01174982
48.42635114
46.99953101
47.52449712
50.63811283
48.21004474
44.12091557
44.63136623
43.37631279
43.6570607
47.70734597
49.771049
45.9689648
46.45338341
45.12092533
45.52919262
49.38878735
41.89056669
42.16888364
42.09503728
39.48531821
39.62660087
42.57265993
41.66532231
39.67008125
39.84245209
39.52430622
39.56019741
40.99302123
55.05883184
56.57700437
56.83722094
54.13391495
54.6558193
53.15504835
58.68431575
56.71739869
56.17778853
57.55416289
57.21438675
59.13006265
54.41453875
52.47435934
52.31397645
52.93007021
53.02155683
54.84411523
44.63854093
43.03693603
42.8706688
43.63325589
43.32849913
44.42302455
46.48790396
43.08520314
43.19652102
42.85584192
42.9625976
46.01355453
40.46730948
40.48225012
42.44778957
41.24162254
40.65856815
40.53343725
41.35963355
40.60694885
40.79264114
39.6115901
40.01063767
40.61044664
39.0921675
39.5296729
39.20691095
48.21599951
48.34554615
46.84046793
56.3669233
55.33467557
55.32403636
55.36491185
55.3441474
56.18895002
44.60582102
45.50415391
45.86562002
44.9010463
45.45364688
44.36595239
50.10165831
46.34057393
46.30125472
47.27521406
49.72309035
56.04471187
44.91444487
45.85797581
45.56902554
46.13756643
46.09585983
44.93900123
41.97750704
41.77015795
41.26777575
42.98966325
42.24832948
42.3909137
49.80965164
50.3358204
49.89677111
53.6983429
51.82354625
51.10266587
53.23324014
52.48312994
54.46617947
43.87621838
41.06564506
41.55093096
40.17732296
40.55129301
43.25344758
39.79898302
39.43538302
39.42400255
52.48601844
54.83984174
54.59267659
55.2607147
55.05684539
52.97645819
56.86602647
54.57263963
53.89038297
55.67214994
55.10661404
57.26615621
51.87009045
53.08047186
53.60697337
42.19901291
40.21273489
42.56744251
42.15120488
43.71176951
43.25536177
40.47746921
49.13956101
46.64698163
46.56326465
46.00028349
46.57827401
47.15372364
47.5778107
46.66878464
46.04556559
43.03865565
43.62575475
47.01204012
40.03043828
40.71256545
40.48267823
41.52989897
41.15727332
39.97606691
42.6480495
42.98797413
42.89420792
43.25591436
43.21122349
42.73642589
44.547089
43.68179384
44.15949526
51.96192667
49.67646676
49.92741393
48.86725485
49.23455757
51.69954057
41.93127122
45.6351934
45.08935676
53.22671034
53.34424248
54.8259569
46.90695754
50.98552362
50.75212254
51.52551192
51.2753112
47.40837126
44.12930223
44.84204351
44.58143051
45.37995727
45.18475094
44.37394321
47.34366624
45.9103311
46.39327579
36.98386475
36.99405982
36.99507078
36.99807791
36.99564991
36.99552997
36.98649314
36.97355589
36.98946519
36.95801323
36.94213196
36.97975573
36.92700777
36.91361738
36.97021597
36.90277272
36.89207203
36.96327031
36.88404352
36.87798049
36.9588033
36.98367078
36.99171366
36.98678561
37.00639094
37.00726723
37.00188532
36.99478076
36.98809944
36.98615396
36.94931279
36.9319933
36.93945119
36.88681315
36.87129288
36.89117954
36.78996738
36.76257121
36.82251562
36.74138733
36.72508525
36.79912222
36.71309299
36.70699755
36.78410908
37.03422047
37.04739847
37.02474428
37.06552703
37.06402734
37.04354441
37.04362221
37.03080392
37.01450727
36.9749182
36.95045928
36.94023575
36.86954114
36.84021204
36.83938374
36.74935689
36.6736278
36.71186804
36.62870721
36.59517854
36.65591557
36.57016101
36.5550571
36.62251763
37.20321636
37.22032067
37.15923076
37.22142717
37.21401251
37.16564883
37.17194628
37.15020233
37.11054908
37.06740943
37.03435464
37.00614042
36.91975926
36.87811477
36.86199941
36.77900943
36.65749485
36.65424361
36.56802488
36.50375296
36.54356158
36.45539554
36.422592
36.47916099
37.60027029
37.60984584
37.47888113
37.56974793
37.54057097
37.45074402
37.4453834
37.40311296
37.32441674
37.26062424
37.21027337
37.15435621
37.04854401
36.99229192
36.95620095
36.87602638
36.69280847
36.66866085
36.57590143
36.46426421
36.47702405
36.37747457
36.31605202
36.36002045
38.52226298
38.52484103
38.215147
38.33686097
38.23837689
38.06447309
37.97739879
37.88303348
37.73355761
37.60971805
37.52527363
37.43059567
37.27571615
37.19523885
37.1356838
37.04666846
36.78613161
36.73140622
36.62042199
36.47484253
36.46662072
36.34191894
36.2396908
36.26794684
40.22448168
40.27603765
40.03458242
38.93980427
38.713893
38.46036912
38.17292298
38.02187582
37.8793716
37.62324056
37.50204799
37.41763018
37.29038396
36.93238212
36.85229379
36.70786386
36.5164928
36.49214187
36.34647858
36.19515162
36.20863014
42.9989784
42.69793537
42.23935169
40.45478256
39.96543678
39.61174245
38.95802464
38.70831816
38.51201297
38.09183958
37.915225
37.80733043
37.59096103
37.12409017
37.02146622
36.83073345
36.58216727
36.54643144
36.36901753
36.17427216
36.17893142
47.40783621
46.54599284
46.10275956
42.1876971
41.40355103
41.04197537
39.86813038
39.50456175
39.27969244
38.63588968
38.39492187
38.26860289
37.92447879
37.34422323
37.23060339
36.97493833
36.66507459
36.62140024
36.40417496
36.17265843
36.17102089
50.35109762
49.2956886
49.02241449
43.69399104
42.71903836
42.41306495
40.78146736
40.31512156
40.08330278
39.19957881
38.89309644
38.76997444
38.26047347
37.56651871
37.45478971
37.12449698
36.75630617
36.70952181
36.44764465
36.1809945
36.17593667
51.79181808
50.77013933
50.62737339
44.80346099
43.75884738
43.52566459
41.58238348
41.04526281
40.83796555
39.73342823
39.36948852
39.26032872
38.56447522
37.7686601
37.67050372
37.26382833
36.8451669
36.80034963
36.49458734
36.19240989
36.18698767
52.39919512
51.43966698
51.39251193
45.56186802
44.50698192
44.36314716
42.22588848
41.65053879
41.49069833
40.21084684
39.79968415
39.68933141
37.85686162
36.88408079
36.19924502
40.25377734
45.64755756
45.168907
45.84094666
48.73838698
48.42526454
49.46146374
50.49728993
50.33022474
51.37454425
56.40063631
56.26786028
56.33248545
54.06020872
53.80201546
54.81190302
55.8960148
56.02116993
56.01912053
55.87491711
55.88424891
55.31338586
55.47120715
54.48839229
54.25991037
56.01631145
56.00695009
56.10220665
56.19849908
56.20242566
55.98616271
55.23347438
55.86379486
55.86803269
56.38104219
51.32085107
51.26357269
52.22247241
44.60540169
44.18482093
43.77149249
56.17923108
56.1400402
56.13590301
56.06471121
56.07732081
56.25350111
56.04493507
56.18525368
56.18997495
56.14564572
56.14999954
56.13088377
41.39887673
41.71225504
41.73701544
41.74081589
41.75153577
41.52310375
47.44831719
46.29086334
45.57034597
55.98527106
55.99765179
55.66908118
55.52807937
55.95565528
55.97078115
55.46842477
55.32679573
56.13489062
56.2817484
55.70589981
55.58280589
53.71428119
53.79191721
55.06147172
43.8996831
47.74411832
47.32448145
50.04455135
49.71697796
46.74419401
52.02735356
51.74899245
52.17155747
53.23211854
52.55246651
52.24767869
55.90136435
55.88860454
55.27518637
55.33799928
55.92828533
55.91333558
48.12770692
50.72454704
50.39036381
41.82693017
41.41670241
41.56151965
56.30101816
56.04154566
56.05250711
53.40430669
54.36090974
54.39702519
41.10258094
41.61820314
41.47844055
43.33886797
42.95389842
43.0713022
56.28390883
55.97575746
56.07228626
45.42249036
45.98935599
45.49419766
45.17515441
44.55093393
44.66695917
36.97703056
36.9714054
37.00870901
36.99871012
36.98919253
37.01165404
37.00589833
37.01733767
36.99555243
36.99904073
37.00365513
37.0278956
37.01594597
37.01487663
37.00916433
37.01423714
37.0257154
37.00023355
37.00583694
37.00150776
37.0020298
36.99299635
37.00211951
36.9661549
36.98135094
36.98914314
36.97422241
36.97654217
36.96351128
36.93428195
36.93175596
36.95094753
36.89220343
36.91321538
36.91408632
36.92641094
36.91753132
36.90107384
36.84473283
36.85568553
36.87506889
36.82256822
36.83965448
36.82510799
36.87983506
36.85825545
36.84456752
37.04549897
37.01883307
37.11393516
37.07589834
37.06253649
37.09262998
37.0864051
37.12438017
37.03448355
37.05698619
37.06361407
37.12336185
37.09077261
37.09324438
37.07753772
37.08605256
37.11735345
37.04095058
37.06060404
37.05343959
37.07794839
37.05170719
37.06616164
37.01369266
37.03439281
37.05858864
37.00033282
37.01520217
36.99602277
36.98300332
36.96466043
36.99076124
36.90652842
36.93677701
36.95294893
36.91750258
36.9248655
36.89707256
36.851073
36.84386168
36.87553911
36.78053854
36.81263202
36.81627027
36.81499069
36.81126806
36.78357742
37.25056821
37.18452675
37.3778624
37.28767732
37.27291331
37.29186044
37.29159825
37.38399568
37.16962052
37.22806369
37.22696559
37.34738214
37.27983495
37.28922813
37.24607974
37.26487709
37.33303732
37.15730995
37.20428726
37.19030239
37.25562342
37.19836062
37.22382063
37.13878264
37.17000855
37.22280197
37.08872683
37.12542062
37.09767771
37.10722617
37.06884495
37.1051153
36.98709794
37.02930983
37.06427726
36.97364205
36.9989283
36.9604074
36.9252307
36.89930647
36.94386411
36.80892347
36.85416038
36.87636529
36.82396301
36.83675544
36.79621843
37.69912603
37.56708037
37.96257763
37.77030745
37.74634115
37.72757711
37.74696044
37.97315825
37.47282607
37.61805662
37.60690817
37.82049122
37.70043066
37.72663541
37.59845235
37.64708853
37.78366517
37.42247291
37.51854229
37.48460948
37.60794292
37.49617063
37.54844351
37.38800951
37.4428175
37.54409233
37.28626394
37.35787157
37.31000453
37.34796687
37.2741425
37.33145148
37.15607029
37.21575458
37.28258221
37.10762152
37.15827861
37.10385624
37.08150192
37.03423994
37.09579978
36.90838358
36.97177845
37.01418242
36.90319239
36.93509754
36.87704985
38.85416282
38.47555272
39.65659316
38.96059471
38.94366338
38.77056377
38.85998311
39.51385152
38.17207217
38.53868505
38.48847928
38.87820461
38.59981077
38.72912156
38.29777235
38.43083089
38.7293421
37.97002381
38.16835875
38.07444804
38.24486271
38.04896871
38.17130388
37.82907037
37.93502509
38.10940554
37.65586404
37.79041025
37.69857409
37.74919177
37.62978219
37.72843087
37.44375059
37.53404213
37.64323952
37.35619303
37.44235742
37.35880804
37.33667431
37.26462432
37.35483869
37.0847738
37.17482802
37.23907532
37.06093589
37.1155733
37.03438405
41.07932502
40.71537262
40.69048054
40.64343918
40.68280352
41.15838166
40.00741228
40.35043976
40.32238104
39.29079051
38.98561268
39.27209722
38.53029497
38.74210287
39.00185883
38.29389884
38.51525665
38.33689937
38.33954824
38.17087779
38.3408022
37.87012294
38.01519922
38.16047365
37.75719662
37.8814319
37.74972583
37.69416089
37.59803146
37.73123054
37.34128701
37.46826808
37.55540397
37.30971127
37.38520203
37.27026098
43.69051955
43.18084644
43.5108061
42.3672879
42.75476557
43.20836273
40.68175408
40.3138413
40.88874986
39.4764839
39.85470177
40.17231744
39.2681472
39.56925972
39.2410084
39.09995083
38.87927531
39.15501809
38.41753736
38.63664396
38.82819921
38.31628286
38.48419348
38.28061942
38.15111346
38.02527051
38.21489402
37.67356966
37.84549718
37.95490703
37.6513384
37.74747312
37.58704999
47.36649737
46.96097214
47.8627784
45.41772126
46.14226422
46.51280965
45.36115482
45.76347585
45.09859117
42.09373898
41.7510529
42.60185595
40.52862412
41.07841531
41.38680792
40.47122341
40.78639741
40.28665568
39.91755959
39.68140157
40.06854617
39.04541713
39.34574339
39.54812912
38.98978912
39.18353871
38.89688794
38.64818939
38.51728167
38.77153592
38.05291157
38.27857516
38.39266512
38.0591913
38.1696006
37.95703304
49.77129103
49.53687988
50.59603674
47.67162298
48.55893623
48.78850212
48.06544573
48.32834717
47.43737434
43.27134156
43.00700676
44.01745332
41.52868777
42.19532107
42.44587761
41.65996395
41.94184473
41.31004345
40.6899039
40.47830111
40.96408118
39.67936756
40.05475636
40.24765103
39.70559465
39.90080542
39.53370359
39.14308645
39.02013522
39.33801973
38.44210461
38.72228435
38.83033226
38.5011533
38.6086719
38.34265237
50.99407248
50.86847286
51.88971776
44.16392836
43.9708233
45.03767608
42.35400172
43.09106758
43.29796506
42.67273288
42.90955001
42.19724553
41.35208769
41.18871501
41.72948114
40.26627787
40.70486375
40.84993641
40.3802029
40.56996282
40.1341425
39.58989882
39.48867703
39.86354441
38.80593319
39.13720644
39.22686221
38.93532258
39.03059947
38.71363132
43.47282734
43.62741267
42.87551003
40.98064603
41.12827761
40.65127535
39.31528109
39.41241966
39.04389514
48.35776773
47.68416016
47.27674869
48.34573462
47.97674686
48.73771082
52.68199074
51.72345918
51.54409473
52.04741975
51.88898947
52.82801233
49.7894399
48.96972776
48.63240125
49.54776764
49.2462718
50.11076698
54.1129268
53.41151104
53.36795187
53.23144996
52.33225992
52.19490182
52.58338047
52.46315357
53.33736098
40.59998109
40.26319308
40.21915502
39.82917606
40.91865983
40.48091277
40.51580824
40.29865205
40.37011822
40.81488202
43.94581216
44.5232668
44.95268152
43.64552841
44.09375913
43.61842407
45.30528173
44.68652018
44.18315339
46.67177368
47.49793801
47.79698417
46.85591844
47.19105964
46.38823008
49.11313974
48.09980753
47.74083944
48.42702661
49.33937417
49.50798089
48.98109639
49.17927714
48.24337485
51.21417591
50.16856305
49.96962202
51.13992284
53.1954974
53.06382227
53.49105691
53.35900397
51.40417463
56.13997493
56.21407947
56.37687595
54.18653451
55.61219662
55.43949836
55.89283234
55.75666855
54.5062238
46.72035951
46.24848581
45.7780691
46.97943847
46.54424212
47.14953387
54.53253404
53.58180305
53.29886012
51.94363468
50.97106101
50.75057678
51.36004403
51.15472483
52.14068452
56.02258769
56.01849535
55.82733491
55.28193818
55.67087005
55.80446079
55.53164682
55.62373481
55.17626099
55.35452885
55.89516246
55.9093996
54.86598043
54.66562324
55.63758172
54.96190414
55.33179418
55.44525802
55.05388027
55.20796721