/*--------------------------------*- C++ -*----------------------------------*\
| =========                 |                                                 |
| \\      /  F ield         | OpenFOAM: The Open Source CFD Toolbox           |
|  \\    /   O peration     | Version:  v2012                                 |
|   \\  /    A nd           | Website:  www.openfoam.com                      |
|    \\/     M anipulation  |                                                 |
\*---------------------------------------------------------------------------*/
FoamFile
{
    version     2.0;
    format      ascii;
    class       surfaceVectorField;
    location    "2.19";
    object      Uf;
}
// * * * * * * * * * * * * * * * * * * * * * * * * * * * * * * * * * * * * * //

dimensions      [0 1 -1 0 0 0 0];


internalField   nonuniform List<vector> 
6464
(
(99.98230197 0.7602516825 2.471985523e-22)
(99.99796306 0.3884671145 0)
(99.99928732 0.398807427 1.626478464e-22)
(99.99893448 0.8012783007 -2.40285395e-24)
(100.0008262 0.3999959405 7.104566789e-22)
(100.002309 0.3914410668 4.956535971e-23)
(100.0159164 0.7685614462 -4.639286397e-22)
(100.0034827 0.3744238176 -7.801265693e-22)
(100.0043725 0.3507453424 9.293245711e-23)
(100.026623 0.6745964134 1.553114931e-21)
(100.0049549 0.3222971161 3.90863983e-22)
(100.0052161 0.2910413313 0)
(100.0300895 0.5503547742 0)
(100.0052155 0.2588756938 0)
(100.0051775 0.2271660906 7.278650617e-22)
(100.0278912 0.4246451058 1.512029345e-21)
(100.0054156 0.1973534302 -3.692061646e-21)
(100.0053566 0.1679813055 -1.366831793e-21)
(100.0244386 0.308871083 3.008174553e-21)
(100.0047061 0.1418644232 3.007950079e-21)
(100.0035393 0.1195055139 -8.677996972e-22)
(100.0150316 0.2172514618 -5.960387724e-23)
(100.0008018 0.1034492638 1.68037518e-21)
(100.0100561 0.1034720987 -7.610231614e-21)
(100.0562454 0.2527084184 6.096608642e-22)
(100.0195264 0.222923025 -2.727725347e-21)
(100.0031532 0.1040622849 -1.611541938e-21)
(100.0073344 0.06095274903 -9.654250631e-22)
(100.0397658 0.1575855635 1.528533673e-20)
(100.0062325 0.0288044901 -7.763202659e-21)
(100.0302067 0.08536172877 -1.62994298e-20)
(100.0271456 0.02723621607 1.541243604e-21)
(99.88927426 1.675140288 -1.668625993e-22)
(99.92111834 1.518189602 -5.718695699e-22)
(99.87186807 1.901504253 1.381633828e-21)
(99.90936386 1.727724253 -2.865615073e-21)
(99.97320701 1.803974776 1.669597698e-22)
(99.99911648 1.613713292 -4.603764519e-22)
(99.97620864 2.028411437 -2.626527146e-22)
(99.99540578 1.828292328 -3.844913666e-22)
(100.0618636 1.772666403 -1.730252911e-22)
(100.0605189 1.558612934 -2.002663251e-22)
(100.081933 1.964550986 -9.417188842e-23)
(100.0814886 1.749572258 1.523489345e-21)
(100.1294675 1.588925294 2.003618672e-21)
(100.0998467 1.374530262 3.477226073e-21)
(100.1565863 1.735087571 3.494159334e-21)
(100.1390361 1.528084269 4.908926067e-22)
(100.15706 1.31463202 -5.970102243e-21)
(100.1122599 1.123184416 -5.593439515e-21)
(100.1832984 1.416458853 -2.005115318e-21)
(100.1571718 1.238528148 -1.996051883e-21)
(100.1503895 1.026016653 -4.903170947e-21)
(100.1003381 0.8687445494 4.546970994e-22)
(100.1679571 1.090845365 -1.332237697e-21)
(100.1443239 0.9536221858 5.445333962e-21)
(100.0986306 0.6128285665 -1.291928696e-20)
(100.1557486 0.8310915663 -1.291828316e-20)
(100.221637 0.9062049967 1.308785244e-20)
(100.1374769 0.6994618883 -2.659317818e-20)
(100.1182943 0.5842953512 1.151476726e-20)
(100.1654402 0.6279032767 -1.663387107e-20)
(100.0978795 0.4858321362 2.332979693e-20)
(100.0733039 0.4272517623 2.594677118e-20)
(100.0951844 0.3021509543 2.266454039e-20)
(100.2136131 0.4745073796 -2.443694147e-22)
(100.1612173 0.5236862729 4.703975688e-20)
(100.0948994 0.4156085182 2.585152581e-21)
(100.0707098 0.1785327658 -7.116930296e-22)
(100.1557728 0.2949557466 3.261254649e-20)
(100.0579816 0.08276603162 -7.570168092e-21)
(100.1204975 0.1596613739 -1.729744273e-20)
(100.1052149 0.05073749808 7.763413184e-21)
(99.69005795 3.12912796 1.181321138e-19)
(99.59418433 3.293006737 -2.178897542e-19)
(99.61718075 3.576132043 3.52869934e-19)
(99.66203131 3.385394137 2.753155619e-19)
(99.95286918 3.350851087 -1.897022761e-23)
(99.91178807 3.570728979 0)
(99.95556445 3.829343637 1.994112858e-22)
(99.99888083 3.582869274 2.975909472e-22)
(100.237904 3.227118528 -1.200418526e-19)
(100.2403919 3.479455756 -1.177352807e-19)
(100.3206946 3.669490376 8.504957744e-20)
(100.3103141 3.400703535 7.545363678e-20)
(100.4314983 2.82150068 8.549396463e-21)
(100.4733904 3.07187837 1.39509921e-21)
(100.5596949 3.19276421 3.666089563e-20)
(100.5096915 2.935149029 1.136271582e-20)
(100.5009218 2.277529597 -5.588691266e-21)
(100.5668616 2.496652352 -1.289240097e-20)
(100.6442872 2.561616418 -4.543525845e-21)
(100.5692565 2.343387504 5.18199873e-21)
(100.5405231 1.89775669 -1.658846368e-20)
(100.4691587 1.722183702 -1.122099889e-20)
(100.6014125 1.925132105 -1.123613086e-20)
(100.5257601 1.756188505 6.057193719e-21)
(100.3927484 1.183689322 -5.105320436e-20)
(100.5199863 1.440943765 -2.669099412e-20)
(100.6145708 1.44024918 -7.735597529e-20)
(100.46075 1.204989614 -3.589897128e-20)
(100.2978671 0.8145618503 -5.94811802e-20)
(100.4013034 0.9990625827 2.340773229e-20)
(100.4644292 0.9812870521 -2.821361123e-20)
(100.3441207 0.821771878 -2.469894331e-20)
(100.2670302 0.463075962 1.043356385e-20)
(100.4577165 0.6381553238 -2.559506607e-20)
(100.4200534 0.7659031412 -1.926086515e-22)
(100.3137986 0.6804147444 -1.472846808e-20)
(100.1996056 0.2725472652 1.524936372e-20)
(100.3350488 0.3928976802 2.724454084e-20)
(100.1627689 0.125930042 -1.951506449e-21)
(100.2588275 0.211519651 -3.949845754e-21)
(100.223979 0.06678368244 0)
(99.3374437 5.130079452 -4.673386148e-19)
(99.1409564 5.315597519 -2.070342165e-20)
(99.23649389 5.732259171 6.186885115e-19)
(99.33937701 5.484933313 0)
(100.0604532 5.427759713 -2.616873745e-20)
(99.98933549 5.713908136 -7.604414973e-20)
(100.1440613 6.027362477 2.680689189e-20)
(100.1997352 5.691649812 1.701108196e-20)
(100.7223289 5.073961736 4.994616787e-20)
(100.7395991 5.390755064 6.030965688e-19)
(100.9281174 5.569111013 7.955955619e-19)
(100.8804212 5.228991774 4.270893921e-19)
(101.0987995 4.323708956 5.372472139e-19)
(101.1776543 4.624232279 -2.160753757e-20)
(101.3447109 4.698770431 5.908800399e-19)
(101.2371572 4.393939411 2.901876588e-19)
(101.2005073 3.389519314 4.160238562e-20)
(101.3128454 3.653125966 -2.637876719e-21)
(101.4392885 3.653076329 0)
(101.3065629 3.398426372 1.981793166e-19)
(101.2247985 2.692098908 0)
(101.1078083 2.495681712 4.452295249e-20)
(101.3102903 2.665092389 0)
(101.1806757 2.4769323 0)
(100.8864538 1.666857692 2.865217929e-20)
(101.101902 1.950955023 1.848541154e-20)
(101.2052601 1.853609644 -1.691126563e-20)
(100.9669231 1.611106286 3.597783728e-20)
(100.6661913 1.121848146 -3.312342048e-20)
(100.83751 1.319413252 -1.479570014e-20)
(100.900035 1.230924145 -1.494606701e-20)
(100.7174789 1.070225966 -7.134871021e-21)
(100.510402 0.5628871226 -8.97219886e-21)
(100.7626551 0.714746366 -1.95420336e-20)
(100.7783864 0.9070646219 -2.567531281e-21)
(100.6366391 0.8670035338 4.775383288e-21)
(100.3814757 0.3284604717 7.860485188e-21)
(100.5560891 0.4341863678 1.19857416e-20)
(100.3091868 0.1505353364 -1.997985837e-21)
(100.4266403 0.2306689144 -3.53730348e-21)
(100.3659478 0.07214807912 -5.108533931e-22)
(98.91034064 7.904014077 9.638190446e-20)
(98.52807273 8.168524486 3.455341623e-20)
(98.7843261 8.786145578 3.423613783e-20)
(99.0192374 8.417069849 3.388178948e-20)
(100.6357825 8.100653068 2.630781187e-22)
(100.5251 8.540632522 7.91458766e-21)
(100.9078399 8.907502275 -1.033153605e-20)
(100.9656493 8.382897439 1.101336024e-20)
(101.8612371 7.124975685 -1.038925585e-18)
(101.9468919 7.553838229 -3.515158131e-20)
(102.3059051 7.652946838 -5.357763692e-19)
(102.1591089 7.211664165 -5.572803577e-19)
(102.3518417 5.751999812 8.446976478e-19)
(102.52525 6.103755777 9.461032915e-20)
(102.797898 6.068429488 1.592145416e-18)
(102.5739419 5.728866394 7.418168881e-19)
(102.3411551 4.366611885 -2.377642249e-19)
(102.5391487 4.647229233 1.716279087e-19)
(102.7049279 4.55859008 -7.878115983e-19)
(102.4806016 4.297236002 -4.080185407e-20)
(102.2154777 3.2991572 -1.451255729e-20)
(102.0281926 3.08520076 -3.834365113e-21)
(102.3089896 3.190956487 3.286349135e-20)
(102.1073429 2.999822909 2.234696147e-20)
(101.5656984 1.989023949 -9.414402865e-20)
(101.8788591 2.268698576 -5.974915579e-20)
(101.9602054 2.061324474 -3.365214793e-20)
(101.6352396 1.848667657 -1.73192109e-20)
(101.1604796 1.302791407 1.160886664e-20)
(101.4057025 1.491488804 3.490218666e-20)
(101.4419157 1.332554473 -3.946922111e-21)
(101.1991844 1.191776313 -3.835085822e-21)
(100.7946064 0.5847670493 2.050091709e-21)
(101.1020179 0.6776029324 0)
(101.2024038 0.946173689 -1.387544969e-22)
(101.0421454 0.943730822 -1.04971322e-20)
(100.588626 0.3336530392 4.513620779e-22)
(100.7929176 0.4049178684 2.049906885e-21)
(100.4722411 0.1507547985 -2.057772778e-21)
(100.5991627 0.2093770577 -2.06011476e-21)
(100.5081408 0.0645438534 -2.079396159e-21)
(97.99730966 12.17036947 9.655174575e-20)
(97.24320493 12.54240871 -6.184833465e-20)
(97.55195898 13.68797648 6.09939634e-20)
(98.45780648 13.06713809 0)
(102.2592983 11.82123744 0)
(102.0873531 12.66042294 8.017983861e-20)
(102.9595976 13.01597646 1.654662912e-19)
(102.971615 12.04110269 -2.841091475e-19)
(104.2125483 9.197138273 -2.006276997e-18)
(104.4776349 9.810878981 -1.079568875e-18)
(105.0809343 9.673784309 -1.803189889e-18)
(104.695195 9.085668253 -9.089816118e-19)
(104.450628 6.813484514 8.434438265e-20)
(104.7962812 7.184443125 1.27873533e-18)
(105.1143422 6.965277017 -1.726096907e-19)
(104.7184049 6.6363338 -7.478125629e-19)
(103.9903398 4.933211209 5.050955333e-19)
(104.3124203 5.188343015 4.648298111e-19)
(104.477532 4.970562913 -7.45314306e-19)
(104.1360477 4.756360984 4.317196142e-20)
(103.5401212 3.571500624 8.681721759e-20)
(103.2584328 3.371685826 -1.020636373e-19)
(103.6116368 3.37151914 -2.912310414e-20)
(103.3253039 3.206165573 -1.709056429e-19)
(102.3804385 2.059689695 2.734566884e-20)
(102.7997302 2.294195035 -2.730448952e-22)
(102.8141811 1.973965903 1.682810285e-20)
(102.4051641 1.832116079 1.252176457e-20)
(101.730442 1.311793029 -1.652838227e-20)
(102.0473227 1.45524677 -8.457806489e-21)
(102.0237779 1.233012982 -8.45944507e-21)
(101.7279823 1.143423743 1.299383377e-20)
(101.0838732 0.5042779649 0)
(101.4324983 0.5157569558 1.383511784e-21)
(101.6281972 0.8177715943 -1.143825103e-20)
(101.474857 0.8915282606 2.828151497e-20)
(100.7892313 0.2785390784 -5.211140121e-22)
(101.0057871 0.2945993969 -1.633164742e-21)
(100.6238178 0.122733964 -2.092049276e-21)
(100.7460942 0.1434166255 -2.379378808e-21)
(100.6238969 0.04294262226 2.651017836e-21)
(92.74205797 20.68558726 -1.068175609e-19)
(93.99111343 20.46057855 -1.592726118e-19)
(93.01617142 22.33987255 -9.330749189e-20)
(94.59187756 21.76053986 9.110192998e-20)
(106.5268568 18.97475091 0)
(106.7265896 17.42008126 1.998966496e-19)
(108.2597186 17.13080764 8.568480176e-20)
(107.2633628 19.82198358 0)
(109.1683208 18.71121814 0)
(108.7772921 19.40812539 0)
(109.1545321 11.50526072 6.036007334e-19)
(108.4378649 10.70244411 5.303360823e-20)
(109.8126377 10.80369598 -2.918355677e-20)
(108.9629549 10.20146005 -9.249792877e-20)
(107.4224179 6.994056209 8.548941427e-19)
(108.0167571 7.304376797 5.5492245e-20)
(108.2769342 6.814181166 1.052223062e-18)
(107.6553749 6.597850623 1.670766555e-19)
(106.0804716 4.754010819 -1.585089981e-18)
(106.5400676 4.910620586 -1.132329509e-18)
(106.6249209 4.546684149 -4.557806111e-19)
(106.1669405 4.447581791 8.07809697e-19)
(105.0555589 3.242778022 -1.665962647e-19)
(104.6857525 3.133808856 -1.712089773e-19)
(105.0468977 2.967779675 -3.534364223e-19)
(104.6883298 2.88740413 -1.035331245e-20)
(103.2452304 1.795825124 4.479752055e-21)
(103.7736881 1.921107631 -3.071181411e-20)
(103.6521868 1.518641314 -2.670983752e-21)
(103.1783454 1.489047111 -4.746393427e-21)
(102.3024613 1.088967025 4.722098558e-21)
(102.6711187 1.151379627 -2.077785672e-23)
(102.5637374 0.8845370086 -7.566178398e-21)
(102.2335818 0.8742632834 9.576442387e-21)
(101.3305714 0.3138605236 -1.720689174e-22)
(101.6773011 0.2302796622 -3.155916429e-22)
(102.0061358 0.5165137562 8.340801503e-22)
(101.8755376 0.6305887712 6.92506216e-21)
(100.9474651 0.1595390953 -3.502655424e-21)
(101.1512332 0.1040087084 -2.463217608e-22)
(100.7347036 0.06463841918 2.59600836e-21)
(100.8355504 0.03477257403 -2.39573258e-21)
(100.684853 0.007941437237 4.607882579e-22)
(121.9207034 23.10757665 0)
(120.2674693 22.00040791 -1.660310649e-19)
(122.6747351 21.31437301 0)
(121.0370608 20.58818763 -3.431060988e-19)
(116.085386 10.12192545 -9.354693652e-19)
(114.5975546 9.677114848 -3.191485769e-19)
(116.1522198 8.697794905 -2.015403381e-20)
(114.7459154 8.566425712 -1.496508472e-19)
(110.8178824 5.539564581 -2.103587163e-19)
(111.6441656 5.587926195 4.154957556e-21)
(111.6035484 4.867173172 -6.858566924e-20)
(110.8254189 4.936129921 -2.282473866e-21)
(108.1928585 3.522058996 -2.07795629e-20)
(108.7526955 3.499710337 1.668949558e-20)
(108.6656749 3.040994821 -1.331315565e-20)
(108.1473937 3.128476265 -3.95591173e-19)
(106.4738315 2.184728982 -4.192665583e-19)
(106.051268 2.199472106 1.940099028e-19)
(106.342486 1.857643408 -3.042131216e-19)
(105.9516122 1.912121489 -2.932473987e-19)
(104.0083697 1.145025489 -5.214547291e-21)
(104.6037886 1.108275975 2.016695393e-20)
(104.2931588 0.6863680921 8.445502681e-21)
(103.8109025 0.8057369489 1.22383618e-21)
(102.7752161 0.6237231925 -2.02176993e-21)
(103.1627436 0.5773891168 1.45174346e-20)
(102.9420578 0.3127827664 5.334028678e-21)
(102.62401 0.4002674267 1.054323895e-20)
(101.4810081 0.02462199582 -3.370309232e-22)
(101.7915023 -0.1590812045 -1.110832873e-21)
(102.2420888 0.05705449567 -1.13244239e-21)
(102.1730642 0.2347877243 -1.342121781e-21)
(101.0264037 -0.01879909169 1.121465293e-21)
(101.1920834 -0.1508394231 1.387224989e-21)
(100.7754568 -0.02045635619 -4.479218117e-21)
(100.8370612 -0.1076710675 1.709299785e-21)
(100.6655409 -0.03794090487 -2.223295952e-21)
(135.6432081 8.120804627 -6.382186277e-19)
(133.9609179 8.914326632 -2.35417734e-20)
(134.5061616 6.721162316 5.538850146e-19)
(133.1025008 7.553278803 -5.690385739e-19)
(121.2273434 3.629422362 7.706482465e-19)
(119.6329796 4.181086099 3.833280435e-20)
(120.2329268 2.355437527 3.829944768e-19)
(118.9593644 3.027306402 7.485984448e-19)
(113.3607828 2.180901734 -2.571565202e-19)
(114.1698398 1.817653625 -9.019414272e-20)
(113.6927415 1.135674853 8.401924739e-20)
(113.0054646 1.550733499 9.296579535e-20)
(109.7020837 1.236163999 2.970961866e-19)
(110.2238154 0.9784332575 2.970159736e-19)
(109.9023959 0.5504124992 -1.516969467e-19)
(109.4505318 0.8351058026 3.006670375e-19)
(107.3882538 0.4747698023 2.233886599e-19)
(106.9830806 0.6433012355 -5.191796484e-20)
(107.1134407 0.1847727267 -5.517518647e-20)
(106.7600891 0.3633982302 1.459605659e-19)
(104.4877485 0.1595328268 8.381610686e-21)
(105.0686144 -0.06078579498 3.509039295e-21)
(104.5744849 -0.4156541045 -2.630959113e-21)
(104.1460471 -0.1515367647 -1.331708599e-21)
(103.0385565 -0.04060299785 6.124770315e-22)
(103.403762 -0.207160614 7.432170406e-21)
(103.0703626 -0.4235180181 6.081598226e-21)
(102.7983565 -0.241020806 1.334430551e-21)
(101.492543 -0.3300247141 5.891214849e-22)
(101.7299674 -0.6096754148 1.007962505e-23)
(102.2730049 -0.5033233541 3.928956747e-22)
(102.2845058 -0.2869857054 -6.008511436e-21)
(100.9956376 -0.235533035 2.130062414e-21)
(101.1028452 -0.4429425145 -2.371324394e-21)
(100.7214047 -0.1232061196 4.231535139e-21)
(100.7310314 -0.2697777566 2.393839301e-21)
(100.5492925 -0.09029679526 2.101500098e-21)
(133.4375771 -8.079531377 6.7632397e-19)
(132.8530135 -6.859151289 1.083981547e-18)
(132.0651864 -8.400519251 1.082780414e-18)
(131.5840134 -7.239860902 1.066202022e-18)
(121.2009058 -4.328548648 3.92539999e-19)
(120.2622133 -3.161343286 4.119162574e-19)
(119.7598031 -4.839423374 -6.457371384e-21)
(119.0748099 -3.789084267 -1.002608491e-20)
(113.868726 -2.118543911 8.001924716e-19)
(114.3986631 -2.769582358 3.3775585e-19)
(113.6510118 -3.167528846 2.70528717e-19)
(113.2305158 -2.541367477 3.501657793e-19)
(110.0482948 -1.589662285 3.241962817e-19)
(110.4017928 -2.018139114 -6.148625122e-19)
(109.9240514 -2.294764663 1.126124441e-20)
(109.6109887 -1.878997891 1.141016296e-19)
(107.4984554 -1.54368326 2.241561044e-19)
(107.1841622 -1.25421142 1.643218017e-19)
(107.1122035 -1.733329397 -2.795064527e-19)
(106.8482313 -1.459352247 -2.34718189e-19)
(104.5442868 -1.01284944 2.239322677e-20)
(105.0241343 -1.391582123 6.913830851e-20)
(104.3961485 -1.604535421 6.363705547e-20)
(104.0787444 -1.231634454 1.78854572e-21)
(103.0186168 -0.8203657626 0)
(103.3168017 -1.087903918 -2.161530346e-20)
(102.8974076 -1.215552924 0)
(102.700814 -0.9586738227 0)
(101.3396592 -0.7143795625 -2.948888143e-21)
(101.4789147 -1.065049659 -7.757555316e-21)
(102.070847 -1.094270511 2.363289565e-21)
(102.1678281 -0.8670683269 -3.856020201e-22)
(100.8373756 -0.4698280518 -2.131245907e-21)
(100.8721681 -0.7384142429 -1.666298976e-21)
(100.5580792 -0.2340997066 2.642856171e-22)
(100.5086679 -0.4343248919 -1.438413368e-21)
(100.3284557 -0.1436385874 2.496157015e-22)
(124.906523 -17.06357225 1.759225847e-20)
(124.9747011 -16.07167677 1.926270044e-20)
(123.8639313 -16.78038513 -8.336888899e-19)
(123.9294259 -15.88384744 -4.333041056e-19)
(117.4305959 -10.18332603 -7.159287538e-19)
(117.1960121 -8.999753517 -6.843816952e-19)
(116.1038749 -10.05936903 -1.638504266e-18)
(115.9818943 -9.050432787 -8.304007014e-19)
(112.3647611 -5.950566553 2.842803588e-20)
(112.5567295 -6.664805057 -5.891281119e-19)
(111.7618544 -6.730323021 2.841139429e-20)
(111.6368585 -6.085451993 -2.590512268e-19)
(109.1552821 -4.249219937 -1.122776024e-18)
(109.326097 -4.737049011 7.488109673e-21)
(108.7697066 -4.818027658 -2.423031975e-19)
(108.6508236 -4.372433735 2.612900568e-19)
(106.782844 -3.44334945 -2.384100948e-19)
(106.5955276 -3.092366609 -2.148782881e-19)
(106.3378738 -3.499395407 3.119297954e-19)
(106.1914668 -3.17992669 1.545856737e-19)
(104.1365212 -2.166821241 4.130335659e-20)
(104.4565692 -2.64071976 -1.15638322e-20)
(103.7775324 -2.679063433 -2.041776016e-20)
(103.5973343 -2.256327039 2.036418573e-20)
(102.6979397 -1.595697917 -1.450597254e-20)
(102.8977662 -1.930212666 6.450074855e-21)
(102.4351938 -1.949186292 -6.865007245e-22)
(102.3286895 -1.649128128 -1.50485643e-20)
(101.0204351 -1.080207748 -6.528562809e-21)
(101.0531464 -1.474850346 -1.049117273e-21)
(101.6476902 -1.637117854 -1.94225748e-21)
(101.8201866 -1.42634162 -5.663978605e-21)
(100.5494037 -0.6950173241 -1.210070417e-21)
(100.5089381 -1.004886678 5.39367505e-22)
(100.2831761 -0.3411488953 -1.46058826e-21)
(100.1749322 -0.5845956773 4.708145565e-22)
(100.0066675 -0.1926036991 2.496195312e-22)
(115.7955686 -20.36024727 -5.714275742e-19)
(116.1498574 -19.67987976 2.625945641e-19)
(115.0719702 -19.81757339 2.593560868e-19)
(115.4282026 -19.21541826 5.253339655e-19)
(112.2757911 -13.14180398 2.386727616e-19)
(112.5033106 -12.24189092 -5.640135504e-19)
(111.2714155 -12.65544901 4.819416273e-19)
(111.5172096 -11.90325622 1.364043412e-19)
(109.6207592 -8.516096444 5.364944733e-19)
(109.5343529 -9.11964131 7.252442165e-19)
(108.8398332 -8.92926662 -7.425428864e-19)
(108.9484597 -8.405475571 -2.889432423e-21)
(107.3689606 -6.218054257 -4.819224535e-19)
(107.3668179 -6.666213379 1.156760517e-20)
(106.8490779 -6.574110063 0)
(106.8740164 -6.176892798 -2.090797736e-19)
(105.4315875 -4.882347668 7.437919709e-20)
(105.3693018 -4.53548308 -1.961757418e-19)
(104.9956812 -4.811055611 9.563485097e-20)
(104.9552183 -4.500805473 3.581089122e-19)
(103.3367696 -3.12449026 -1.925542969e-20)
(103.4852226 -3.615798065 1.156292872e-20)
(102.7839928 -3.078692156 1.896732481e-20)
(102.1133069 -2.264957175 -3.635415892e-21)
(102.2036212 -2.622346526 5.917959613e-22)
(101.7276829 -2.227985245 -1.966807454e-20)
(100.5580012 -1.388526431 4.251947593e-21)
(101.2794057 -1.904639689 -1.499080761e-23)
(100.145423 -0.8884883696 1.96257997e-21)
(99.90644309 -0.43396539 1.962357399e-21)
(136.6403671 9.666592551 -1.806175691e-21)
(134.9693715 10.4628043 6.143115251e-19)
(135.8159437 12.15003352 1.197649121e-18)
(137.8885005 10.85499164 -3.534141342e-19)
(137.6214667 11.80847236 1.173686498e-18)
(120.9643527 24.69785865 9.674880227e-19)
(122.8205272 26.11785776 -4.365528396e-19)
(123.8409371 23.9680361 -4.500920489e-19)
(134.8216887 -7.628603313 -4.082734091e-19)
(134.2332722 -6.410294502 0)
(135.6717505 -5.830913562 5.746995182e-19)
(136.1204711 -7.660844244 -1.435318535e-18)
(136.4318734 -6.962687332 7.161635872e-19)
(137.1680294 7.19858903 -6.238103186e-19)
(138.4821516 8.196493123 3.452637365e-19)
(138.3211652 9.150795519 -1.954997681e-18)
(125.9883195 -17.31024167 1.188394497e-18)
(126.0596668 -16.30358461 1.192507381e-18)
(127.1866776 -16.49396569 -1.146805649e-19)
(126.921857 -17.73221373 1.285146106e-18)
(127.3124163 -17.41795806 2.33265371e-19)
(133.8917782 -9.287321854 -2.63891638e-19)
(135.1581298 -9.391864268 4.142108184e-19)
(135.5045459 -8.741499481 -9.669258937e-19)
(116.5504667 -20.86242862 -5.478332912e-19)
(116.9025147 -20.19342574 2.857986299e-19)
(117.7021742 -20.66417575 -3.625901195e-20)
(117.3287306 -21.41658824 5.780303428e-19)
(125.8473356 -18.33079379 8.153259024e-20)
(124.7920591 -18.02707637 8.484850142e-19)
(116.1521747 -21.57165057 -8.616038258e-19)
(115.4081552 -20.9968951 -5.547533282e-19)
(92.51123692 19.26694858 8.80543244e-20)
(91.18075689 20.86075812 -1.06154214e-19)
(119.2322013 23.56585576 7.983720435e-19)
(118.0812538 24.89850517 1.757687147e-19)
(119.5850593 26.57424721 7.7526214e-19)
(105.2514922 19.22367154 0)
(105.3294515 20.0683832 0)
(106.3230033 20.1301286 0)
(143.7073118 29.00116719 3.943750677e-20)
(142.6642569 29.33500097 -1.534192321e-18)
(143.024081 30.13467488 -5.042237722e-19)
(144.0474677 30.05140112 -1.055441958e-18)
(123.7400128 40.4547402 1.15454286e-18)
(122.0967545 42.13187029 1.047609771e-19)
(123.9039306 44.18642668 2.443572665e-21)
(125.7107494 41.95137265 1.069081477e-19)
(132.4391505 9.616789678 -5.038272754e-19)
(133.1522441 11.08929283 -5.247767711e-19)
(122.0342114 4.997871239 -3.884654269e-19)
(120.3975577 5.588022833 -1.127217896e-18)
(120.9515652 7.044490482 -3.985625378e-19)
(122.9881879 6.71832543 -7.141830888e-20)
(115.8501853 11.45022754 -5.881871359e-19)
(117.6186019 12.13384813 -3.167484865e-19)
(117.7775835 10.36088662 -3.17062472e-19)
(147.5715478 -2.052638687 1.012450077e-18)
(147.3620332 -1.534077063 -5.071682437e-19)
(147.7987116 -1.292782176 5.129358022e-19)
(148.0165457 -1.802589586 -1.056264236e-18)
(149.5170146 11.68505375 1.435597664e-19)
(149.0090401 11.16843157 -4.210217662e-19)
(150.0081044 11.19993054 -1.167581174e-18)
(149.5265533 10.70644012 -7.20407878e-19)
(132.2627325 -5.68731136 -1.032286515e-18)
(133.5308748 -5.206191476 -3.570030794e-20)
(122.6134972 -3.657732456 -8.047027713e-19)
(121.6598646 -2.453576693 -7.889912599e-19)
(122.9881586 -1.583029469 -3.955960749e-19)
(124.2936395 -2.868070087 2.017181206e-19)
(123.9659431 4.34901416 1.465935985e-19)
(122.7302349 2.81676656 1.207418208e-20)
(135.4786401 -18.91269726 6.140833985e-19)
(135.6908492 -18.51006377 1.076409023e-18)
(135.9374636 -18.61852532 1.450531074e-18)
(135.7747176 -18.98809469 4.13252616e-19)
(142.2739686 -12.26443466 -5.046878558e-19)
(141.8979673 -12.33721441 9.477983841e-19)
(142.2439265 -12.76615745 -3.551347878e-18)
(141.8805525 -12.79766111 -9.447126485e-19)
(124.9907837 -15.13584349 4.518521763e-19)
(126.0734419 -15.27711677 4.171388018e-19)
(118.8353831 -10.20692309 6.949999339e-19)
(118.5820671 -8.992381396 7.084032365e-19)
(120.0281115 -8.867537278 1.107151934e-18)
(120.4273552 -10.272129 -3.198218554e-19)
(123.6753426 -5.035310391 -3.090202085e-19)
(121.9635059 -5.579563509 -3.779491413e-19)
(123.3071888 -24.91715701 6.902154843e-19)
(123.586392 -24.44394294 -6.965733203e-19)
(124.0315892 -24.71472703 7.192291452e-19)
(123.6987023 -25.20176588 3.408735262e-19)
(129.2135998 -22.71582404 -5.610773658e-19)
(128.7240541 -22.51328382 0)
(128.4601035 -23.06909242 0)
(128.7704812 -23.37495274 -4.52173567e-19)
(129.0210968 -23.22362468 9.127694748e-19)
(107.3752402 -30.72766706 8.945314384e-20)
(108.5956644 -30.81413899 -1.700400559e-19)
(109.2394952 -30.73631154 1.674778398e-19)
(108.6003586 -30.81905705 0)
(112.1634745 -25.80238415 2.028671681e-19)
(112.6226058 -25.49034909 5.29350276e-19)
(112.8416948 -25.89244821 -2.035223789e-20)
(112.4676775 -26.19778714 7.949969987e-19)
(117.6617572 -25.9199572 2.592111052e-19)
(117.2753376 -25.58323002 7.836517781e-19)
(117.3127779 -26.31252446 -1.732929676e-20)
(116.9654482 -25.96649572 -5.05649122e-19)
(148.9572132 12.13974226 1.120953187e-18)
(149.4655022 12.68100182 0)
(150.0073296 12.20679514 8.514480067e-19)
(143.6695277 27.88172209 8.50039186e-19)
(144.8158167 28.79122342 2.87361255e-20)
(144.5675578 27.85265099 5.511515277e-19)
(131.3035577 19.18868762 1.089926192e-19)
(131.132574 17.19926199 -5.159217992e-19)
(133.16289 16.97805333 -9.567252579e-19)
(134.0135085 18.74343845 3.372743998e-19)
(133.3318218 19.56282615 3.263910698e-19)
(141.9533695 27.8276532 -1.085643147e-18)
(144.1340676 27.09792662 1.136358245e-19)
(143.3146307 25.7173291 1.025374462e-18)
(141.5979335 26.05130847 1.694847954e-19)
(148.4460721 11.61856326 5.475174155e-19)
(147.8581568 12.05574574 1.093768539e-18)
(148.3714218 12.57820266 5.587793854e-19)
(142.2809225 -11.80255687 -1.46500466e-18)
(142.6577589 -11.71527804 1.554433257e-18)
(142.6395139 -12.21747009 -2.086649547e-18)
(147.1295646 -2.275760156 1.000494352e-18)
(147.7702098 -2.557566308 2.60392125e-18)
(147.3254915 -2.801806191 4.434085279e-19)
(136.5906647 0.2043067586 5.433029232e-19)
(135.9727546 -0.3721221549 3.330864023e-19)
(137.253942 -0.4079624674 5.488446205e-19)
(136.5621776 -0.8433745607 4.347043464e-21)
(146.9263035 -1.771277464 -5.021886426e-19)
(146.6929286 -2.498644298 -1.503658314e-18)
(146.4789883 -2.013362183 5.328778594e-19)
(141.9067751 -11.86597195 -2.282047582e-20)
(141.8968591 -11.4014775 -4.709858479e-19)
(142.2836187 -11.32850103 -9.596732663e-19)
(148.5167286 10.67231987 -5.582277103e-19)
(147.9418959 11.08324664 -5.5525238e-19)
(146.6891891 -1.287049446 0)
(147.1402582 -1.030654651 5.057376457e-19)
(136.1188545 0.9370362896 2.671219146e-19)
(136.7947669 1.264260012 -7.693355854e-21)
(137.3915719 0.7180976349 5.491889912e-19)
(129.4732755 -22.15098067 -5.601026869e-19)
(129.9701974 -22.34013536 -1.16432153e-19)
(129.5270044 -23.02156596 -8.4295309e-19)
(129.7786088 -22.86179271 1.040370847e-18)
(135.1238267 -18.86032938 -3.529817572e-19)
(135.3402835 -19.27722877 4.064439441e-19)
(135.0806938 -19.2004912 3.989392287e-19)
(130.6936259 -13.44631025 0)
(129.4389358 -13.465878 4.701152797e-19)
(129.5421206 -14.57272576 1.243398317e-19)
(130.5780976 -14.91718066 6.073633972e-19)
(130.9935503 -14.45981039 0)
(135.2309383 -18.22133424 -1.368200418e-19)
(134.8405229 -19.09499836 1.88876716e-19)
(134.4056952 -18.80753316 -1.011670566e-18)
(134.5531856 -18.11345566 -1.013908854e-18)
(128.9861922 -21.94574116 0)
(129.163278 -21.36743632 4.286885553e-19)
(129.7332559 -21.57463658 4.373982819e-19)
(141.5290318 -12.38929598 1.418777875e-18)
(141.5249965 -11.93331405 -1.31794622e-20)
(135.9717586 -18.26048478 1.36487349e-18)
(135.3680542 -17.51075792 3.816117415e-19)
(136.1564262 -17.75476066 2.549483781e-19)
(135.9754565 -17.43060985 -2.835113117e-19)
(130.5174972 -12.30363583 2.004967104e-20)
(131.8135937 -12.19402541 -1.374094059e-19)
(131.786595 -13.74445353 0)
(132.1948727 -13.2383367 6.444455931e-19)
(117.9640006 -25.52618129 -8.02759884e-19)
(118.3598442 -25.85491303 0)
(118.0133969 -26.25696766 -2.830883643e-19)
(122.868641 -24.64043279 3.386756415e-19)
(122.9738768 -25.3935596 -4.53348424e-19)
(122.5867677 -25.10115678 -3.312768929e-19)
(106.3652347 -30.68558178 2.698676563e-19)
(107.513172 -30.76571627 1.332217872e-20)
(104.6492799 -30.46433175 -1.828006625e-19)
(105.8525066 -30.58561004 6.565051843e-20)
(104.1202991 -30.22206168 4.599121089e-18)
(111.7899808 -26.0814273 -1.937349438e-19)
(109.0728955 -30.7027777 -8.522973533e-21)
(146.6879458 50.75415945 -1.884381002e-18)
(145.4303655 52.82668221 5.26453861e-18)
(144.9411377 53.4587807 3.454561522e-18)
(145.6676015 55.11960986 2.891822604e-18)
(121.0957592 61.44799508 -1.668537202e-18)
(118.6211111 62.98986035 -8.176911954e-19)
(120.4610504 66.28644502 -8.029043205e-19)
(123.2752013 63.85920205 -1.864838398e-20)
(122.6783755 -26.36453613 -4.164036743e-18)
(123.8992569 -26.35330142 -8.298017473e-20)
(122.7931609 -26.24674609 3.131195606e-18)
(116.8666222 -25.22947803 0)
(116.473654 -19.048095 2.81608268e-19)
(117.2272981 -19.47866987 0)
(113.3788693 -13.5819555 7.842713593e-19)
(113.5978171 -12.65949883 -5.415935937e-20)
(114.7907601 -13.02091218 5.413956826e-19)
(114.5867017 -14.13864903 -3.178248075e-20)
(119.0530775 -11.56306925 3.226861225e-21)
(117.5427286 -11.34342705 9.332390858e-19)
(105.593946 -29.64192652 -2.520223459e-18)
(107.6465781 -29.98262225 -6.43558746e-19)
(105.4918907 -29.51679793 -3.170505511e-18)
(98.33955096 -27.7553447 -2.052701362e-18)
(114.3193504 -28.96625131 -3.820058804e-19)
(114.8092887 -28.57715034 -9.33435578e-19)
(115.0329371 -28.97039474 2.007326963e-20)
(114.3722131 -29.28529436 -7.311628864e-19)
(114.6032086 -29.34212498 7.576822395e-20)
(117.256123 -28.71128894 0)
(117.0880094 -28.54052683 1.436466893e-19)
(117.000711 -28.88145605 -2.254958146e-19)
(116.9270606 -28.73876313 2.207131824e-19)
(122.0974446 38.70167881 1.624976959e-18)
(125.1928894 38.50108654 1.141733262e-18)
(123.5028286 37.23889948 7.688401068e-19)
(142.0791037 30.08896375 -8.296855801e-19)
(140.139355 28.0244516 -1.255370521e-18)
(140.3544789 29.88562109 1.22572485e-20)
(129.2140717 19.14852313 1.355948591e-19)
(129.1128799 21.13998533 6.37189969e-19)
(131.9061688 21.10642681 -9.038449008e-19)
(131.0654552 21.7946113 4.216410879e-19)