/*--------------------------------*- C++ -*----------------------------------*\
| =========                 |                                                 |
| \\      /  F ield         | OpenFOAM: The Open Source CFD Toolbox           |
|  \\    /   O peration     | Version:  v2012                                 |
|   \\  /    A nd           | Website:  www.openfoam.com                      |
|    \\/     M anipulation  |                                                 |
\*---------------------------------------------------------------------------*/
FoamFile
{
    version     2.0;
    format      ascii;
    class       surfaceScalarField;
    location    "2.42";
    object      meshPhi;
}
// * * * * * * * * * * * * * * * * * * * * * * * * * * * * * * * * * * * * * //

dimensions      [0 3 -1 0 0 0 0];
oriented        oriented;


internalField   nonuniform List<scalar> 
5999
(
0
0
0
0
0
0
0
0
0
0
0
0
0
0
0
0
0
0
0
0
0
0
0
0
0
0
0
0
0
0
0
0
0
0
0
0
0
0
0
0
0
0
0
0
0
0
0
0
0
0
0
0
0
0
0
0
0
0
0
0
0
0
0
0
0
0
0
0
0
0
0
-1.83309238e-09
3.050427103e-08
0
0
0
0
0
0
0
0
0
0
0
0
0
0
0
0
0
0
0
0
0
0
0
0
0
0
0
0
0
8.674312637e-09
-4.599336799e-07
-7.605523065e-07
2.90820013e-06
2.886631132e-06
-2.583326015e-05
-6.51670082e-06
3.655014012e-05
3.96069831e-06
-6.785011337e-05
-7.003309198e-06
7.603135842e-05
0
0
0
0
0
0
0
0
0
0
0
0
0
0
0
0
0
0
0
0
0
0
0
0
0
4.114199262e-07
-8.954908246e-07
-1.988410636e-06
6.407112559e-06
1.270106208e-05
-5.573615536e-05
-1.901341586e-05
7.959078125e-05
2.416868837e-05
-0.000159120137
-3.172711671e-05
0.0001852346207
2.100309966e-05
-0.0002517645267
-2.706294818e-05
0.000268031929
0
0
0
0
0
0
0
0
0
0
0
0
0
0
0
0
0
0
0
0
0
0
0
-1.375670364e-07
3.039096828e-07
1.389006152e-05
-3.680240758e-05
-1.887167711e-05
6.311713707e-05
4.109825047e-05
-0.0001674012009
-4.882320655e-05
0.0002063024961
5.697926185e-05
-0.0003199263888
-6.561615688e-05
0.0003535834344
4.706748959e-05
-0.0004324649013
-5.351118988e-05
0.0004502822109
0
0
0
0
0
0
0
0
0
0
0
0
0
0
0
0
0
0
0
0
0
3.840852447e-06
-3.935643086e-06
-6.035413932e-06
1.693277389e-05
3.732514498e-05
-0.0001011978593
-4.272519857e-05
0.0001401670965
6.991433057e-05
-0.0002744173216
-7.872702213e-05
0.0003200813279
9.065763448e-05
-0.0004334898296
-9.465636381e-05
0.0004593695949
6.844715724e-05
-0.0005140286332
-7.12172751e-05
0.000522214457
0
0
0
0
0
0
0
0
0
0
0
0
0
0
0
0
0
0
-1.212984401e-07
2.585362881e-09
9.508352057e-08
1.277009531e-05
-1.757646736e-05
-1.507706472e-05
3.939567636e-05
5.372603449e-05
-0.0001439311958
-5.899634602e-05
0.0001912027302
9.867235744e-05
-0.0003276903296
-0.000102842771
0.0003687142835
0.0001103823268
-0.0004623353608
-0.0001177863531
0.0004824267212
6.82159222e-05
-0.0004997123174
-2.299382504e-05
-3.588844272e-05
0.0002444144087
0.0002459642542
0
0
0
0
0
0
0
0
0
0
0
0
0
0
0
0
5.085325898e-07
0
-1.090893876e-06
8.049893262e-07
1.182519559e-06
1.962830038e-05
-2.617003838e-05
-2.016071779e-05
5.114693528e-05
6.637332437e-05
-0.0001618319634
-6.729186753e-05
0.000205632352
0.0001127512551
-0.0003328993168
-0.0001142315211
0.0003684977006
0.0001265416862
-0.0004352139238
-0.0001280093609
0.0004407331951
3.903863318e-05
-0.0002249231047
-3.872348085e-05
0.0002246079523
0
0
0
0
0
0
0
0
0
0
0
0
0
0
0
0
1.419467985e-06
0
-1.789078749e-06
1.91658037e-06
2.081929973e-06
2.291097358e-05
-2.855345401e-05
-2.348031595e-05
5.255388675e-05
7.093609817e-05
-0.0001545591066
-7.165995279e-05
0.0001938855343
0.0001182461089
-0.0003055620896
-0.0001189886625
0.000335509678
0.0001299452127
-0.0003861236306
-0.0001301932046
0.0003879409978
3.990453137e-05
-0.0001956062462
-3.989850858e-05
0.0001956002234
0
0
0
0
0
0
0
0
0
0
0
0
0
0
0
0
2.14370362e-06
0
-2.627398642e-06
2.491151321e-06
2.662138847e-06
2.488318167e-05
-2.775798311e-05
-2.544378938e-05
4.951468405e-05
7.337602693e-05
-0.0001398462294
-7.406879584e-05
0.0001741756208
0.0001206875408
-0.0002703905421
-0.0001213893401
0.0002957415162
0.0001306660958
-0.0003368527148
-0.0001308130872
0.0003377524189
3.985347604e-05
-0.0001702677666
-3.978861692e-05
8.544940543e-05
8.475350202e-05
0
0
0
0
0
0
0
0
0
0
0
0
0
0
0
0
3.151455943e-06
0
-3.747075113e-06
3.123620141e-06
3.263024e-06
2.717635212e-05
-2.666511127e-05
-2.777910347e-05
4.603962567e-05
7.619331964e-05
-0.0001244976965
-7.692649197e-05
0.0001538572382
0.000123546465
-0.0002350325235
-0.0001242972745
0.0002560103266
0.0001312291852
-0.0002884233696
-0.0001313383168
0.0002887627332
3.973288071e-05
-0.0001458373903
-3.97047983e-05
7.328150716e-05
7.252780078e-05
0
0
0
0
0
0
0
0
0
4.455734593e-06
0
3.676198175e-06
3.620925621e-06
2.972304872e-05
-2.487174596e-05
-3.047356253e-05
4.155912938e-05
7.928482321e-05
-0.0001074283503
-8.019520012e-05
0.0001317078962
0.0001267276101
-0.0001979817391
-0.0001276733114
0.0002148048516
0.0001315898053
-0.0002394564848
-0.0001316239279
0.000239503479
3.957255756e-05
-0.0001212536057
-3.955772543e-05
6.098049895e-05
6.025827467e-05
-0.0001989977534
0.0001990017621
3.990052259e-05
-0.0001733464738
3.990407573e-05
8.707996652e-05
8.621590755e-05
-0.0001488960531
3.976654283e-05
7.483284127e-05
7.402954971e-05
-0.0001242906284
3.961046669e-05
6.251540194e-05
6.173731729e-05
-0.0002280403476
0.0002279825294
3.909645145e-05
-0.0003490101224
0.0003500733315
0.0001305331108
-4.330307048e-05
4.332023464e-05
-0.0001733636379
4.335729736e-05
-0.0001955932158
-4.337032776e-05
-0.0003006351152
0.0003010807881
0.0001311122839
-4.320197414e-05
4.321935547e-05
-0.0001489134344
-0.0001702866272
-4.328420987e-05
-3.977249669e-05
-0.0001612570352
3.979309831e-05
8.098883412e-05
8.024759946e-05
-1.435818646e-05
4.004773628e-05
1.431304886e-05
-8.025697047e-05
4.025437179e-05
1.434035961e-05
4.274784781e-05
-8.540319019e-05
-1.429898929e-05
4.261397206e-05
-0.0002516367658
0.0002517749501
0.0001314977668
-4.307793847e-05
4.309645107e-05
-0.0001243091409
-0.0001458500662
-4.318929834e-05
-3.970081622e-05
-0.0001366261456
3.968977461e-05
6.871198493e-05
6.792520226e-05
-7.082575541e-06
3.381471216e-05
7.10899052e-06
-3.384112714e-05
1.420090099e-05
3.670510789e-05
-7.326327368e-05
-1.419694255e-05
3.655420734e-05
-0.0001212701524
-4.306139178e-05
-2.019481701e-05
-5.566773221e-05
5.566926986e-05
2.019327936e-05
-7.551050995e-06
2.789808174e-05
7.46477911e-06
-2.781180986e-05
7.345078577e-06
3.043679356e-05
-3.049445069e-05
-7.287421436e-06
1.349233302e-05
-0.0001048563981
-1.341710499e-05
5.242897905e-05
5.235219105e-05
-1.362289296e-05
-9.903915262e-05
1.358205075e-05
4.972293128e-05
4.935706355e-05
-0.0001136420597
1.137938395e-05
-1.117648647e-05
0.0001134391622
-0.0001059274673
0.0001060110317
1.340876853e-05
4.291670899e-05
1.438789948e-05
-8.616912078e-05
4.32048719e-05
9.169154582e-05
1.432977091e-05
-9.170366329e-05
-1.431765344e-05
3.9898651e-05
-0.0001827791301
-3.988257564e-05
0.0001827630548
1.34692825e-05
-1.339557593e-05
4.590857505e-05
4.57092642e-05
-6.89623635e-06
4.291323954e-05
6.899705803e-06
-9.812521825e-05
-1.357536917e-05
4.914225187e-05
4.893544259e-05
-9.25488289e-05
1.346824901e-05
4.639639901e-05
4.615346338e-05
3.688028387e-05
1.425114154e-05
-7.398274036e-05
3.705221594e-05
3.990640624e-05
-7.954153807e-05
-1.440436296e-05
3.968130833e-05
-0.0001582387518
-3.979902952e-05
7.953258163e-05
7.8732703e-05
7.000960767e-06
-7.018943289e-06
3.992438876e-05
-6.742106053e-06
3.685432172e-05
6.768068196e-06
-6.878547535e-06
4.2730159e-05
4.011299543e-05
6.935701613e-06
3.064239971e-05
7.389347334e-06
-3.068666847e-05
3.361632639e-05
-3.363884768e-05
-7.060054251e-06
-0.0001334569832
-3.964284667e-05
6.711258183e-05
6.62864318e-05
6.94940669e-06
-6.891145598e-06
3.35580653e-05
-7.340492883e-06
3.056108911e-05
7.421803482e-06
-6.732673606e-06
3.669567544e-05
3.37691135e-05
6.995005355e-06
2.750342674e-05
-2.753186556e-05
-7.52261217e-06
5.48808552e-05
7.517455859e-06
-7.448717377e-06
2.743468826e-05
-7.245935813e-06
3.034223649e-05
2.796991848e-05
7.445619122e-06
-0.0003984518121
0.0004007940094
0.000129510385
4.334492092e-05
-0.0001989853769
4.257238257e-05
-0.0002245943031
-4.290118412e-05
-3.967639205e-05
-0.0002127655855
0.0002127551742
3.968680332e-05
-1.430472452e-05
1.42877408e-05
-0.0001059104835
1.366956639e-05
-0.000113942947
-1.336867908e-05
-0.000185960008
0.00018596822
3.989043892e-05
1.433824565e-05
-9.255730365e-05
1.437638066e-05
-9.812493563e-05
-1.437666327e-05
1.436641021e-05
-9.902918218e-05
-0.0001048610096
-1.430011299e-05
-0.0002083791013
-3.980698493e-05
0.0002085096942
4.470117227e-06
-5.053609318e-05
-4.551621783e-06
5.061759774e-05
-5.879536791e-05
2.872946803e-06
-3.666192109e-06
5.958861322e-05
-5.535184584e-05
-4.430104562e-06
5.537724276e-05
4.404707638e-06
-0.0002464613042
2.034792506e-05
-6.394202623e-06
-1.028051751e-05
0.0001208822079
0.0001219058915
-0.0001134788982
0.0001157472605
9.111021675e-06
2.896129652e-05
6.854128008e-06
-2.901390491e-05
-6.801519609e-06
1.670378132e-05
-5.789709011e-05
-1.669146778e-05
5.788477656e-05
-1.668224471e-05
-5.564777579e-05
5.564883585e-05
1.668118465e-05
-5.451685214e-05
4.030272572e-06
-1.915625403e-05
6.96428336e-05
-5.04933974e-05
4.525793039e-06
5.043772159e-05
-1.343472587e-05
-0.0001023996612
1.348357546e-05
5.119852677e-05
5.115228479e-05
-5.224335269e-06
5.385203662e-06
-5.065426579e-05
5.25752458e-06
-5.373664921e-05
-6.03772751e-06
-5.70440023e-06
9.036587737e-06
-4.965611098e-05
4.632392347e-05
-5.066808864e-05
-5.09233981e-06
-0.0001017095931
-1.353916274e-05
5.106201813e-05
5.07520118e-05
-1.31428991e-05
-0.0001111661262
0.0001112540802
1.305494516e-05
-5.120844841e-06
5.176926281e-06
-5.540792728e-05
1.899514776e-06
-5.703805357e-05
-3.656829118e-06
5.385152717e-05
4.972125209e-06
-5.35661278e-05
5.515438396e-05
-5.511207766e-05
-5.163151137e-06
-0.0001094887814
-1.322474664e-05
0.0001095706289
-4.797791703e-06
5.55220711e-05
5.371007533e-05
4.171724413e-06
-6.921888609e-06
-4.459600969e-05
4.462502883e-05
6.892869473e-06
4.749167217e-06
-4.568732837e-05
-4.737291864e-06
4.567545301e-05
-4.442780781e-05
-6.927949034e-06
4.443386823e-05
-1.355533456e-05
-9.582237955e-05
1.352953961e-05
4.801852882e-05
4.782964568e-05
-4.881962929e-06
4.879292566e-06
-4.757042843e-05
4.757309879e-05
-4.895314724e-05
-5.104754159e-06
4.835350117e-05
4.775740996e-06
-4.591331884e-05
4.588674506e-05
-4.73398317e-05
-4.863414741e-06
4.732128351e-05
-9.492756061e-05
-1.352954138e-05
4.758619918e-05
4.731556825e-05
-6.92091278e-06
-3.8430248e-05
3.841397747e-05
6.937183313e-06
-3.827678738e-05
-6.896016882e-06
3.825189149e-05
-6.809079257e-06
-4.152704384e-05
4.151133533e-05
6.824787763e-06
-4.134128338e-05
-6.803172018e-06
4.133537614e-05
-6.629808485e-06
-3.237310281e-05
3.238622594e-05
6.616685352e-06
-3.225850747e-05
-6.732223756e-06
3.236092275e-05
-7.236848181e-06
-3.545875508e-05
3.552462043e-05
7.170982829e-06
-3.522171779e-05
-7.247136851e-06
3.523200646e-05
-5.486648542e-05
5.485951679e-05
-6.580942179e-06
-2.915254253e-05
2.905769698e-05
6.675787729e-06
-6.491326098e-06
2.887168043e-05
3.373661393e-06
-0.0001210905304
-4.108338979e-06
-5.990826997e-05
5.994223294e-05
2.838983828e-06
7.234496375e-06
-3.521562503e-05
-7.240589129e-06
1.682072119e-05
-7.023987464e-05
-1.681070069e-05
7.022985414e-05
-1.679557808e-05
-6.792152513e-05
6.79164598e-05
1.68006434e-05
1.68347868e-05
-7.327529032e-05
-1.683132607e-05
7.327182959e-05
-7.100441971e-05
7.100081011e-05
1.682433079e-05
7.192642121e-06
-3.541690083e-05
1.675044507e-05
-6.09702397e-05
-1.673661853e-05
6.095641316e-05
-5.872107416e-05
5.871142246e-05
1.671343302e-05
6.91106446e-06
-2.920947898e-05
1.43121108e-05
3.809822619e-05
-7.639112891e-05
-1.429599546e-05
1.68567659e-05
-7.641051451e-05
-1.685345822e-05
7.640720683e-05
-7.401488703e-05
7.400458574e-05
1.684508809e-05
-5.905783593e-06
3.66518614e-05
5.985537247e-06
-3.673161506e-05
3.72621425e-05
6.242409217e-06
-3.735180237e-05
-6.15274935e-06
6.833322801e-06
-3.748722689e-05
-6.807782089e-06
3.746168618e-05
6.930247913e-06
-3.219642142e-05
-6.992333963e-06
1.677472145e-05
-6.407798282e-05
-1.677352155e-05
6.407678292e-05
-6.171551224e-05
6.170876642e-05
1.675719088e-05
-6.710409082e-05
-1.679043796e-05
6.70989507e-05
-6.484547344e-05
6.484624367e-05
1.677395122e-05
6.905019317e-06
-3.234787421e-05
-6.744749637e-06
-3.293553675e-05
3.288812553e-05
6.792160863e-06
-6.035845024e-06
3.262219264e-05
6.121440536e-06
-3.270778815e-05
6.327345446e-06
3.33349942e-05
-3.339983476e-05
-6.262504887e-06
-5.679985332e-06
5.715157858e-06
-3.03631068e-05
3.032793428e-05
8.620497554e-06
-3.161737246e-05
-6.245717219e-06
2.924259213e-05
7.397781884e-06
-3.144032973e-05
-7.485652821e-06
3.152820066e-05
-6.791756835e-06
-3.622347841e-05
3.627555589e-05
6.739679357e-06
-5.645932666e-06
3.649141903e-05
5.636532578e-06
-3.648201894e-05
3.650014165e-05
-3.659602923e-05
-5.809896008e-06
3.353314315e-05
6.398931878e-06
-3.360472959e-05
3.410831213e-05
6.610596489e-06
-3.418213542e-05
-6.536773203e-06
7.143680315e-06
-3.439908505e-05
-7.092270943e-06
3.434767568e-05
-6.965475955e-06
-2.990276253e-05
2.98110481e-05
7.057190383e-06
-5.536168112e-06
5.563162852e-06
-2.959936658e-05
2.957237184e-05
-3.012953801e-05
-5.618428461e-06
3.006798114e-05
4.36293668e-06
-2.921329213e-05
-7.288093942e-07
2.557916484e-05
6.469665235e-06
-2.863029362e-05
-6.75642079e-06
2.891704918e-05
-3.24207456e-06
-5.014136314e-05
4.25873878e-06
4.912469892e-05
-5.11285956e-05
2.172949908e-06
4.571357113e-05
-4.579423418e-06
-5.769096251e-05
5.784130703e-05
4.4290789e-06
-5.767681822e-05
-4.312721892e-06
5.74101167e-05
-4.867899834e-06
-5.134697506e-05
5.583463635e-06
5.063141126e-05
-5.097602606e-05
-4.759985423e-06
5.086811165e-05
5.992790429e-06
-5.122337385e-05
-5.745442642e-06
6.369109156e-06
-5.168914151e-05
-6.276775529e-06
5.159680788e-05
-5.978780879e-06
-5.109473866e-05
5.099327327e-05
6.080246265e-06
5.895198724e-06
-5.257062065e-05
-6.197217844e-06
5.287263977e-05
-5.19991702e-05
5.195756326e-05
6.410716092e-06
6.303285728e-06
-5.165747036e-05
4.429746596e-06
-5.116978466e-05
-4.388557535e-06
5.94110207e-06
-5.029735863e-05
-6.146564799e-06
5.050282136e-05
-6.713032125e-06
-4.946149923e-05
4.956212396e-05
6.6124074e-06
-5.102962279e-05
-5.913100242e-06
5.096394215e-05
-5.027370526e-05
5.036050947e-05
5.854297863e-06
4.698049103e-06
-5.040966564e-05
5.315900882e-05
5.878701933e-06
-5.35614213e-05
-5.476289455e-06
6.009522382e-06
-5.382985023e-05
-6.006202753e-06
5.38265306e-05
-5.293759548e-05
5.296332437e-05
5.869469833e-06
-5.918915271e-06
-5.366862168e-05
5.328569764e-05
6.301839309e-06
-5.258176532e-06
5.249827008e-05
4.460275654e-06
-4.553024993e-05
-3.668692044e-06
4.473866632e-05
5.612941159e-06
-4.555733798e-05
-5.725416258e-06
4.566981308e-05
-6.751315389e-06
-4.500849022e-05
4.531459775e-05
6.445207857e-06
5.746192129e-06
-4.586895199e-05
-5.680026703e-06
4.580278657e-05
-4.552792794e-05
4.554216322e-05
5.598705878e-06
4.588986984e-06
-4.531526813e-05
4.518655681e-05
6.721158679e-06
-4.353704921e-05
-6.662156795e-06
4.347804733e-05
-6.467541901e-06
-4.279494242e-05
4.273425665e-05
6.528227671e-06
-4.464946674e-05
-6.860115099e-06
4.475826645e-05
-4.375446749e-05
4.368766539e-05
6.787960787e-06
4.955547753e-06
-4.802389905e-05
-4.938046824e-06
4.800639812e-05
6.496574828e-06
-4.824986747e-05
-6.427650464e-06
4.81809431e-05
-6.218623266e-06
-4.778100952e-05
4.771642078e-05
6.283212002e-06
-4.912903626e-05
-6.711785874e-06
4.912779001e-05
-4.852523779e-05
4.844745719e-05
6.574355428e-06
4.987109101e-06
-4.824637342e-05
4.821481207e-05
4.764490993e-06
-4.654134688e-05
-4.757279421e-06
4.653413531e-05
5.969326616e-06
-4.67335092e-05
-5.907363243e-06
4.667154582e-05
-4.60913644e-05
4.604140178e-05
5.796154745e-06
-4.752821278e-05
-6.146794681e-06
4.745638419e-05
-4.681281324e-05
4.675927679e-05
6.022863062e-06
4.821778502e-06
-4.662114317e-05
4.656385566e-05
6.511806006e-06
-3.879807706e-05
-6.445806826e-06
3.873207788e-05
-6.244640444e-06
-3.820841241e-05
3.814328917e-05
6.309763682e-06
6.820450087e-06
-4.01808119e-05
-6.83531931e-06
4.019568112e-05
-3.904404586e-05
3.896173765e-05
6.594114213e-06
5.97743849e-06
-5.916095096e-06
3.72007991e-05
-5.701416195e-06
3.657615017e-05
5.777127422e-06
-3.804452953e-05
-6.172535488e-06
3.797242457e-05
-3.748147156e-05
3.742014184e-05
6.03876821e-06
6.150784217e-06
-4.194971485e-05
-6.058441838e-06
4.185737247e-05
-5.810982964e-06
-4.137399035e-05
4.128838714e-05
5.896586177e-06
-4.259848115e-05
-6.393917572e-06
4.252485682e-05
-4.213472375e-05
4.2050578e-05
6.234929968e-06
5.454592153e-06
-4.091380873e-05
-5.464641626e-06
4.09238582e-05
-4.074412945e-05
4.112493611e-05
6.439643431e-06
-4.119427881e-05
-5.724589062e-06
4.110788491e-05
-4.083212355e-05
4.074935637e-05
5.537359334e-06
3.209002118e-05
-5.533561495e-06
5.727374554e-06
-3.228383424e-05
3.247476017e-05
-3.25643209e-05
-5.946284289e-06
-3.28062243e-05
-6.686372126e-06
3.274784679e-05
5.282907852e-06
-5.266585405e-06
3.245843772e-05
-5.023609749e-06
5.162911069e-06
3.195071986e-05
5.400031988e-06
-5.384730949e-06
3.331969316e-05
5.348234522e-06
3.255686597e-05
-3.221571175e-05
-4.244987822e-06
3.143708982e-05
-3.171879884e-05
3.192516838e-05
7.191412344e-06
1.523131108e-05
-3.261147587e-05
2.600066235e-05
-3.244965097e-05
-5.299622271e-06
3.573886787e-05
-7.00524071e-06
6.989744709e-06
-3.572337187e-05
3.702756868e-05
-3.668251913e-05
-5.990982215e-06
-3.607299169e-05
-6.893850498e-06
3.617508535e-05
5.100940572e-06
-5.090444583e-06
3.701707269e-05
-6.111891259e-06
8.679689681e-06
3.317106945e-05
-5.617170859e-06
3.641589631e-05
3.626339511e-05
5.328964486e-06
5.488293639e-06
-5.465231307e-06
3.40852498e-05
5.421568246e-06
3.35116069e-05
-3.508356299e-05
-5.6334236e-06
3.460509533e-05
-3.430246808e-05
5.513591056e-06
3.427717067e-05
-3.458718802e-05
3.453796081e-05
7.192907526e-06
6.687996472e-06
-3.437986806e-05
-3.520257901e-05
-6.886224698e-06
-5.411293459e-06
5.439651899e-06
-2.885548115e-05
2.882712271e-05
-2.94147036e-05
-5.504748534e-06
2.938328402e-05
-2.971109369e-05
-6.868347005e-06
2.961396474e-05
-2.857378812e-05
2.865186884e-05
6.39158451e-06
5.145910436e-06
-2.835718549e-05
2.757421174e-05
-2.865515246e-05
-5.388842736e-06
2.863270173e-05
1.428635613e-05
4.114753441e-05
-8.249592181e-05
-1.427925211e-05
1.688010169e-05
-8.250602706e-05
-1.687686699e-05
8.250279236e-05
-1.687153011e-05
-8.024358952e-05
8.024181082e-05
1.687330881e-05
-8.542781484e-05
1.689789396e-05
-1.68961172e-05
8.542603808e-05
-8.327342572e-05
8.326394857e-05
1.688957884e-05
4.171924035e-05
1.429584456e-05
-8.325577262e-05
-7.95325548e-05
-1.686975185e-05
7.953077654e-05
-7.711730815e-05
7.711246968e-05
1.686160438e-05
3.86151501e-05
1.435590202e-05
-7.708918933e-05
-7.020591495e-06
-3.921986962e-05
3.922137167e-05
7.019089447e-06
-6.907323824e-06
6.991403827e-06
-3.912812586e-05
7.005629967e-06
-4.00849185e-05
-7.10152337e-06
6.703835797e-06
-4.044233528e-05
5.869951688e-06
-4.080463899e-05
-5.979121429e-06
6.801996292e-06
-4.060563029e-05
-6.833582858e-06
4.063721686e-05
-5.027509433e-05
-4.534393665e-06
5.025786621e-05
-9.174882056e-06
-5.355619054e-05
4.357481856e-05
-3.016937245e-06
7.265977085e-05
-5.04642113e-05
4.669490567e-06
5.032051378e-05
-5.064776036e-05
5.568752724e-06
-5.692314512e-06
5.89405708e-06
-5.084950293e-05
-5.504492873e-06
-5.084208743e-05
-5.07804977e-05
1.870756755e-05
4.11095179e-05
-6.436844866e-06
6.055684122e-06
-5.039933696e-05
-6.432123683e-06
-4.966083216e-05
-5.341512332e-06
-5.083106918e-05
5.042100709e-05
-5.195367455e-06
-5.056715197e-05
-4.94642705e-06
5.902530202e-06
-5.50061092e-05
-6.002353184e-06
5.510593219e-05
-5.422843568e-05
5.421171001e-05
6.026248059e-06
6.118211541e-06
-5.390813129e-05
5.637000011e-05
-5.862780283e-06
-5.530501153e-05
3.710790931e-06
-1.941783253e-05
7.207704171e-05
5.504961164e-05
4.183250392e-06
2.858151969e-06
4.783498612e-05
-5.251804761e-05
4.090863554e-06
5.128533602e-05
4.710907937e-06
-5.305723113e-05
-5.926054343e-05
-1.2570182e-06
6.051756163e-05
-1.767590694e-05
4.719380327e-06
-4.630401682e-05
-8.840701912e-06
-4.568533252e-05
3.68501275e-05
-5.231893244e-06
5.289436925e-06
-4.574487205e-05
4.546508023e-05
-5.166185766e-06
-4.553078771e-05
-4.696679481e-06
4.542446784e-05
-5.146213618e-06
5.154902685e-06
-4.296552164e-05
4.295683257e-05
-5.149329317e-06
-4.269616329e-05
4.269927899e-05
-5.799523894e-06
-4.479508192e-05
4.17539039e-05
-5.285842621e-06
-4.418641152e-05
4.367273025e-05
-4.772038072e-05
4.870933766e-06
4.772873952e-05
-5.785959412e-06
5.85076374e-06
-4.778518504e-05
-5.720049491e-06
-4.763633835e-05
-6.306362019e-06
-4.90789089e-05
4.863003489e-05
-6.170003295e-06
-4.876639362e-05
-4.985505867e-06
4.85107866e-05
-4.618182374e-05
4.791496441e-06
4.616606829e-05
-5.343492645e-06
5.396344686e-06
-4.623467578e-05
-4.596737456e-05
-5.672795192e-06
-4.7387086e-05
4.70727764e-05
-5.617948141e-06
-4.712762346e-05
-4.855355438e-06
4.70647171e-05
-6.573436732e-06
6.659585413e-06
-3.829456109e-05
-3.888247371e-05
-6.822927179e-06
-3.903352122e-05
-6.977343798e-06
3.899027352e-05
-3.769613691e-05
3.767412037e-05
6.855339334e-06
6.32530872e-06
-3.756437107e-05
-3.812347623e-05
-6.494490029e-06
-6.057439258e-06
6.133721231e-06
-4.145027232e-05
6.347317922e-06
-4.201813962e-05
-6.278893153e-06
6.849639291e-06
-4.210482739e-05
-6.840285285e-06
4.209547338e-05
-4.972132013e-06
4.993050802e-06
-4.140885181e-05
4.138793302e-05
-4.942378732e-06
-4.122378838e-05
4.11940351e-05
-5.066747799e-06
-4.245364432e-05
4.23710628e-05
-5.068430546e-06
-4.232884837e-05
4.233053112e-05
-7.722610681e-07
-5.366345551e-05
5.443571658e-05
-4.926920919e-06
-4.10252986e-05
4.100984079e-05
-4.084622268e-05
-4.89126914e-06
4.08105709e-05
-4.078176825e-05
4.079556985e-05
6.788194697e-06
5.873455629e-06
-4.083562748e-05
-4.126188562e-05
-5.989832451e-06
-3.291278608e-05
3.284228972e-05
6.191936896e-06
-6.36659158e-06
-3.300730959e-05
6.461115091e-06
-6.267754837e-06
-3.28066249e-05
-3.061387778e-05
5.797229638e-06
3.0531806e-05
-6.941535644e-06
7.06852066e-06
-3.074086279e-05
-6.845377025e-06
-3.045926541e-05
-7.203773416e-06
7.20541782e-06
-3.161901686e-05
3.097068585e-05
-3.110593861e-05
3.052219827e-05
-5.886141468e-06
6.329217664e-06
-2.728517783e-05
2.684210163e-05
-2.692244308e-05
2.683604211e-05
-2.978504028e-05
5.590206e-06
2.975799713e-05
-6.557800105e-06
6.65513815e-06
-2.988237833e-05
-6.466817413e-06
-2.969034927e-05
-6.748475188e-06
-3.022643985e-05
2.996116295e-05
-3.005449998e-05
2.993294049e-05
-8.496445969e-06
1.449156293e-05
-2.896395022e-05
2.296883326e-05
-2.795603005e-05
2.578880175e-05
-5.353696303e-06
5.387949953e-06
-2.924754578e-05
3.872163181e-05
-2.958376518e-05
3.799282241e-05
-4.994245267e-05
4.966679779e-05
-6.592147973e-05
6.809442964e-05
-3.127133471e-06
-5.844797504e-05
2.742598862e-06
-2.635634856e-06
-5.745248585e-05
-8.665949337e-06
1.910448633e-05
-5.654415159e-05
-3.510535399e-06
-5.475080924e-05
4.95953953e-05
-2.342164685e-06
-5.696656646e-05
7.469784629e-05
-5.793552465e-05
-5.217216762e-05
4.85807492e-05
-5.066125285e-05
5.0570758e-05
-5.380252693e-06
5.028256356e-06
-5.081778832e-05
5.160246972e-05
-5.092703829e-05
-5.019083062e-05
-5.059078383e-06
-5.032711969e-05
-5.044048767e-05
9.248633807e-06
-5.340435099e-06
4.937749893e-05
-5.507846293e-05
4.49092642e-05
-5.463940391e-05
3.666769481e-06
4.787230676e-05
7.574381119e-05
5.239405195e-05
-5.294132055e-05
4.37928242e-06
5.210563309e-05
5.15371174e-05
-4.716054061e-06
4.8954841e-06
-4.570967997e-05
4.616362052e-05
-4.616029426e-05
4.123791028e-05
-4.530130454e-05
4.519361204e-05
-5.049294575e-06
-4.541819573e-05
-4.546907861e-05
-5.165923575e-06
5.179302411e-06
-4.341099513e-05
4.33976163e-05
-4.320777e-05
4.319674911e-05
-5.209399816e-06
-4.384183807e-05
4.376539526e-05
-4.361975642e-05
4.358965901e-05
-5.914768106e-06
5.977020751e-06
-4.80861517e-05
4.783045047e-05
-4.789445483e-05
4.776333741e-05
-4.848055684e-05
4.848216007e-05
-6.080687436e-06
-4.85698727e-05
-4.835004011e-05
-5.434352027e-06
5.485996196e-06
-4.659299105e-05
4.642786348e-05
-4.646587082e-05
4.64620805e-05
-4.681090237e-05
4.677732543e-05
-5.554094694e-06
-4.687475582e-05
-4.668924167e-05
3.851362248e-05
-6.389456432e-06
-3.856997287e-05
5.333692984e-06
-5.313625927e-06
3.849355542e-05
5.363696548e-06
3.870207431e-05
5.282933581e-06
-5.253665343e-06
3.811402093e-05
-3.830087446e-05
3.827018212e-05
-3.838056721e-05
3.955614933e-05
-6.701975163e-06
-3.968949348e-05
5.974734918e-06
-5.456211748e-06
3.903762616e-05
8.782997591e-06
3.738741845e-05
5.402603362e-06
3.892283084e-05
-3.923414427e-05
3.918053588e-05
-3.934200522e-05
3.698063422e-05
-5.847543039e-06
-3.704918628e-05
5.170711216e-06
-5.158332789e-06
3.69682558e-05
5.183854851e-06
3.718765547e-05
5.123940515e-06
-5.084669189e-06
3.653687885e-05
-3.675828074e-05
3.672388846e-05
-3.682869636e-05
3.780995665e-05
-6.107611311e-06
-3.787488083e-05
5.231870811e-06
-5.222540535e-06
3.780062638e-05
3.795063003e-05
5.210557683e-06
3.739343901e-05
-3.763098873e-05
3.761900588e-05
-3.769983183e-05
-5.005726252e-06
-4.180221268e-05
5.034721228e-06
4.17732177e-05
-4.160201366e-05
4.158933822e-05
4.167256029e-05
-5.973854563e-06
-4.175714756e-05
5.80538227e-06
-5.73483565e-06
5.86054206e-06
5.663682334e-06
-5.599083574e-06
-4.148000513e-05
-4.155727352e-05
-5.048463639e-06
-4.217464606e-05
4.215467915e-05
-4.197967532e-05
4.196593291e-05
-3.840103844e-06
-4.069468522e-05
4.684575471e-06
3.985021359e-05
-4.143835022e-05
3.682598531e-05
4.145598313e-05
-5.818326541e-06
-4.110229822e-05
4.91501267e-06
-4.897379757e-06
5.144185655e-06
1.682347669e-05
3.308445701e-05
-4.173735857e-05
-4.111604168e-05
4.092165165e-05
-5.63599512e-06
-4.101024559e-05
5.516497266e-06
-5.441068297e-06
5.319619848e-06
4.057392217e-05
-4.078525879e-05
4.066381034e-05
-4.088389458e-05
-4.82765127e-06
4.060019247e-05
4.043084637e-05
-3.230928972e-05
5.848502756e-06
3.218816151e-05
-5.955175654e-06
6.061426061e-06
-3.241554013e-05
-5.864358685e-06
-3.237465121e-05
-6.165873368e-06
-3.266620237e-05
3.243366691e-05
-3.253811422e-05
3.233588538e-05
-5.233854157e-06
3.230315413e-05
3.211721843e-05
-5.382938089e-06
-3.310497819e-05
3.310318533e-05
3.280758616e-05
-3.172256992e-07
-3.296681876e-05
2.903905663e-05
-4.32136867e-05
4.2896461e-05
-3.325911502e-05
5.276739396e-06
-6.829337972e-06
6.19963783e-06
-3.262941487e-05
-3.223539602e-05
-5.858660374e-06
-3.245534928e-05
3.298970163e-05
-3.264872417e-05
4.820392906e-05
-1.598228362e-05
-3.731209003e-05
-1.957731224e-07
4.839970219e-05
4.049688712e-06
3.277161086e-05
-3.668838836e-05
2.938579442e-05
3.626357695e-05
-5.510411164e-06
-3.637033665e-05
5.061766398e-06
-4.999136784e-06
3.620094734e-05
3.639299352e-05
4.863510576e-06
3.544957325e-05
-3.614493386e-05
3.600930766e-05
-3.632638054e-05
-5.443207114e-06
-3.392252664e-05
3.390050245e-05
-3.37313991e-05
3.370976023e-05
-5.560801073e-06
-3.474012094e-05
3.466749841e-05
-3.450981554e-05
3.446260553e-05
-2.903275814e-05
5.47268951e-06
2.899972052e-05
-6.194879619e-06
6.286153864e-06
-2.912403238e-05
-6.107220502e-06
-2.894314027e-05
-6.376526604e-06
-2.950499441e-05
2.92235613e-05
-2.931393403e-05
2.919150227e-05
-2.823398279e-05
5.341709079e-06
2.803818415e-05
-5.652660954e-06
5.872495548e-06
-2.845381738e-05
-2.862189649e-05
-6.001124162e-06
-2.87612488e-05
2.844038183e-05
-2.856901044e-05
2.839324817e-05
0
0
0
0
0
0
0
0
0
0
0
0
0
0
0
0
0
0
0
3.842841083e-08
0
8.862558734e-06
-1.93246512e-06
2.37853518e-07
-4.0544608e-06
0
0
0
1.51315249e-05
6.7437799e-07
3.611741655e-05
-4.28626327e-06
1.803680894e-06
-2.935630744e-05
0
0
0
4.194959051e-05
1.772304206e-06
0
0
0
0
0
0
0
0
0
1.257908554e-06
0
3.349135898e-05
-8.808150807e-06
4.353807665e-06
-1.800898454e-05
0
-1.150692586e-07
5.233801012e-05
7.347900757e-06
0.0001193196761
-2.24127239e-05
1.566644664e-05
-9.618187741e-05
-1.611529496e-05
-5.213763078e-06
0.0001421187375
1.732985435e-05
0.0002012721044
-2.354213951e-05
1.7467826e-05
-0.0001837390632
-5.818200011e-05
-7.761252153e-06
0.0002158749518
1.557905807e-05
0
0
0
2.394238452e-05
-7.614273328e-06
4.118838049e-06
-8.609634296e-06
0
-3.194632777e-07
4.578006606e-05
9.079557371e-06
0.0001384167127
-3.476928678e-05
2.761391259e-05
-0.0001042248335
-3.487018711e-05
-1.437525608e-05
0.0001743701087
3.343797479e-05
0.0002821939146
-5.500635639e-05
4.638414273e-05
-0.0002472533726
-0.0001322282458
-2.990373621e-05
0.0003149848276
4.831212684e-05
0.0003938638854
-5.247602333e-05
4.496447199e-05
-0.000371320088
-0.0002321991237
-3.026271519e-05
0.0004122308895
4.032594812e-05
-1.464369413e-06
1.096437996e-05
2.017853526e-06
8.613241474e-05
-2.777734598e-05
2.25810642e-05
-5.440121263e-05
-1.804129814e-05
-1.193898674e-05
0.0001230118165
3.131033632e-05
0.0002514327372
-6.203146613e-05
5.506324662e-05
-0.0002091062473
-0.0001297570013
-4.20353541e-05
0.0002951902285
6.286630559e-05
0.0004091622499
-8.808128444e-05
8.036978687e-05
-0.0003732796975
-0.0002835717223
-6.366334296e-05
0.000440769439
8.213376238e-05
0.0005054917055
-7.768473532e-05
7.255543064e-05
-0.0004890315496
-0.0004102840132
-5.974589296e-05
0.0005172868952
6.439232934e-05
-1.374900117e-05
3.365139026e-05
1.022609746e-05
0.0001381311509
-4.407942602e-05
4.106805523e-05
-9.786655333e-05
-6.678169398e-05
-3.263641806e-05
0.0001818837284
5.19329569e-05
0.0003183696323
-8.862049773e-05
8.387183998e-05
-0.0002735940978
-0.0002272768952
-7.125786181e-05
0.000360620604
9.336193541e-05
0.000465653312
-0.0001133995696
0.0001044550923
-0.000434375924
-0.0004019682764
-9.275254448e-05
0.0004873259596
0.0001044071718
0.000501929418
-7.922703886e-05
8.322372747e-05
-0.0005056804303
-0.0005014493686
-8.126582e-05
0.0004987000458
7.144529448e-05
-2.537924646e-05
5.027127262e-05
1.857581672e-05
0.0001613025817
-5.439113686e-05
5.289086983e-05
-0.0001196686899
-0.0001039016342
-4.770573225e-05
0.0002053838377
6.473754417e-05
0.0003353708942
-0.000102338109
9.98866034e-05
-0.0002940630454
-0.0002841794373
-8.976496251e-05
0.0003730120985
0.0001094937864
0.0004476155456
-0.000129613921
0.0001270207877
-0.000431217948