/*--------------------------------*- C++ -*----------------------------------*\
| =========                 |                                                 |
| \\      /  F ield         | OpenFOAM: The Open Source CFD Toolbox           |
|  \\    /   O peration     | Version:  v2012                                 |
|   \\  /    A nd           | Website:  www.openfoam.com                      |
|    \\/     M anipulation  |                                                 |
\*---------------------------------------------------------------------------*/
FoamFile
{
    version     2.0;
    format      ascii;
    class       surfaceVectorField;
    location    "2.05";
    object      Uf;
}
// * * * * * * * * * * * * * * * * * * * * * * * * * * * * * * * * * * * * * //

dimensions      [0 1 -1 0 0 0 0];


internalField   nonuniform List<vector> 
5975
(
(103.4973098 -30.97714044 -2.231103998e-19)
(102.7396422 -31.21324416 2.123526451e-19)
(102.8049042 -30.53696622 -3.211552315e-19)
(103.5169782 -30.4420425 2.026884671e-19)
(102.5504924 -31.01061353 0)
(107.4816884 -21.48069672 8.395209982e-19)
(108.2366629 -20.96361996 -3.378409823e-19)
(106.618271 -19.87034906 1.333046566e-19)
(107.5185389 -19.50403437 -4.589211044e-19)
(106.9081591 -21.08906613 1.626908997e-19)
(108.3163877 -20.26296259 9.296449509e-19)
(107.9044931 -14.39268816 -1.773127224e-20)
(107.4370172 -14.99261614 -2.922104694e-19)
(106.789735 -14.20414454 -6.108337618e-19)
(107.1937751 -13.721749 2.5954343e-19)
(106.3768507 -10.02908212 -2.975109603e-19)
(106.1879318 -10.52805482 -2.830780462e-19)
(105.6276512 -10.05838608 -1.429859255e-19)
(105.7986086 -9.6395793 2.805269826e-22)
(104.6681082 -7.032904761 -7.783696431e-20)
(104.6052753 -7.416690483 5.280664619e-19)
(104.1536821 -7.143555928 5.223955812e-19)
(104.2179816 -6.810161935 5.462668012e-19)
(103.1255869 -5.323434376 3.351437204e-20)
(103.1356846 -5.044975806 -2.510501273e-19)
(102.7699762 -5.168924097 3.324624654e-20)
(102.7892219 -4.922227438 -4.750255753e-20)
(101.7543532 -3.579456531 -1.529859665e-20)
(101.7561962 -3.985246713 1.118302802e-20)
(101.2470439 -3.779764763 -3.253938529e-20)
(101.2955086 -3.442703741 -3.304400936e-20)
(100.9250468 -2.646566954 2.52707786e-22)
(100.9087937 -2.965620682 0)
(100.5287767 -2.809980266 -1.105656093e-20)
(100.584921 -2.54222205 0)
(99.68501932 -1.579103549 5.888602546e-21)
(99.54869352 -1.972113166 -9.570903585e-21)
(100.0046652 -2.258879844 0)
(100.2483873 -2.186847588 0)
(99.37946743 -1.015777907 6.983817044e-21)
(99.21119265 -1.338882874 1.43135621e-20)
(99.20081675 -0.4969985321 -2.426978129e-21)
(98.99796617 -0.7832482123 1.083987752e-21)
(98.88827083 -0.2580498071 6.27278037e-21)
(96.67630777 -20.74715019 1.801829975e-19)
(95.73193836 -20.26100038 -3.742555732e-20)
(96.65114176 -19.4263335 1.189777273e-19)
(97.27140693 -20.00538693 -7.889500396e-20)
(95.75258878 -19.78863607 -1.412497021e-19)
(102.0310941 -17.07942887 9.423522701e-20)
(102.8541002 -17.12589734 2.170402278e-19)
(102.0297081 -16.09447437 2.456654046e-20)
(102.6571993 -16.1704409 5.329457227e-20)
(103.9735994 -13.16118638 -8.96580123e-20)
(103.5284824 -13.39867779 -1.963095492e-19)
(103.222425 -12.70633018 -2.715792633e-19)
(103.5811162 -12.51980342 -1.886869008e-19)
(103.5881285 -9.804170294 -2.541168911e-19)
(103.3512382 -10.09861154 -5.23229675e-19)
(102.9883544 -9.634030674 -2.201444666e-19)
(103.1856998 -9.382295834 -4.325763132e-19)
(102.6869145 -7.243179635 -4.507300947e-20)
(102.5622452 -7.50845217 -1.311902813e-18)
(102.222533 -7.211481835 -5.149807066e-19)
(102.3322755 -6.968619046 -5.123523568e-19)
(101.621113 -5.614839981 1.851072134e-19)
(101.6817269 -5.3922389 -1.386180515e-20)
(101.3271132 -5.424756728 -2.713646498e-20)
(101.3874836 -5.233603951 4.396171247e-20)
(100.7285683 -3.919498512 -4.537523063e-20)
(100.6446377 -4.276477648 -2.340707099e-20)
(100.2087456 -4.003983115 -4.239519458e-20)
(100.3171069 -3.720079347 -1.757709158e-20)
(100.1186606 -2.933673443 -2.837123608e-20)
(100.0384691 -3.224664982 1.027630871e-20)
(99.70167717 -3.021625703 -3.008571518e-20)
(99.8018319 -2.779153344 -1.561768345e-20)
(99.08524481 -1.722361232 -8.436441627e-22)
(98.89744435 -2.089111954 -2.739072539e-20)
(99.28710119 -2.442308053 -7.056234188e-21)
(99.53935399 -2.391577794 -4.202569594e-21)
(98.83988685 -1.108956865 9.422248064e-21)
(98.63374651 -1.426305326 1.772707864e-20)
(98.69425112 -0.5431201369 9.418432427e-21)
(98.46436549 -0.8368657268 3.676036467e-22)
(98.37607276 -0.275688538 2.247377151e-21)
(98.04823899 -13.72433506 1.269676547e-19)
(97.69174016 -12.89430897 -1.313857912e-19)
(98.36065592 -12.74572648 1.680425286e-19)
(98.61529155 -13.21969358 2.957897122e-19)
(100.5567316 -13.24086308 1.668206211e-19)
(100.1974314 -12.96104014 0)
(100.2894259 -12.43005136 -1.96942729e-20)
(100.56443 -12.6315422 -3.649260351e-20)
(101.4656378 -11.22752116 -8.091883637e-20)
(101.1762037 -11.24664267 3.784004872e-20)
(101.025006 -10.74057885 -8.005975556e-20)
(101.256478 -10.71515389 -1.614762087e-20)
(101.4405563 -8.957449252 -1.450935864e-19)
(101.2415758 -9.096545888 -1.797707287e-19)
(101.0029933 -8.700168739 -7.165921864e-20)
(101.1697032 -8.575625395 -7.220078603e-20)
(100.9635011 -6.970823002 1.940388747e-19)
(100.8338238 -7.136029176 0)
(100.583327 -6.854394879 8.283942795e-20)
(100.6960981 -6.706444425 -5.613849237e-20)
(100.2436378 -5.569323436 -2.483842208e-20)
(100.32723 -5.410635822 1.610828378e-22)
(100.0101494 -5.373352868 -1.225662129e-20)
(100.0921275 -5.229498191 -1.068427307e-20)
(99.69914278 -4.038125602 3.408866484e-21)
(99.56733963 -4.32377166 6.362047282e-21)
(99.20734221 -4.028245943 0)
(99.34892154 -3.797713597 2.752844543e-21)
(99.29072588 -3.073918825 -1.281901273e-20)
(99.16668105 -3.321058118 2.750405463e-21)
(98.88154431 -3.095015375 4.333869562e-21)
(99.01010565 -2.88372598 0)
(98.45621487 -1.792362781 -8.171271146e-21)
(98.2357798 -2.124182301 -1.183618542e-20)
(98.56670537 -2.511617335 -1.141279737e-21)
(98.81436118 -2.486550655 -1.184779157e-20)
(98.26756887 -1.157827826 9.134573579e-21)
(98.03750579 -1.462417555 1.820923196e-20)
(98.15426478 -0.5683133539 -6.112429813e-21)
(97.90866426 -0.8604110873 -1.034409284e-20)
(97.84017958 -0.2834584147 -6.485449197e-21)
(99.11686006 -10.47616067 7.333647492e-20)
(99.00980166 -9.998835565 8.217936127e-20)
(99.31939452 -9.887569597 3.626177849e-20)
(99.32974082 -10.17682462 -5.181723809e-20)
(99.81606383 -10.41163766 -2.521913803e-20)
(99.71121558 -10.17548021 2.580711958e-21)
(99.71789113 -9.85663982 -3.731863608e-20)
(99.79862934 -10.03381153 8.10419076e-20)
(100.0255876 -9.367735155 7.522844297e-20)
(99.89141997 -9.303787267 -1.252189441e-21)
(99.76986595 -8.949351949 6.05299791e-20)
(99.88094483 -8.99168779 1.839092313e-19)
(99.89944268 -7.900826381 2.525245029e-19)
(99.7657322 -7.948907975 1.079973779e-21)
(99.59072432 -7.635717673 0)
(99.70409026 -7.586115964 -1.20082113e-19)
(99.56837527 -6.440542839 8.783431769e-20)
(99.45992066 -6.53231679 4.196171708e-20)
(99.26913364 -6.289182673 1.120853279e-19)
(99.36384848 -6.202762105 3.967938627e-20)
(99.057355 -5.29096983 0)
(99.1447124 -5.187126256 0)
(98.8766289 -5.106539698 0)
(98.96066325 -5.005622155 0)
(98.74024431 -3.981171759 -1.498015937e-20)
(98.58929194 -4.195891765 -1.496584234e-20)
(98.29952349 -3.90562564 5.486467724e-21)
(98.45254225 -3.724445781 -4.17337947e-20)
(98.49101534 -3.088410016 2.712680086e-20)
(98.3441348 -3.28898065 -3.70249491e-21)
(98.10643686 -3.058251456 2.609702848e-21)
(98.24875934 -2.878682374 1.286310425e-20)
(97.82568496 -1.799005911 1.496573031e-20)
(97.58971666 -2.094026638 2.464569314e-20)
(97.86894611 -2.485950972 3.052436616e-20)
(98.10451415 -2.492466294 -1.306999023e-20)
(97.68630822 -1.168305326 -1.977482812e-21)
(97.44579094 -1.454881441 -8.327216315e-21)
(97.60120216 -0.5746028879 -1.070323019e-20)
(97.35037675 -0.8578343215 -1.1925395e-20)
(97.29835779 -0.2828164289 1.212083809e-21)
(99.73458674 -8.461231448 2.407302122e-21)
(99.85481745 -8.211509863 -1.005215111e-19)
(99.81388974 -8.07494133 -1.569156821e-19)
(99.74657977 -8.295502247 -1.649896698e-20)
(99.50433938 -8.449619373 4.951200804e-20)
(99.48155268 -8.278992949 4.123539355e-20)
(99.42746887 -8.054325408 4.39835731e-20)
(99.38939046 -8.191492911 5.011354086e-21)
(99.14300599 -7.827033478 7.031318856e-21)
(99.09963025 -7.750682434 -3.960447626e-20)
(98.96773861 -7.494637286 -1.2595217e-19)
(99.00521524 -7.55190176 -1.084250723e-21)
(98.80921621 -6.86506397 9.963533103e-20)
(98.73702258 -6.863585773 -9.598822382e-20)
(98.58792728 -6.623094324 -1.802636055e-19)
(98.65104824 -6.6163016 6.043737086e-21)
(98.47504934 -5.821042538 -2.891521364e-20)
(98.39726874 -5.865959925 5.48253364e-20)
(98.24309946 -5.662948876 -8.601256205e-23)
(98.31357108 -5.618919727 -8.598274327e-23)
(98.07808157 -4.895759568 0)
(98.15510092 -4.829466085 0)
(97.93428541 -4.72937088 0)
(98.00892288 -4.660669274 0)
(97.88925576 -3.808739707 2.041530596e-20)
(97.73865675 -3.963058428 0)
(97.50567699 -3.693160207 0)
(97.65569385 -3.554712521 0)
(97.74506318 -3.006744277 -2.021740319e-20)
(97.59249465 -3.165458055 0)
(97.39149809 -2.937122848 0)
(97.53633627 -2.789063766 0)
(97.21555886 -1.756830202 -1.97449324e-21)
(96.9774426 -2.014169843 1.911968469e-20)
(97.21274036 -2.393452086 1.272015176e-20)
(97.43078033 -2.427912255 1.274115977e-20)
(97.1151891 -1.147616931 -1.910121067e-20)
(96.87465989 -1.411874077 -1.78896889e-20)
(97.05236011 -0.565121524 1.925813866e-23)
(96.8045239 -0.8345427408 -1.207974681e-21)
(96.76560398 -0.2758722991 1.211991887e-21)
(99.92286114 -7.093539478 -1.318719533e-19)
(100.0872048 -6.912375907 1.169621016e-20)
(99.92930596 -6.808311068 1.638090113e-20)
(99.83217045 -6.95506118 2.446752488e-20)
(99.19611718 -7.034441206 -4.159690375e-20)
(99.23416997 -6.908559098 1.742828871e-22)
(99.11902287 -6.738696563 1.74159097e-20)
(99.04201623 -6.844709195 1.422272242e-20)
(98.51395221 -6.608213935 9.281879645e-20)
(98.52341611 -6.536641464 -8.507256477e-20)
(98.38422617 -6.34643992 -1.243904177e-20)
(98.37400492 -6.402819554 -8.653707085e-20)
(98.01780413 -5.953020358 2.071768431e-20)
(97.9902219 -5.93262676 3.758184529e-20)
(97.85586082 -5.747654774 6.825238323e-23)
(97.87998687 -5.759975645 8.304947485e-23)
(97.63475904 -5.194741777 0)
(97.58733629 -5.212094396 0)
(97.4575419 -5.042729327 0)
(97.50202587 -5.023416807 0)
(97.28560213 -4.454015111 0)
(97.34649018 -4.4149054 0)
(97.16769823 -4.307701518 0)
(97.22757663 -4.263665015 0)
(97.14912349 -3.563441589 0)
(97.01077577 -3.670861906 0)
(96.81885571 -3.423849812 0)
(96.95536361 -3.319269211 0)
(97.06393768 -2.853746086 0)
(96.91719578 -2.976714456 0)
(96.74702014 -2.760239643 0)
(96.88533469 -2.639334006 0)
(96.63887535 -1.677403374 0)
(96.40776135 -1.899965573 0)
(96.60957338 -2.256201048 0)
(96.80688992 -2.311469045 0)
(96.56722976 -1.101654321 0)
(96.33380187 -1.342641843 0)
(96.52126259 -0.5446682919 0)
(96.28261175 -0.7959629321 0)
(96.25353671 -0.2639595596 0)
(99.91122737 -6.0403521 -2.16635073e-20)
(100.06339 -5.905302772 2.726850143e-20)
(99.90487578 -5.810464859 -2.163087814e-20)
(99.77311772 -5.918910829 1.49654626e-21)
(98.90115391 -5.952865512 4.806053093e-20)
(98.99541957 -5.855224842 5.017967393e-21)
(98.84813177 -5.722514513 9.047317983e-21)
(98.7541872 -5.806276362 -4.678690939e-22)
(98.05958965 -5.647549787 9.76535754e-21)
(98.10963118 -5.58560671 0)
(97.97013059 -5.438965809 0)
(97.92391566 -5.490386631 0)
(97.43793809 -5.177815244 0)
(97.44599617 -5.150720302 0)
(97.3175493 -5.002115123 0)
(97.31064109 -5.022578655 0)
(96.98922173 -4.604297771 0)
(96.96784193 -4.606259373 0)
(96.85155033 -4.464872333 0)
(96.87338146 -4.459718958 0)
(96.6470043 -4.00710179 0)
(96.69127202 -3.985383623 0)
(96.54491102 -3.879479021 0)
(96.59002603 -3.851315358 0)
(96.51362917 -3.278149659 0)
(96.39468571 -3.351500755 0)
(96.23201466 -3.129554896 0)
(96.34991133 -3.051702804 0)
(96.45610523 -2.659473274 0)
(96.32230701 -2.753821981 0)
(96.17596658 -2.554081116 0)
(96.30245114 -2.455595187 0)
(96.10372505 -1.573959929 0)
(95.88705546 -1.766425846 0)
(96.06414937 -2.094973152 0)
(96.24043449 -2.161540494 0)
(96.05091694 -1.038616074 0)
(95.83090044 -1.257241748 0)
(96.01674412 -0.5156282015 0)
(95.79134432 -0.7471297581 0)
(95.76915614 -0.2482996665 0)
(99.91147358 -5.189190692 0)
(100.0776431 -5.08903064 0)
(99.91238486 -5.002820257 0)
(99.75409377 -5.090000608 0)
(98.72247459 -5.106384637 0)
(98.84693634 -5.029163344 0)
(98.6850629 -4.92161423 0)
(98.56618121 -4.989341531 0)
(97.7363579 -4.871948226 0)
(97.81418437 -4.818555892 0)
(97.6680162 -4.700291381 0)
(97.5960972 -4.745813098 0)
(97.00130378 -4.51471892 0)
(97.03571575 -4.486162862 0)
(96.90859961 -4.364652831 0)
(96.87812376 -4.38748869 0)
(96.48438929 -4.068676559 0)
(96.48448174 -4.062665415 0)
(96.37534301 -3.944087517 0)
(96.37805584 -3.946594195 0)
(96.12783171 -3.581670637 0)
(96.15624832 -3.570088766 0)
(96.03525095 -3.470652951 0)
(96.06590234 -3.452881206 0)
(95.97208738 -2.980713173 0)
(95.87548907 -3.031662901 0)
(95.7321968 -2.833696982 0)
(95.82981414 -2.776282932 0)
(95.92009925 -2.445968895 0)
(95.80277953 -2.518421646 0)
(95.67397567 -2.337101197 0)
(95.78594612 -2.256406218 0)
(95.61409725 -1.457898732 0)
(95.41633954 -1.624638317 0)
(95.57556019 -1.923888083 0)
(95.7321814 -1.994073469 0)
(95.5719058 -0.9662367299 0)
(95.3690337 -1.163475056 0)
(95.5446799 -0.4808949282 0)
(95.33543963 -0.692840861 0)
(95.31740398 -0.2307084339 0)
(99.90650825 -4.498419412 -2.072466668e-35)
(100.0807785 -4.420939156 -9.458002296e-37)
(99.90198426 -4.346183343 -4.045461197e-35)
(99.72926857 -4.416123795 -2.072709634e-35)
(98.58230347 -4.419770833 0)
(98.72480549 -4.357231721 0)
(98.55064384 -4.268041361 0)
(98.41490411 -4.323532525 0)
(97.48559147 -4.230493742 0)
(97.58319311 -4.184923615 0)
(97.43115764 -4.087480517 0)
(97.34079237 -4.126984327 0)
(96.66128478 -3.948496972 0)
(96.71542659 -3.921179111 0)
(96.5876827 -3.820328069 0)
(96.53916818 -3.842837167 0)
(96.08168274 -3.592760327 0)
(96.09919544 -3.583031448 0)
(95.99360878 -3.482940688 0)
(95.98047405 -3.489283613 0)
(95.70123399 -3.190860069 0)
(95.71515829 -3.18526856 0)
(95.61459849 -3.094768401 0)
(95.63169063 -3.08382437 0)
(95.51045144 -2.690156588 0)
(95.43671367 -2.726888204 0)
(95.3051271 -2.551207577 0)
(95.3829248 -2.508331746 0)
(95.44986753 -2.228717974 0)
(95.3503178 -2.28505919 0)
(95.23408709 -2.122077882 0)
(95.3303254 -2.055372791 0)
(95.17025602 -1.337533979 0)
(94.99358083 -1.482481582 0)
(95.14034973 -1.752733583 0)
(95.27900257 -1.822340237 0)
(95.13224729 -0.8897782992 0)
(94.94838808 -1.067254123 0)
(95.10824699 -0.4438009616 0)
(94.91648754 -0.6366618581 0)
(94.90047364 -0.2124223062 0)
(99.88251861 -3.929856095 -1.78985784e-35)
(100.0628717 -3.86831889 0)
(99.87439822 -3.803149038 0)
(99.6917309 -3.85967349 0)
(98.46186305 -3.85290856 0)
(98.61730573 -3.801877869 0)
(98.43405873 -3.726569401 0)
(98.28609564 -3.772275478 0)
(97.28327208 -3.69418217 0)
(97.39527445 -3.655570827 0)
(97.23841998 -3.573957671 0)
(97.13441267 -3.60781923 0)
(96.38868705 -3.46458848 0)
(96.45786193 -3.4396897 0)
(96.32871444 -3.354950936 0)
(96.26621054 -3.375840106 0)
(95.75425502 -3.174444242 0)
(95.78586934 -3.163396968 0)
(95.68183023 -3.078335147 0)
(95.65565493 -3.086288548 0)
(95.34734828 -2.838746079 0)
(95.34869175 -2.837037726 0)
(95.26441833 -2.755746652 0)
(95.26990356 -2.749024742 0)
(95.11482118 -2.417508434 0)
(95.06269129 -2.44427067 0)
(94.93834215 -2.289419197 0)
(94.99750925 -2.256396641 0)
(95.03786932 -2.017902723 0)
(94.95602251 -2.062564944 0)
(94.84863406 -1.916951765 0)
(94.92912346 -1.861111035 0)
(94.77027905 -1.218673042 0)
(94.61536575 -1.345343569 0)
(94.75377508 -1.588037219 0)
(94.87638314 -1.654536722 0)
(94.73178434 -0.8132719561 0)
(94.56755475 -0.9728170082 0)
(94.70824137 -0.4064038928 0)
(94.53429698 -0.5811783378 0)
(94.51869827 -0.1942970585 0)
(99.84630035 -3.454295555 -2.835901125e-35)
(100.0314164 -3.404547925 -7.807480188e-37)
(99.83591176 -3.347525455 -2.835901125e-35)
(99.64601122 -3.393487693 -2.835574922e-35)
(98.35510953 -3.378887203 0)
(98.52015376 -3.336947708 0)
(98.3301302 -3.272542217 0)
(98.17303797 -3.310352987 0)
(97.11482538 -3.242006232 0)
(97.23758465 -3.209418958 0)
(97.07685327 -3.140185131 0)
(96.96252575 -3.168992119 0)
(96.164681 -3.050257483 0)
(96.2454842 -3.02818854 0)
(96.11470347 -2.956256688 0)
(96.04121334 -2.974980176 0)
(95.48329069 -2.808886912 0)
(95.52634874 -2.797859694 0)
(95.42271574 -2.725101647 0)
(95.38580412 -2.73336743 0)
(95.050027 -2.525122201 0)
(95.04064915 -2.525529416 0)
(94.96919132 -2.453272451 0)
(94.96462046 -2.449044921 0)
(94.77436401 -2.167205105 0)
(94.74177102 -2.18702088 0)
(94.62187211 -2.051010755 0)
(94.66385329 -2.024682791 0)
(94.67657568 -1.81958106 0)
(94.61160899 -1.85576796 0)
(94.51028825 -1.726233766 0)
(94.57569197 -1.678743592 0)
(94.41105418 -1.105166231 0)
(94.27758729 -1.21664177 0)
(94.41060464 -1.433815983 0)
(94.51910265 -1.495653916 0)
(94.36891346 -0.7394719729 0)
(94.22402197 -0.8829747157 0)
(94.34389632 -0.3701258923 0)
(94.1873526 -0.5281382626 0)
(94.17100241 -0.1769102968 0)
(99.80240889 -3.052322714 2.477965747e-35)
(99.99128732 -3.011720922 0)
(99.79060386 -2.961627965 0)
(99.59531989 -2.999155586 0)
(98.25865239 -2.97873155 0)
(98.43101185 -2.944115549 0)
(98.23588136 -2.888537573 0)
(98.07179672 -2.919877565 0)
(96.97108305 -2.858275312 0)
(97.10207229 -2.830868985 0)
(96.93825544 -2.771578108 0)
(96.81595111 -2.795927324 0)
(95.9766995 -2.694804623 0)
(96.0666415 -2.675622634 0)
(95.93425915 -2.614071959 0)
(95.85201971 -2.630449195 0)
(95.25541626 -2.490563257 0)
(95.30783899 -2.480293659 0)
(95.20398874 -2.417721775 0)
(95.15818165 -2.425553098 0)
(94.79721075 -2.248113687 0)
(94.7786689 -2.249488918 0)
(94.71740997 -2.185753772 0)
(94.70412297 -2.182909774 0)
(94.47974541 -1.9408898 0)
(94.46456867 -1.95616315 0)
(94.34715493 -1.836811182 0)
(94.37354591 -1.815011498 0)
(94.35901518 -1.637036572 0)
(94.3097299 -1.667128184 0)
(94.21246135 -1.552206324 0)
(94.26379007 -1.511111584 0)
(94.08894793 -0.9993983221 0)
(93.97596982 -1.098344498 0)
(94.105722 -1.292309399 0)
(94.20191447 -1.348637185 0)
(94.04115696 -0.6701551858 0)
(93.91473133 -0.7994727772 0)
(94.01338599 -0.3358973695 0)
(93.8733683 -0.4786590432 0)
(93.85546079 -0.1606364293 0)
(99.75376677 -2.71029819 9.949048865e-36)
(99.94561638 -2.677072528 -1.969825911e-38)
(99.74110285 -2.632916948 9.949048865e-36)
(99.54177573 -2.663592981 9.950215242e-36)
(98.17040034 -2.63880117 0)
(98.348443 -2.610218993 0)
(98.1494415 -2.561975143 0)
(97.97989524 -2.587909952 0)
(96.84607709 -2.531201927 0)
(96.98349633 -2.50827799 0)
(96.81724426 -2.457172395 0)
(96.68865445 -2.477588362 0)
(95.81617004 -2.389512153 0)
(95.91341162 -2.37312629 0)
(95.7795756 -2.320156777 0)
(95.69026689 -2.334175221 0)
(95.06106591 -2.214156755 0)
(95.12123148 -2.205049102 0)
(95.01684785 -2.151018762 0)
(94.96360448 -2.157982438 0)
(94.57988159 -2.005050338 0)
(94.55346898 -2.00665849 0)
(94.50045407 -1.950814171 0)
(94.47960427 -1.948621345 0)
(94.22317151 -1.738694466 0)
(94.22338817 -1.751153708 0)
(94.10712655 -1.6464097 0)
(94.11951008 -1.627615889 0)
(94.07899399 -1.471728459 0)
(94.04402741 -1.497486951 0)
(93.94935401 -1.395675929 0)
(93.98777603 -1.359476305 0)
(93.80017618 -0.902695574 0)
(93.70630484 -0.991377891 0)
(93.83434002 -1.164509622 0)
(93.91986417 -1.214973511 0)
(93.74557301 -0.6063770837 0)
(93.6363539 -0.7232754185 0)
(93.71425552 -0.3042881778 0)
(93.58958532 -0.4333869316 0)
(93.56959622 -0.1456977197 0)
(99.70227954 -2.418199634 8.744203543e-36)
(99.89646427 -2.391082921 0)
(99.68912205 -2.352061383 0)
(99.48676394 -2.377074763 0)
(98.08893691 -2.34896611 0)
(98.27144954 -2.325442377 0)
(98.06950996 -2.283405116 0)
(97.89564077 -2.304759104 0)
(96.73574337 -2.251753032 0)
(96.87826866 -2.232727929 0)
(96.7101021 -2.188487891 0)
(96.57648351 -2.205429059 0)
(95.67706441 -2.127275817 0)
(95.78021757 -2.113521703 0)
(95.64510416 -2.067755276 0)
(95.55001318 -2.079495356 0)
(94.89323994 -1.974821707 0)
(94.95986388 -1.967075287 0)
(94.85479265 -1.920280192 0)
(94.79528569 -1.926141657 0)
(94.3911807 -1.792959745 0)
(94.35798802 -1.794341646 0)
(94.31170585 -1.745708132 0)
(94.28428978 -1.743685627 0)
(93.99824036 -1.559792994 0)
(94.01202776 -1.570654321 0)
(93.89599731 -1.478683558 0)
(93.89588003 -1.461809586 0)
(93.83109072 -1.323942332 0)
(93.80905574 -1.346675265 0)
(93.71591181 -1.256529022 0)
(93.74264301 -1.224059427 0)
(93.54100415 -0.8156368935 0)
(93.46466716 -0.895998095 0)
(93.592094 -1.050597532 0)
(93.66840009 -1.095127963 0)
(93.47902199 -0.5486730052 0)
(93.38556832 -0.6548138649 0)
(93.44372159 -0.2756053496 0)
(93.33307985 -0.3926375234 0)
(93.31069286 -0.1322085876 0)
(99.6491904 -2.168484632 0)
(99.845178 -2.146510388 0)
(99.63576996 -2.111962066 0)
(99.4311751 -2.132222277 0)
(98.01324827 -2.1015626 0)
(98.19929401 -2.082332262 0)
(97.99513412 -2.045614637 0)
(97.81781982 -2.063046685 0)
(96.63721996 -2.012943161 0)
(96.78384759 -1.997321514 0)
(96.6141754 -1.958918207 0)
(96.47648786 -1.972787222 0)
(95.55504001 -1.902347853 0)
(95.66303277 -1.891027506 0)
(95.52680451 -1.851374969 0)
(95.4269384 -1.860966703 0)
(94.7467274 -1.768324929 0)
(94.81877449 -1.762012929 0)
(94.71293997 -1.721390348 0)
(94.64812789 -1.726040498 0)
(94.22582248 -1.608933916 0)
(94.1867794 -1.609810969 0)
(94.14601968 -1.567703289 0)
(94.11290096 -1.565539254 0)
(93.79974573 -1.402883789 0)
(93.82548354 -1.413003772 0)
(93.7090435 -1.332194133 0)
(93.69781329 -1.316445027 0)
(93.61064164 -1.193285279 0)
(93.60019933 -1.213973263 0)
(93.50779529 -1.134146543 0)
(93.5240283 -1.104486274 0)
(93.3078519 -0.7383081943 0)
(93.24737842 -0.8120126343 0)
(93.37503961 -0.9502606563 0)
(93.44342957 -0.9889680165 0)
(93.23832494 -0.4972173834 0)
(93.15908787 -0.5941405645 0)
(93.19885382 -0.2499687493 0)
(93.10082743 -0.3564859201 0)
(93.07587249 -0.1202039632 0)
(99.59530013 -1.95524925 0)
(99.79264379 -1.937669703 0)
(99.58176767 -1.907068219 0)
(99.37556861 -1.923265683 0)
(97.94254679 -1.890601832 0)
(98.13138594 -1.875071055 0)
(97.92557268 -1.842977154 0)
(97.74550364 -1.857003444 0)
(96.54838128 -1.809218964 0)
(96.69833971 -1.796598915 0)
(96.52748371 -1.763227434 0)
(96.38646846 -1.77435557 0)
(95.44683008 -1.709989466 0)
(95.55882824 -1.70091663 0)
(95.42162558 -1.666514503 0)
(95.31777664 -1.674088996 0)
(94.6175051 -1.59096307 0)
(94.694141 -1.586102903 0)
(94.58751195 -1.550789837 0)
(94.51817682 -1.554177549 0)
(94.07961358 -1.45024272 0)
(94.03550425 -1.450435851 0)
(93.99929669 -1.414224965 0)
(93.96121212 -1.411703449 0)
(93.62335362 -1.26641849 0)
(93.6596162 -1.276411465 0)
(93.54231006 -1.20535822 0)
(93.52122119 -1.190135044 0)
(93.41357052 -1.07895153 0)
(93.41346985 -1.098343906 0)
(93.32120762 -1.027611655 0)
(93.32806922 -1.000017265 0)
(93.09734542 -0.6704827361 0)
(93.05108204 -0.7389899209 0)
(93.17962548 -0.8629002183 0)
(93.24124832 -0.8959843843 0)
(93.02036024 -0.4519481566 0)
(92.95379673 -0.5410843342 0)
(92.97669206 -0.2273728922 0)
(92.88987318 -0.324861752 0)
(92.86227864 -0.1096700814 0)
(99.54114159 -1.773849974 0)
(99.73947068 -1.760085695 0)
(99.52760331 -1.733018379 0)
(99.32030627 -1.74567548 0)
(97.87620693 -1.71139169 0)
(98.06724659 -1.699105219 0)
(97.86023965 -1.671092511 0)
(97.67796466 -1.682109304 0)
(96.46760108 -1.636175147 0)
(96.62029245 -1.626244677 0)
(96.44850521 -1.59727498 0)
(96.30473808 -1.605919058 0)
(95.34991584 -1.546337343 0)
(95.46526648 -1.539360197 0)
(95.32720476 -1.509522338 0)
(95.21999914 -1.515186555 0)
(94.50241098 -1.439585157 0)
(94.58296247 -1.436179509 0)
(94.47553067 -1.405475372 0)
(94.40231096 -1.407567518 0)
(93.94918276 -1.314447772 0)
(93.90066503 -1.313826849 0)
(93.86822811 -1.282965782 0)
(93.82580375 -1.279921965 0)
(93.4654561 -1.148824036 0)
(93.51099484 -1.159145337 0)
(93.39248567 -1.096630548 0)
(93.36265769 -1.081463314 0)
(93.23634734 -0.9799628019 0)
(93.24544168 -0.9986511822 0)
(93.15284907 -0.9359106052 0)
(93.15138435 -0.9097615515 0)
(92.90637455 -0.6117680573 0)
(92.87271884 -0.6763751466 0)
(93.00267393 -0.7877918709 0)
(93.0585549 -0.8154832319 0)
(92.82216266 -0.412668237 0)
(92.76676258 -0.4953461344 0)
(92.77436899 -0.2077388129 0)
(92.6973732 -0.2976082672 0)
(92.66712903 -0.1005633782 0)
(99.48707571 -1.620582665 0)
(99.68607381 -1.610165027 0)
(99.47360588 -1.586296004 0)
(99.26562326 -1.595827666 0)
(97.81371855 -1.560224709 0)
(98.00647575 -1.550819568 0)
(97.79864574 -1.526454024 0)
(97.61460658 -1.534775743 0)
(96.39357865 -1.490298344 0)
(96.54853055 -1.482808294 0)
(96.37599557 -1.457728493 0)
(96.22993293 -1.464092897 0)
(95.26228007 -1.408238934 0)
(95.38045921 -1.403230143 0)
(95.24161631 -1.377391057 0)
(95.13156136 -1.381235665 0)
(94.39888238 -1.311535874 0)
(94.48279355 -1.309576948 0)
(94.3745475 -1.282897705 0)
(94.29797495 -1.283674372 0)
(93.83170859 -1.199402003 0)
(93.77934874 -1.197863022 0)
(93.74999941 -1.17187641 0)
(93.70378813 -1.168162626 0)
(93.32300821 -1.048607772 0)
(93.37675086 -1.059611417 0)
(93.25675297 -1.004602678 0)
(93.21917075 -0.9890863622 0)
(93.07588098 -0.8952993547 0)
(93.09312744 -0.9137695647 0)
(92.99981193 -0.8580304377 0)
(92.99097749 -0.8327982467 0)
(92.73202011 -0.5616880254 0)
(92.70946517 -0.6235918802 0)
(92.84131162 -0.7241894009 0)
(92.89236364 -0.7467356591 0)
(92.64088342 -0.37910682 0)
(92.59523603 -0.4565647755 0)
(92.58908335 -0.1909446526 0)
(92.52061325 -0.2745286282 0)
(92.48774542 -0.09282679342 0)
(99.43339118 -1.492475651 -1.695985014e-36)
(99.63279034 -1.485021429 -3.650867438e-38)
(99.4200705 -1.464099465 -3.303845306e-36)
(99.21172742 -1.470839529 -1.695789932e-36)
(97.75465721 -1.434174021 0)
(97.9487472 -1.427370181 0)
(97.74038598 -1.40630992 0)
(97.55493001 -1.412176042 0)
(96.3252154 -1.368774697 0)
(96.48205665 -1.363539018 0)
(96.30889569 -1.341928142 0)
(96.16089897 -1.346164311 0)
(95.18224202 -1.293110959 0)
(95.30282744 -1.289976023 0)
(95.16325054 -1.267664899 0)
(95.05075978 -1.269756822 0)
(94.30479784 -1.204596341 0)
(94.39161208 -1.20407848 0)
(94.28254473 -1.180938397 0)
(94.20305806 -1.180386287 0)
(93.72484981 -1.103391571 0)
(93.66905833 -1.100895796 0)
(93.64237665 -1.079436443 0)
(93.59272307 -1.074985036 0)
(93.19335638 -0.9645033641 0)
(93.254431 -0.9765423253 0)
(93.13255084 -0.9281702677 0)
(93.08815397 -0.9118106626 0)
(92.92942303 -0.8239641772 0)
(92.95388168 -0.8426530552 0)
(92.85949981 -0.793017632 0)
(92.84417802 -0.768215004 0)
(92.57176118 -0.5197579112 0)
(92.55883135 -0.5800305398 0)
(92.69296839 -0.6713123371 0)
(92.74004483 -0.6889060532 0)
(92.47402511 -0.3509758539 0)
(92.43668235 -0.4243718879 0)
(92.41836708 -0.1768613623 0)
(92.35705921 -0.255409803 0)
(92.32160205 -0.08639397685 0)
(99.38042928 -1.387207204 0)
(99.58001756 -1.382394204 0)
(99.36734396 -1.364242711 0)
(99.15888064 -1.368462885 0)
(97.69864857 -1.330937904 0)
(97.89377075 -1.326513464 0)
(97.68507681 -1.308466575 0)
(97.49847579 -1.31206403 0)
(96.26153619 -1.269333349 0)
(96.41996791 -1.266206158 0)
(96.24623986 -1.247694042 0)
(96.0966044 -1.249920986 0)
(95.10836647 -1.19882526 0)
(95.23100466 -1.197487405 0)
(95.09070859 -1.178294214 0)
(94.9761328 -1.178688022 0)
(94.21840344 -1.116889397 0)
(94.3077241 -1.117800338 0)
(94.19782129 -1.097771085 0)
(94.11581199 -1.095887161 0)
(93.62682379 -1.024820132 0)
(93.56799804 -1.021436598 0)
(93.54360294 -1.004078486 0)
(93.49090254 -0.9988479915 0)
(93.07402425 -0.8954474846 0)
(93.14153075 -0.9085938127 0)
(93.01758575 -0.8661433771 0)
(92.96722668 -0.848511165 0)
(92.79451472 -0.7650655303 0)
(92.82533171 -0.7843442133 0)
(92.72962214 -0.7399923484 0)
(92.70856784 -0.7152616138 0)
(92.42263489 -0.4854786481 0)
(92.41821598 -0.5453672342 0)
(92.55524941 -0.6286725831 0)
(92.59898038 -0.641657771 0)
(92.31859276 -0.3279729297 0)
(92.28872166 -0.3984222727 0)
(92.25917596 -0.1653324815 0)
(92.20428328 -0.2400853209 0)
(92.1662889 -0.08122265355 0)
(99.32850888 -1.303015275 0)
(99.52813713 -1.300612105 0)
(99.31570792 -1.2851007 0)
(99.10729219 -1.286986685 0)
(97.6452641 -1.248626682 0)
(97.84118899 -1.246423148 0)
(97.63226647 -1.231129785 0)
(97.44473334 -1.232588193 0)
(96.2016114 -1.190063694 0)
(96.3613923 -1.188940308 0)
(96.18711173 -1.173206957 0)
(96.03607931 -1.173506884 0)
(95.03936903 -1.12358541 0)
(95.16376512 -1.123994472 0)
(95.02274412 -1.107574542 0)
(94.90637712 -1.10629895 0)
(94.13811972 -1.046784874 0)
(94.22960329 -1.049135827 0)
(94.11882882 -1.031854277 0)
(94.03463732 -1.028602182 0)
(93.53577194 -0.9620447595 0)
(93.47441775 -0.9575984987 0)
(93.45153862 -0.9439528371 0)
(93.39638299 -0.9376922497 0)
(92.96303162 -0.8400790099 0)
(93.03605304 -0.8543967831 0)
(92.91018916 -0.8171704539 0)
(92.85443156 -0.7981423673 0)
(92.66892986 -0.7176353436 0)
(92.70531022 -0.7379003771 0)
(92.60777181 -0.698105694 0)
(92.58193314 -0.6727934513 0)
(92.28435732 -0.4585229688 0)
(92.2863917 -0.5182697119 0)
(92.4260424 -0.5949890823 0)
(92.4676261 -0.6027135175 0)
(92.17433669 -0.3099169568 0)
(92.14912133 -0.3783630983 0)
(92.11136677 -0.1563192519 0)
(92.06000164 -0.2282994454 0)
(92.01944276 -0.07720520169 0)
(99.27771744 -1.238624248 -6.551138428e-36)
(99.47729476 -1.23850142 0)
(99.26517238 -1.225502989 -5.392680806e-36)
(99.05692343 -1.225148399 0)
(97.59396999 -1.18571839 0)
(97.79051354 -1.18564672 0)
(97.58139902 -1.172880498 0)
(97.39310964 -1.172265908 0)
(96.1445709 -1.129426285 0)
(96.30550386 -1.130248758 0)
(96.13066413 -1.117035875 0)
(95.97843342 -1.115446411 0)
(94.97411896 -1.065971922 0)
(95.10003227 -1.06811184 0)
(94.95827131 -1.054192431 0)
(94.84035198 -1.051243623 0)
(94.06252275 -0.9930518302 0)
(94.15589607 -0.9968816757 0)
(94.04420902 -0.9820651468 0)
(93.95809642 -0.977388145 0)
(93.44988755 -0.914253973 0)
(93.38625048 -0.908513651 0)
(93.36455994 -0.8984813701 0)
(93.30707023 -0.8911666019 0)
(92.85877128 -0.7973866643 0)
(92.93671694 -0.8135412985 0)