/*--------------------------------*- C++ -*----------------------------------*\
| =========                 |                                                 |
| \\      /  F ield         | OpenFOAM: The Open Source CFD Toolbox           |
|  \\    /   O peration     | Version:  v2012                                 |
|   \\  /    A nd           | Website:  www.openfoam.com                      |
|    \\/     M anipulation  |                                                 |
\*---------------------------------------------------------------------------*/
FoamFile
{
    version     2.0;
    format      ascii;
    class       volVectorField;
    location    "1.47";
    object      U;
}
// * * * * * * * * * * * * * * * * * * * * * * * * * * * * * * * * * * * * * //

dimensions      [0 1 -1 0 0 0 0];


internalField   nonuniform List<vector> 
3259
(
(101.5162211 -0.2298878367 7.557930886e-21)
(101.4417162 -0.6954068035 1.192556969e-19)
(101.2970159 -1.179557909 -2.402943803e-19)
(101.0595722 -1.720368767 -5.306446268e-22)
(100.6493786 -2.119667196 -1.905341978e-21)
(100.1844652 -2.75343609 0)
(99.61630505 -3.555223691 0)
(98.78226853 -4.266973094 0)
(97.76098292 -5.182801602 -7.198802968e-19)
(96.48107361 -6.345597626 4.394160303e-20)
(94.74604484 -8.086421109 0)
(92.67223081 -10.0996325 1.065508168e-18)
(101.9703629 -0.2471284032 0)
(101.9099488 -0.7488069968 0)
(101.7932301 -1.26819721 0)
(101.6010689 -1.844452449 0)
(101.2478172 -2.302908906 0)
(100.8818441 -2.990996647 0)
(100.4569306 -3.844256386 7.822284194e-21)
(99.799426 -4.596959825 5.947412216e-19)
(99.01601623 -5.546219019 6.918411369e-19)
(98.05633091 -6.750889272 3.596074095e-19)
(96.81469181 -8.590904686 6.231774348e-19)
(95.56200582 -11.1996175 0)
(102.4506402 -0.2570029755 0)
(102.4050674 -0.7796201685 0)
(102.3184846 -1.318679564 0)
(102.1730362 -1.905748499 0)
(101.8758742 -2.395166174 0)
(101.6146737 -3.09953723 0)
(101.3264445 -3.936118394 -1.126474258e-21)
(100.833407 -4.724225387 -4.695744364e-19)
(100.2577028 -5.659665895 5.185157861e-19)
(99.59790728 -6.779056264 4.794453757e-19)
(98.9096441 -8.347236095 2.182242422e-19)
(98.6319599 -10.75404005 -3.131240091e-19)
(102.9434095 -0.2599538674 0)
(102.9116449 -0.7886359197 0)
(102.8530592 -1.332386154 0)
(102.7508775 -1.91290936 0)
(102.505555 -2.412914668 0)
(102.3335154 -3.10135428 0)
(102.1523563 -3.888459936 0)
(101.8023477 -4.678627425 6.545080467e-21)
(101.3833364 -5.571764403 3.954365106e-19)
(100.9255806 -6.547862069 9.866318904e-20)
(100.5365792 -7.716721059 -6.563583231e-19)
(97.38539409 -8.670385513 -9.365767816e-19)
(103.4360546 -0.2569784889 0)
(103.4160647 -0.778977005 0)
(103.3807051 -1.314503873 0)
(103.3147373 -1.874534964 0)
(103.1157733 -2.368778532 0)
(103.0136912 -3.01923209 0)
(102.9106721 -3.736138804 0)
(102.6592593 -4.479239193 -9.32132939e-21)
(102.3408758 -5.304695791 1.86190396e-18)
(101.9642498 -6.127302586 9.173570622e-21)
(101.7578627 -6.996296269 8.918333137e-20)
(93.72267554 -6.78793115 5.078529611e-19)
(103.917834 -0.2492512078 0)
(103.9073116 -0.7544383843 0)
(103.8898793 -1.271487088 0)
(103.8519525 -1.800586445 0)
(103.6909964 -2.275860521 0)
(103.6386017 -2.875251297 0)
(103.5846213 -3.512913783 0)
(103.387907 -4.167293234 0)
(103.1049984 -4.885507696 -4.582538431e-20)
(102.7110966 -5.57082705 0)
(102.1045673 -6.21751491 -2.706852452e-21)
(95.64988908 -6.426610105 2.833309183e-20)
(104.3805207 -0.2379224181 0)
(104.377158 -0.7187315389 0)
(104.372529 -1.209779643 0)
(104.354564 -1.701612725 0)
(104.2221641 -2.148824737 0)
(104.2004494 -2.691392594 0)
(104.1706422 -3.251652023 0)
(103.9952203 -3.814413798 0)
(103.7106748 -4.397568763 0)
(103.2829827 -4.954613211 -9.764117072e-21)
(101.1228829 -5.326632138 -1.282260178e-19)
(98.50222026 -5.768251117 -1.883155412e-21)
(104.8182682 -0.2240967713 0)
(104.8198545 -0.6753903715 0)
(104.8232688 -1.135446699 0)
(104.817853 -1.587234522 0)
(104.7054104 -2.001143575 0)
(104.6985819 -2.486262115 0)
(104.673397 -2.977236824 0)
(104.4987221 -3.454146765 0)
(104.190743 -3.927520087 0)
(103.7217709 -4.361926835 0)
(100.9941584 -4.585119089 0)
(99.24872415 -4.958701707 0)
(105.22734 -0.2087777678 0)
(105.2319036 -0.6276115837 0)
(105.2392291 -1.053892366 0)
(105.2399851 -1.465264692 0)
(105.1406405 -1.843721316 0)
(105.1365822 -2.274310305 0)
(105.1018435 -2.703462603 0)
(104.9163889 -3.105580257 0)
(104.5747661 -3.492434243 0)
(104.0491579 -3.834775459 0)
(100.9542489 -3.98409076 0)
(99.58769 -4.295784814 0)
(105.6057846 -0.1928020586 0)
(105.6116978 -0.5780464211 0)
(105.619649 -0.9695961197 0)
(105.6214671 -1.341668015 0)
(105.5299377 -1.684705535 0)
(105.5200717 -2.065414467 0)
(105.4664902 -2.438639336 0)
(105.2641522 -2.779237911 0)
(104.8857397 -3.098072241 0)
(104.2993496 -3.372348056 0)
(100.9303152 -3.477499344 0)
(99.79552791 -3.741230577 0)
(105.9531271 -0.1768185967 0)
(105.959116 -0.5287175862 0)
(105.9652694 -0.8859709435 0)
(105.9643528 -1.220850025 0)
(105.876547 -1.529859091 0)
(105.8552924 -1.865734156 0)
(105.7783906 -2.189059215 0)
(105.5549874 -2.479730156 0)
(105.1407215 -2.744981327 0)
(104.4939452 -2.967940654 0)
(100.9262534 -3.045748634 0)
(99.9253092 -3.271903886 0)
(106.2700186 -0.1613084476 0)
(106.2751203 -0.4810862601 0)
(106.2777772 -0.8054479143 0)
(106.271478 -1.105877413 0)
(106.1843699 -1.383012148 0)
(106.1482457 -1.678976484 0)
(106.0461079 -1.9592662 0)
(105.7999386 -2.208534343 0)
(105.3523942 -2.431350071 0)
(104.6474376 -2.614875423 0)
(100.9439332 -2.675972398 0)
(100.0054222 -2.872554316 0)
(106.557877 -0.1466145907 0)
(106.5613883 -0.4361671626 0)
(106.5594161 -0.7296794372 0)
(106.5459949 -0.9987494382 0)
(106.457415 -1.246575336 0)
(106.4044862 -1.507379624 0)
(106.2766126 -1.75091739 0)
(106.0077345 -1.96559061 0)
(105.5301639 -2.154515571 0)
(104.7700995 -2.307215447 0)
(100.9822321 -2.358283128 0)
(100.053098 -2.531379574 0)
(106.818618 -0.132968409 0)
(106.8200492 -0.3946265089 0)
(106.81275 -0.6597217283 0)
(106.7911546 -0.900646292 0)
(106.6996229 -1.121880975 0)
(106.6290334 -1.351948921 0)
(106.475891 -1.564227021 0)
(106.1853076 -1.749870311 0)
(105.6810021 -1.911478515 0)
(104.8694119 -2.039747029 0)
(101.0383942 -2.084981483 0)
(100.0791207 -2.2393513 0)
(107.0544818 -0.1205121797 0)
(107.053511 -0.3568589415 0)
(107.0405122 -0.5961819784 0)
(107.0101913 -0.8121657213 0)
(106.9146843 -1.009552063 0)
(106.8263006 -1.212919334 0)
(106.6489355 -1.398673796 0)
(106.3381569 -1.55989517 0)
(105.8101015 -1.69928902 0)
(104.9508917 -1.808005421 0)
(101.1091368 -1.849968726 0)
(100.0903421 -1.989388709 0)
(107.2679076 -0.1093212368 0)
(107.2643374 -0.3230578618 0)
(107.2454949 -0.5393396727 0)
(107.2062452 -0.7334963662 0)
(107.1060735 -0.9096935825 0)
(107.0002187 -1.090004632 0)
(106.7999899 -1.253307486 0)
(106.4707241 -1.393963422 0)
(105.9214773 -1.515167674 0)
(105.018681 -1.608145478 0)
(101.1912845 -1.648317359 0)
(100.091266 -1.775861487 0)
(107.4613878 -0.09942554487 0)
(107.4551097 -0.2932814535 0)
(107.4304321 -0.4892572573 0)
(107.3822791 -0.6645773755 0)
(107.2769761 -0.8221135254 0)
(107.1542366 -0.9826491206 0)
(106.9326306 -1.127004871 0)
(106.5866087 -1.250365932 0)
(106.0183087 -1.356625516 0)
(105.0758984 -1.436884109 0)
(101.2819022 -1.476096996 0)
(100.0849971 -1.594290486 0)
(107.6374773 -0.09082334605 0)
(107.6284372 -0.2674968597 0)
(107.5980218 -0.4458548331 0)
(107.5411349 -0.6051808259 0)
(107.4303202 -0.746448327 0)
(107.291414 -0.8901781484 0)
(107.0498189 -1.018493736 0)
(106.6888072 -1.127493567 0)
(106.1031851 -1.221468508 0)
(105.1249385 -1.291443533 0)
(101.378378 -1.330194073 0)
(100.0737546 -1.441046851 0)
(107.7984859 -0.08350004527 0)
(107.7866793 -0.2456289697 0)
(107.7506773 -0.4089704385 0)
(107.6853108 -0.5550578403 0)
(107.5687847 -0.6822445014 0)
(107.4145093 -0.8118845965 0)
(107.1541577 -0.9262709395 0)
(106.7797415 -1.023985029 0)
(106.1782423 -1.107818865 0)
(105.1676957 -1.169524039 0)
(101.4784564 -1.208084293 0)
(100.0591702 -1.313166699 0)
(107.9474108 -0.07741553778 0)
(107.9328015 -0.2275522816 0)
(107.8913345 -0.3783943921 0)
(107.8177487 -0.5137605869 0)
(107.6948787 -0.6290369393 0)
(107.5260201 -0.7469702998 0)
(107.2484305 -0.8496791069 0)
(106.861379 -0.9384510992 0)
(106.2452862 -1.014048729 0)
(105.2056886 -1.069195104 0)
(101.5802573 -1.107716818 0)
(100.0424871 -1.208296145 0)
(108.0843677 -0.07258741204 0)
(108.0670799 -0.2132485996 0)
(108.0203554 -0.3539670673 0)
(107.9388847 -0.4814748086 0)
(107.8108936 -0.5862634457 0)
(107.6281763 -0.6946762926 0)
(107.3349922 -0.7889207139 0)
(106.9356026 -0.8695329639 0)
(106.3059358 -0.9387486471 0)
(105.2401651 -0.9888351224 0)
(101.6823081 -1.027458391 0)
(100.024685 -1.124560712 0)
(108.2199413 -0.06883609337 0)
(108.1995788 -0.2023601663 0)
(108.1473944 -0.335352882 0)
(108.0573335 -0.4557654338 0)
(107.919638 -0.5536872693 0)
(107.7229199 -0.6548209019 0)
(107.4149632 -0.74313983 0)
(107.0042624 -0.816480136 0)
(106.3616411 -0.8808080877 0)
(105.2721788 -0.9271440445 0)
(101.783474 -0.9660558257 0)
(100.006572 -1.060483278 0)
(108.3241125 -0.0666815425 0)
(108.30177 -0.1958117376 0)
(108.245381 -0.323684169 0)
(108.1497808 -0.4423977874 0)
(108.0205605 -0.5305479501 0)
(107.811911 -0.6266875432 0)
(107.4899657 -0.7112744371 0)
(107.0687113 -0.7785701351 0)
(106.4136683 -0.8393400494 0)
(105.3026639 -0.8831105482 0)
(101.8829312 -0.9225728922 0)
(99.98884484 -1.014935769 0)
(108.5201328 -0.06430787784 0)
(108.4935595 -0.1898658753 0)
(108.4290891 -0.3136227169 0)
(108.3188234 -0.4257492243 0)
(108.1138266 -0.5176390788 0)
(107.8926988 -0.610512207 0)
(107.558446 -0.6935300551 0)
(107.130159 -0.7551701277 0)
(106.4631318 -0.8135974588 0)
(105.3324991 -0.8559962608 0)
(101.9799609 -0.8963468457 0)
(99.97208075 -0.9872008158 0)
(92.5202733 -10.00580234 5.090364708e-21)
(95.29671999 -11.03917636 0)
(94.25564262 -7.8795736 -8.394546053e-19)
(92.61940066 -9.738937974 -6.356591233e-19)
(96.28205903 -8.536781393 8.193397784e-19)
(95.30533571 -10.75056367 0)
(92.92073148 -9.893940914 1.413745757e-18)
(93.84275953 -10.59990672 0)
(91.35645166 -11.92915138 -9.832136987e-19)
(90.74055223 -11.14968595 1.541529223e-18)
(98.53185755 -10.80224792 0)
(90.6860936 -11.09345424 -1.516121627e-18)
(89.99965256 -11.10555158 0)
(83.17001508 -10.70765841 5.40440526e-19)
(91.43536237 -11.99120921 9.99452761e-19)
(94.02236542 -10.672954 0)
(90.10740964 -11.93675467 -1.174698587e-18)
(42.19675846 -7.15631708 -5.322613981e-19)
(90.04009287 -11.15905887 0)
(90.03583997 -11.87527289 5.881646536e-19)
(83.46191263 -28.68199746 0)
(91.24398259 -11.55250569 1.668431369e-18)
(92.74699634 -11.11405639 -6.284761622e-21)
(93.303702 -11.37588363 1.344073955e-19)
(92.0920287 -10.73737614 -5.958402019e-19)
(92.5761049 -11.02074645 -5.784710225e-19)
(91.18816955 -11.48506526 0)
(90.43191844 -10.77369243 -1.704941853e-18)
(91.4971328 -10.3572023 4.516253024e-21)
(91.93958974 -10.64187818 -1.194574438e-18)
(91.35301824 -10.26066857 6.232131856e-19)
(90.36130416 -10.72695952 1.132621658e-18)
(89.97482103 -10.77377833 -1.182041473e-18)
(90.04625329 -10.81713752 1.193149699e-18)
(93.50504256 -11.45195414 5.235397479e-19)
(94.1216774 -11.6102009 -5.788252721e-19)
(93.009159 -12.80662718 0)
(92.99498072 -13.13186899 -2.725744916e-18)
(87.72839881 -24.71711248 0)
(85.48402544 -27.0401159 8.927539175e-20)
(90.47808382 -11.46860141 0)
(75.20371394 -26.69938272 0)
(84.80185518 -27.20292671 3.280018333e-21)
(76.77833843 -26.87856627 4.1815785e-19)
(90.52788189 -11.54477172 -2.939249361e-18)
(84.46793756 -28.70017035 1.045070698e-21)
(89.21795804 -27.99280999 3.991813642e-20)
(98.41927888 -8.464561543 -8.303989287e-19)
(98.11188618 -10.2582479 0)
(95.68897015 -10.79172749 0)
(96.83298203 -11.14652746 0)
(82.33055166 -9.525931063 0)
(80.74891935 -10.3316586 -5.431186578e-19)
(91.23387479 -11.7967826 1.197614407e-18)
(92.53704225 -11.5853486 8.934973125e-19)
(92.81284938 -11.74309126 -4.368042e-19)
(45.73545887 -7.479373156 0)
(70.04750169 -11.67798907 -3.812732495e-19)
(89.71207686 -10.53323647 -1.712800901e-18)
(90.10300098 -10.9583038 -1.08229496e-18)
(92.49129363 -12.11371784 -2.617404333e-18)
(94.21190806 -11.69525532 -5.656541252e-18)
(94.66791519 -11.87340069 1.416849271e-18)
(92.91405872 -11.79191238 4.410762117e-19)
(93.25882594 -11.91459323 0)
(91.78910884 -12.21893512 -1.013291372e-18)
(89.51414574 -27.71995164 -8.886815588e-20)
(90.47108173 -12.19493397 5.76071361e-19)
(58.31006176 -19.98303346 8.800371416e-19)
(85.47735466 -20.24546834 0)
(87.77148081 -24.24642136 -1.013690686e-18)
(88.3177922 -12.68155655 0)
(90.2705289 -11.32354874 1.110799437e-18)
(90.00700321 -11.83313843 -1.00493476e-18)
(92.20223056 -11.38592503 9.572601492e-19)
(92.44672477 -11.53401984 -4.593158311e-19)
(91.27443264 -11.73585229 0)
(91.02670872 -11.34348086 -5.355721763e-19)
(91.8973096 -11.18104056 7.251460803e-22)
(92.12518783 -11.32303047 1.357760266e-21)
(89.76455237 -10.5979653 -5.8093097e-21)
(90.18653625 -10.95207548 1.154611636e-18)
(91.91097819 -12.29844677 -5.001416811e-19)
(93.38533322 -11.93832144 0)
(93.69256433 -11.91489091 -1.455475092e-18)
(61.91957137 -19.84815676 5.085095997e-19)
(60.10410674 -20.06524242 1.129489362e-19)
(90.56684898 -12.31723647 -1.184043491e-18)
(63.37004308 -22.01413463 -1.674249419e-20)
(68.24322569 -22.39731388 -2.052892172e-19)
(86.92851021 -26.23568437 -2.948125639e-19)
(90.35160297 -11.34028543 -1.120070989e-18)
(75.67986617 -27.11480824 -7.612139954e-19)
(82.19219769 -27.44795354 0)
(63.86926098 -22.36046351 -3.370670656e-19)
(81.00708488 -27.3906713 0)
(90.11996776 -11.78123651 6.907969924e-18)
(91.59764004 -10.9792874 4.834742564e-19)
(91.82171674 -11.12300056 -4.805941179e-19)
(90.95378334 -11.30833586 0)
(90.62389804 -10.93785525 5.236020963e-19)
(91.32671766 -10.77757707 2.25881187e-21)
(91.52782918 -10.91959544 -9.730203792e-19)
(88.74827537 -11.0070524 0)
(88.75834935 -10.96814647 -9.046412569e-19)
(89.98642945 -11.05310888 -1.364542602e-21)
(90.20510929 -12.01303257 0)
(90.09704673 -11.22374625 1.099876974e-18)
(88.828185 -11.16567549 -1.295392972e-18)
(88.77259595 -11.06975133 0)
(89.99396019 -11.81356026 -1.144486441e-18)
(91.04917361 -10.58733028 -1.004261635e-18)
(91.25989605 -10.72273362 4.960803159e-19)
(90.59879898 -10.90571296 0)
(90.15535147 -10.55877125 -1.664556324e-18)
(90.7691912 -10.38102271 -5.094752111e-19)
(90.97836245 -10.53048792 1.010082382e-18)
(89.3392944 -10.79041325 -1.239717042e-18)
(89.25142814 -10.74246121 0)
(89.89906031 -10.72369479 0)
(90.10963599 -10.85914666 6.038214274e-19)
(89.48031472 -10.86323117 -1.262038371e-18)
(89.416017 -10.82789134 -6.233158309e-19)
(91.90220429 -12.4256512 -4.460637113e-19)
(92.94373455 -12.17559618 -8.514128669e-19)
(93.02609334 -12.29098226 -7.2910382e-19)
(33.15024659 -12.47522666 -1.207845914e-18)
(90.30658815 -12.70582649 9.472377235e-19)
(87.22175398 -25.96261843 3.73866909e-19)
(69.58871238 -22.26799507 -2.235182276e-19)
(72.16823338 -21.98168729 -1.953104714e-20)
(89.25692873 -11.38473149 3.324770743e-19)
(89.23547027 -11.31535466 1.304053772e-18)
(90.44130225 -11.40521057 5.732109706e-19)
(75.80361257 -26.89812084 1.346744656e-18)
(71.16854027 -25.65683564 -1.210736513e-18)
(71.9295892 -25.66859864 0)
(78.67279332 -27.18794272 0)
(90.55534845 -11.62455333 4.475840874e-21)
(89.3524969 -11.53979937 1.378664426e-18)
(89.30930287 -11.46574258 2.987522917e-18)
(87.18118355 -28.76054705 3.801164727e-20)
(87.8689296 -10.38646947 -6.993022344e-19)
(87.88651748 -10.44948529 1.402622808e-18)
(88.04966497 -10.83998333 1.881151625e-17)
(90.02710525 -10.99668883 5.212291971e-19)
(88.86897865 -10.94650596 -1.701453632e-21)
(89.04900885 -10.9259017 -7.707252421e-18)
(93.66119266 -11.90805634 5.586951912e-18)
(93.48205946 -12.01208645 4.379153792e-19)
(82.62912019 -10.86205502 1.036201385e-18)
(91.6484436 -12.13943536 0)
(92.41237708 -12.08807747 0)
(92.54682719 -12.14696846 -1.423049665e-18)
(90.32436181 -12.11039598 5.830353586e-19)
(59.06857281 -20.40622171 -5.645880141e-19)
(58.37734408 -20.48614457 0)
(46.09185401 -3.182130327 -9.223907718e-19)
(57.18687903 -16.07036621 7.533135046e-19)
(61.94980364 -19.37120052 5.902270019e-19)
(89.0763042 -11.28053214 6.414395669e-19)
(88.93841883 -11.25394667 1.940406831e-18)
(90.17672436 -11.28606472 -5.549697714e-19)
(89.97305995 -11.81153465 1.361201377e-18)
(88.1074098 -10.71248226 -7.072751113e-19)
(88.2222193 -10.75601083 7.037360528e-19)
(87.92148257 -10.54114113 9.049283907e-21)
(87.99684162 -10.63941534 -7.138228264e-19)
(89.53110185 -10.94060969 -2.216450323e-18)
(89.50194874 -10.90081373 6.453877463e-19)
(90.15167807 -10.89911305 -1.503013254e-19)
(88.41967413 -10.83604653 -1.844295357e-19)
(88.43994444 -10.84007699 1.062613826e-18)
(88.31450778 -10.78670805 -7.213575603e-22)
(88.38874776 -10.81214119 7.101466591e-19)
(92.68655031 -12.19200108 9.500442737e-19)
(92.87307342 -12.25101707 -5.721482252e-20)
(92.16408072 -12.41902378 5.928169731e-19)
(62.88537492 -20.23429717 -5.928909178e-19)
(51.49483598 -17.4540754 0)
(48.1400624 -16.22704506 3.401733067e-19)
(52.59214955 -18.31519041 0)
(52.86998699 -18.07549937 0)
(61.75039905 -20.1527972 -1.432216336e-19)
(90.83182099 -12.47181855 -2.937593778e-19)
(65.00869744 -22.06822526 0)
(73.70550167 -24.14816916 2.86878139e-19)
(72.47214726 -24.24092794 5.786577037e-21)
(90.40491789 -11.36273181 -1.125030734e-18)
(89.22111082 -11.27799471 -3.425809597e-22)
(89.17834088 -11.27152874 6.456271633e-19)
(76.08352432 -27.12777852 5.29978615e-19)
(67.59610921 -23.8180986 -4.410007194e-19)
(68.07767793 -24.11678817 -7.837910165e-21)
(71.18180987 -24.08811807 2.770662552e-19)
(69.17376161 -23.87087397 3.791141103e-19)
(63.05569933 -22.41120891 0)
(67.30056425 -24.12759084 2.501312734e-19)
(79.85587855 -27.40353272 7.844547023e-20)
(71.5205857 -25.40651659 -8.132796066e-20)
(73.06719353 -25.48239144 -1.015652053e-19)
(89.00138454 -11.69916287 -1.843421922e-17)
(89.38456444 -11.58186979 0)
(90.60022601 -11.69654755 1.169802448e-18)
(98.53249786 -4.157451326 -2.4136757e-19)
(97.74133849 -4.817100372 -7.114930165e-19)
(97.45104111 -5.05275606 -7.364645005e-19)
(96.46875479 -5.867283231 9.054566826e-19)
(96.09402682 -6.189840131 6.737429232e-19)
(94.76885352 -7.379242832 8.341892142e-21)
(99.54624452 -4.532789061 -5.962176197e-19)
(98.93256173 -5.229590755 -1.944954553e-18)
(98.03591943 -4.940934138 7.174099971e-19)
(98.70737178 -5.479653419 6.664704679e-19)
(97.95286483 -6.342787281 -3.1365857e-19)
(96.833904 -6.017212459 5.250612932e-19)
(97.66710837 -6.686257517 3.062420736e-19)
(96.66763167 -7.979353961 -2.744373058e-19)
(95.23127332 -7.56267692 6.463089886e-19)
(95.25576341 -8.25432952 -7.487365878e-19)
(94.79405603 -8.976918605 5.730161199e-21)
(93.95241316 -8.687892513 1.206286212e-18)
(93.15339876 -10.3230921 5.111013654e-19)
(92.76210474 -10.84790235 5.546594292e-19)
(92.27372338 -10.5777688 5.744309342e-19)
(100.5791173 -4.709896667 -5.02572015e-19)
(100.1213613 -5.405799826 5.534140068e-19)
(99.22558002 -5.295891274 1.317593527e-18)
(99.95634638 -5.651476447 1.126538664e-20)
(99.42126662 -6.479620289 2.606706482e-19)
(98.31834221 -6.408339923 1.448664917e-19)
(99.2288461 -6.800912497 -1.736878075e-20)
(98.61851368 -7.976089388 0)
(97.15226532 -8.041285429 0)
(97.36295623 -8.592973302 -4.945903858e-19)
(97.09510065 -9.1653383 4.583342683e-19)
(96.2542385 -9.327355079 1.424292386e-18)
(95.97186318 -11.22441379 -4.661062139e-19)
(95.86872902 -11.9055407 0)
(95.13194108 -11.74413203 4.518856932e-19)
(101.5687183 -4.706306543 4.152889464e-19)
(101.23572 -5.380427184 -4.410703377e-19)
(100.4099678 -5.416945848 0)
(101.1159867 -5.61146279 1.749992372e-18)
(100.743643 -6.352736625 -2.162082646e-19)
(99.7702147 -6.469091281 -6.194735791e-19)
(100.6181907 -6.624181593 -9.085456418e-19)
(100.2727433 -7.547454935 7.027874755e-19)
(99.0700245 -7.893645155 0)
(100.1837176 -7.894414335 -5.248179834e-19)
(100.1782119 -9.078111621 -2.676862078e-19)
(98.78536166 -9.971490323 0)
(98.14575629 -9.283609505 1.212859722e-19)
(102.4568529 -4.542557249 1.643624992e-19)
(102.2119594 -5.176060857 -6.602925794e-19)
(101.4943952 -5.345265622 4.010129183e-19)
(102.1200161 -5.387316043 8.504564217e-19)
(101.8329064 -6.030534441 1.547165132e-19)
(101.0396446 -6.289128221 0)
(101.7360809 -6.249717598 1.067774578e-18)
(101.4800689 -6.927820596 1.101630935e-18)
(100.6172485 -7.4075281 6.56809968e-19)
(101.4722821 -7.172418267 -6.109021737e-20)
(98.9446804 -7.61033958 1.80310795e-18)
(100.3713171 -8.788893893 1.29928176e-18)
(94.32257409 -7.086744058 -1.059059167e-18)
(103.2176647 -4.251104599 0)
(103.0152292 -4.815152415 2.814243656e-19)
(102.4291165 -5.099558047 -1.394739022e-18)
(102.9305268 -5.001583947 3.012983167e-19)
(102.6433656 -5.542609587 -9.203582115e-19)
(102.060604 -5.920786601 -1.524428312e-19)
(102.5446789 -5.71792776 1.811543217e-18)
(102.4067388 -6.252912083 0)
(101.7375557 -6.762509334 1.020549362e-18)
(102.2027553 -6.431475347 1.45381868e-20)
(95.11912063 -6.133144054 -9.931704921e-19)
(97.84080621 -7.148895424 0)
(94.73157491 -6.492970371 1.054773809e-19)
(103.8538544 -3.904532067 0)
(103.6599844 -4.366605144 0)
(103.1902662 -4.706042051 -3.062125214e-20)
(103.5723797 -4.519185439 0)
(103.2547241 -4.965717231 0)
(102.8098416 -5.404005895 0)
(103.1522123 -5.110424061 -1.435362615e-19)
(102.6363335 -5.492731614 8.678461585e-21)
(102.5463498 -6.072507712 -2.168591774e-20)
(101.3352744 -5.541286522 2.412325297e-19)
(95.8802183 -5.580923702 -4.080074345e-19)
(94.92356998 -5.957266062 3.267165561e-20)
(98.03094022 -5.975990475 2.980658961e-19)
(104.3815655 -3.54393858 0)
(104.1754534 -3.920476944 0)
(103.7997592 -4.253517857 0)
(104.0807577 -4.04214986 0)
(103.739578 -4.393176031 0)
(103.3876925 -4.818194152 0)
(103.6239564 -4.504477695 0)
(102.7128975 -4.747890431 0)
(102.6269474 -5.294926365 1.188550907e-19)
(101.0063063 -4.755591929 0)
(97.08296647 -4.929781532 0)
(96.30771884 -5.436324816 -2.113770513e-23)
(99.13598349 -5.146024695 0)
(104.8190977 -3.191283183 0)
(104.5902352 -3.499529578 0)
(104.2876022 -3.812384957 0)
(104.4863987 -3.597492892 0)
(104.1133392 -3.875243426 0)
(103.8423584 -4.258165527 0)
(103.9756062 -3.960251528 0)
(102.7807677 -4.128034026 0)
(102.735095 -4.581645121 0)
(100.9625168 -4.124414796 0)
(97.72452172 -4.314953485 0)
(97.25960773 -4.769407961 0)
(99.51855986 -4.450095128 0)
(105.1830263 -2.85873663 0)
(104.9272732 -3.112935571 0)
(104.681006 -3.399465125 0)
(104.8138262 -3.19275553 0)
(104.4050185 -3.415819131 0)
(104.1929335 -3.754999123 0)
(104.2427029 -3.482240795 0)
(102.8140713 -3.602245505 0)
(102.7915526 -3.988746524 0)
(100.9345642 -3.596544229 0)
(98.21191293 -3.781761855 0)
(97.85887098 -4.174002719 0)
(99.75235958 -3.871182123 0)
(105.4869704 -2.552295733 0)
(105.2041337 -2.763658814 0)
(105.0015489 -3.022097358 0)
(105.0814694 -2.82946261 0)
(104.6367723 -3.011250469 0)
(104.4678927 -3.309729598 0)
(104.44963 -3.063978703 0)
(102.8311157 -3.151669243 0)
(102.8193311 -3.483071404 0)
(100.9252454 -3.147429512 0)
(98.58390456 -3.322997788 0)
(98.31459399 -3.66054096 0)
(99.89838123 -3.382143843 0)
(105.7424943 -2.273944366 0)
(105.4340881 -2.451313093 0)
(105.2655782 -2.682164346 0)
(105.3029758 -2.506193654 0)
(104.8235482 -2.656315147 0)
(104.687213 -2.918075195 0)
(104.612301 -2.698663783 0)
(102.8428529 -2.764393802 0)
(102.8342389 -3.04932549 0)
(100.9374958 -2.763188244 0)
(98.86685746 -2.927767786 0)
(98.66209359 -3.218632181 0)
(99.98897589 -2.966528861 0)
(105.9588642 -2.023978832 0)
(105.6271648 -2.17415628 0)
(105.4854805 -2.378811751 0)
(105.4884835 -2.220437035 0)
(104.9758161 -2.345788588 0)
(104.8645108 -2.574717481 0)
(104.7418764 -2.380171109 0)
(102.8554346 -2.430951528 0)
(102.8457584 -2.676312861 0)
(100.9708597 -2.433272842 0)
(99.08158018 -2.58670098 0)
(98.92622419 -2.837745401 0)
(100.0435465 -2.611750452 0)
(106.1434292 -1.801550232 0)
(105.7909638 -1.929810957 0)
(105.6706072 -2.110093605 0)
(105.6455104 -1.969231465 0)
(105.1012592 -2.074877518 0)
(105.0094384 -2.27452221 0)
(104.8464446 -2.103100311 0)
(102.8719984 -2.143742206 0)
(102.8591263 -2.355077638 0)
(101.0228563 -2.149500717 0)
(99.24441599 -2.292392547 0)
(99.12660376 -2.508996284 0)
(100.0742212 -2.308164664 0)
(106.3020049 -1.605269059 0)
(105.9312104 -1.715730127 0)
(105.8280422 -1.873554705 0)
(105.7796288 -1.749600854 0)
(105.2056345 -1.83938729 0)
(105.1291358 -2.012837018 0)
(104.9319473 -1.862811651 0)
(102.8938415 -1.896627248 0)
(102.8769433 -2.078419792 0)
(101.0902616 -1.90541888 0)
(99.3679437 -2.038810774 0)
(99.27856274 -2.22539087 0)
(100.088648 -2.048264781 0)
(106.4392732 -1.433468713 0)
(106.0523014 -1.529377413 0)
(105.9631306 -1.666638219 0)
(105.8951071 -1.558711565 0)
(105.2933577 -1.635648844 0)
(105.228978 -1.785607829 0)
(105.0028307 -1.655314279 0)
(102.9211156 -1.684543886 0)
(102.9001624 -1.84049883 0)
(101.1698403 -1.695837484 0)
(99.46177026 -1.820963781 0)
(99.39386511 -1.981174232 0)
(100.0918126 -1.826094071 0)
(106.5590298 -1.284420271 0)
(106.1576925 -1.368383452 0)
(106.0800052 -1.486834955 0)
(105.995314 -1.393988942 0)
(105.3678544 -1.460474132 0)
(105.313108 -1.589287604 0)
(105.0624443 -1.477179542 0)
(102.9533545 -1.503345035 0)
(102.9287362 -1.636487316 0)
(101.2586011 -1.516574919 0)
(99.53327507 -1.634709901 0)
(99.48149261 -1.771577304 0)
(100.087105 -1.636897834 0)
(106.6643979 -1.156482271 0)
(106.2501621 -1.23063684 0)
(106.1819241 -1.33184434 0)
(106.0829634 -1.253172636 0)
(105.4318007 -1.311143091 0)
(105.3847383 -1.420815331 0)
(105.1133342 -1.325515226 0)
(102.9898725 -1.349703129 0)
(102.9621117 -1.462466877 0)
(101.3538378 -1.364348372 0)
(99.58819425 -1.476672179 0)
(99.54836696 -1.592675239 0)
(100.0769338 -1.476874799 0)
(106.7579568 -1.04822403 0)
(106.3319982 -1.114296583 0)
(106.2715381 -1.199611343 0)
(106.1602962 -1.134306858 0)
(105.4873527 -1.185363877 0)
(105.4464005 -1.277571757 0)
(105.1575071 -1.197909082 0)
(103.0299209 -1.220894439 0)
(102.9995846 -1.315268832 0)
(101.4532072 -1.236499708 0)
(99.63097438 -1.344009105 0)
(99.59987882 -1.441227423 0)
(100.0630556 -1.342896087 0)
(106.8417434 -0.9582781628 0)
(106.4051009 -1.017756136 0)
(106.3510236 -1.088364882 0)
(106.2291855 -1.035709088 0)
(105.5362793 -1.081214168 0)
(105.5001431 -1.157367824 0)
(105.196565 -1.092347349 0)
(103.0727366 -1.114672992 0)
(103.0403951 -1.192300738 0)
(101.554729 -1.130866016 0)
(99.66507961 -1.234407084 0)
(99.64019647 -1.314526939 0)
(100.0467965 -1.232466541 0)
(106.9176281 -0.8853016223 0)
(106.471169 -0.9395856171 0)
(106.4222138 -0.9965426159 0)
(106.2912904 -0.955907422 0)
(105.5800711 -0.997058241 0)
(105.5476554 -1.058358251 0)
(105.2318154 -1.007128602 0)
(103.117655 -1.029205403 0)
(103.0837938 -1.091423309 0)
(101.6568354 -1.045710345 0)
(99.69328733 -1.146004818 0)
(99.67259028 -1.210382931 0)
(100.0291929 -1.143599208 0)
(106.9875447 -0.8283352072 0)
(106.531759 -0.8786465024 0)
(106.4867736 -0.9227725883 0)
(106.3481066 -0.8937171116 0)
(105.6200074 -0.9315685026 0)
(105.5903705 -0.9789817865 0)
(105.2643535 -0.9408766993 0)
(103.1641791 -0.9630625909 0)
(103.1291548 -1.01090742 0)
(101.7583083 -0.9796932786 0)
(99.71783901 -1.077323272 0)
(99.69969166 -1.127037365 0)
(100.0110882 -1.07472755 0)
(107.0529205 -0.7867035493 0)
(106.5882111 -0.8340565182 0)
(106.5462115 -0.8659979445 0)
(106.4009423 -0.8482046849 0)
(105.6572119 -0.8836923425 0)
(105.6295233 -0.917983652 0)
(105.2951365 -0.8925073183 0)
(103.2120033 -0.9151468884 0)
(103.1760288 -0.9494124006 0)
(101.8582503 -0.9317984492 0)
(99.74057967 -1.027204925 0)
(99.72363149 -1.063091331 0)
(99.9932048 -1.024632435 0)
(107.115028 -0.759738665 0)
(106.6417206 -0.8050715633 0)
(106.6018189 -0.825374258 0)
(106.4509788 -0.8185996399 0)
(105.6927452 -0.8526257073 0)
(105.6662088 -0.8743773251 0)
(105.325081 -0.8612221856 0)
(103.2609764 -0.8846793311 0)
(103.2241521 -0.9059202833 0)
(101.9561553 -0.9013424345 0)
(99.7630333 -0.9948395308 0)
(99.74616636 -1.017476322 0)
(99.97614021 -0.9924584908 0)
(107.1822009 -0.7461722919 0)
(106.699327 -0.7902592873 0)
(106.6547203 -0.8001821104 0)
(106.5048969 -0.8033486207 0)
(105.7320891 -0.8367337066 0)
(105.7014459 -0.8474024085 0)
(105.3591722 -0.8455925944 0)
(103.3171363 -0.8715288961 0)
(103.2732308 -0.8796955305 0)
(102.062778 -0.888156416 0)
(99.78932406 -0.9777591189 0)
(99.76861642 -0.9895740194 0)
(99.9586409 -0.9760966038 0)
(92.11925673 -10.485973 -1.300771937e-21)
(91.67233037 -10.20871124 5.965290125e-19)
(92.07580629 -9.764707684 -1.658328376e-18)
(94.92226824 -11.68578518 -1.36239407e-18)
(94.41240653 -11.51678956 3.841532608e-18)
(94.75421232 -10.93791379 4.53303328e-19)
(90.12826792 -21.03452963 6.321882968e-19)
(93.68538268 -8.569014132 -6.101161386e-19)
(92.92503076 -8.201134361 -6.540714533e-19)
(93.77889381 -7.644004345 5.018127287e-19)
(91.780298 -9.246360199 -6.789752459e-19)
(92.64138075 -8.441856882 9.917629879e-21)
(93.41270709 -8.849989019 6.265767506e-19)
(95.94719448 -9.296148232 5.009069638e-19)
(95.08833148 -9.056883017 5.386440899e-19)
(95.77915311 -8.398442585 -4.088596505e-19)
(94.25032548 -10.41684128 5.566653352e-19)
(94.86491033 -9.370311082 -9.654031983e-21)
(95.76815498 -9.629042252 5.032379988e-19)
(93.6873727 -8.972754632 6.020395336e-19)
(94.55715288 -9.289077529 1.13228411e-18)
(93.89775418 -10.30798927 1.459575737e-19)
(93.48516842 -11.17642112 -5.175726108e-19)
(92.93401977 -10.9352122 5.373853904e-19)
(93.31875063 -10.41062211 0)
(91.29302486 -11.87909561 1.455900741e-18)
(92.02144752 -11.85409369 -4.59829172e-19)
(92.10324752 -11.90778559 9.368280974e-19)
(91.14239612 -11.10600007 -1.497149295e-18)
(91.21006163 -11.1605062 5.037348896e-19)
(90.80389156 -11.20755074 3.495350776e-21)
(81.21633868 -8.082408273 0)
(82.16487258 -9.425974192 0)
(97.27382618 -11.08519752 0)
(72.80169308 -11.36580409 -3.531403534e-19)
(78.90572151 -11.59214039 0)
(90.69229424 -20.18750792 -2.987368483e-19)
(91.94033186 -17.92127434 0)
(90.64805799 -11.03606682 -2.523781279e-19)
(91.02595851 -10.99411214 0)
(91.07991407 -11.05044247 9.913276515e-19)