/*--------------------------------*- C++ -*----------------------------------*\
| =========                 |                                                 |
| \\      /  F ield         | OpenFOAM: The Open Source CFD Toolbox           |
|  \\    /   O peration     | Version:  v2012                                 |
|   \\  /    A nd           | Website:  www.openfoam.com                      |
|    \\/     M anipulation  |                                                 |
\*---------------------------------------------------------------------------*/
FoamFile
{
    version     2.0;
    format      ascii;
    class       pointVectorField;
    location    "0.02";
    object      pointDisplacement;
}
// * * * * * * * * * * * * * * * * * * * * * * * * * * * * * * * * * * * * * //

dimensions      [0 1 0 0 0 0 0];


internalField   nonuniform List<vector> 
7018
(
(0 0 0)
(0 0 0)
(0 0 0)
(0 0 0)
(0 0 0)
(0 0 0)
(0 0 0)
(0 0 0)
(0 0 0)
(0 0 0)
(0 0 0)
(0 0 0)
(0 0 0)
(0 0 0)
(0 0 0)
(0 0 0)
(0 0 0)
(0 0 0)
(0 0 0)
(0 0 0)
(0 0 0)
(0 0 0)
(0 0 0)
(0 0 0)
(0 0 0)
(0 0 0)
(0 0 0)
(0 0 0)
(0 0 0)
(0 0 0)
(0 0 0)
(0 0 0)
(0 0 0)
(0 0 0)
(0 0 0)
(0 0 0)
(0 0 0)
(0 0 0)
(0 0 0)
(0 0 0)
(0 0 0)
(0 0 0)
(0 0 0)
(0 0 0)
(-1.115514792e-08 2.066071453e-06 3.330669074e-16)
(5.126499569e-08 1.756314693e-06 2.91433544e-16)
(0 0 0)
(0 0 0)
(0 0 0)
(0 0 0)
(0 0 0)
(0 0 0)
(0 0 0)
(0 0 0)
(0 0 0)
(0 0 0)
(0 0 0)
(0 0 0)
(0 0 0)
(0 0 0)
(0 0 0)
(0 0 0)
(0 0 0)
(0 0 0)
(0 0 0)
(0 0 0)
(0 0 0)
(0 0 0)
(0 0 0)
(0 0 0)
(0 0 0)
(0 0 0)
(0 0 0)
(0 0 0)
(0 0 0)
(0 0 0)
(0 0 0)
(0 0 0)
(0 0 0)
(0 0 0)
(0 0 0)
(-1.155325249e-06 0.0001931521387 3.522182546e-14)
(-1.904357435e-06 0.0003079435488 5.823119764e-14)
(1.019198969e-05 0.0003039836042 5.74817971e-14)
(6.139191651e-06 0.000189993914 3.463895837e-14)
(2.143808187e-05 0.000145643059 2.656208586e-14)
(3.774384341e-05 0.00024723502 4.675426712e-14)
(4.155609273e-05 0.0002160191805 4.085620731e-14)
(2.261437922e-05 0.0001219191379 2.223221607e-14)
(1.336191564e-05 4.448260054e-05 8.10462808e-15)
(3.309827453e-05 0.0001062473719 2.009503675e-14)
(2.493210334e-05 7.098353765e-05 1.341982081e-14)
(7.811440311e-06 2.306398326e-05 4.204969706e-15)
(0 0 0)
(1.315929712e-06 2.797201648e-06 5.273559367e-16)
(0 0 0)
(0 0 0)
(0 0 0)
(0 0 0)
(0 0 0)
(0 0 0)
(0 0 0)
(0 0 0)
(0 0 0)
(0 0 0)
(0 0 0)
(0 0 0)
(0 0 0)
(0 0 0)
(0 0 0)
(0 0 0)
(0 0 0)
(0 0 0)
(0 0 0)
(0 0 0)
(0 0 0)
(0 0 0)
(0 0 0)
(0 0 0)
(-4.8401081e-06 0.000704256416 1.498245972e-13)
(-5.927740018e-06 0.0008294775474 1.841443664e-13)
(3.251445274e-05 0.000823730286 1.828676099e-13)
(2.641329882e-05 0.0006987016245 1.486449852e-13)
(0.0001058910322 0.000616250369 1.311173392e-13)
(0.0001322747891 0.0007376016601 1.637717739e-13)
(0.0001553448938 0.0006875154722 1.526556659e-13)
(0.000123159683 0.0005688527985 1.210420653e-13)
(0.0001347812157 0.0003844796505 8.182343691e-14)
(0.0001786243113 0.0004882557544 1.084271561e-13)
(0.0001697014952 0.0004114216984 9.137135493e-14)
(0.0001246348772 0.000315338927 6.711298184e-14)
(6.392394622e-05 0.0001207591785 2.571554081e-14)
(0.0001021144259 0.0001848461122 4.106437412e-14)
(7.228088845e-05 0.0001206502161 2.679800826e-14)
(4.016525649e-05 6.996657552e-05 1.489086632e-14)
(0 0 0)
(3.477976755e-06 4.697233199e-06 1.040834086e-15)
(0 0 0)
(0 0 0)
(0 0 0)
(0 0 0)
(0 0 0)
(0 0 0)
(0 0 0)
(0 0 0)
(0 0 0)
(0 0 0)
(0 0 0)
(0 0 0)
(0 0 0)
(0 0 0)
(0 0 0)
(0 0 0)
(0 0 0)
(0 0 0)
(0 0 0)
(0 0 0)
(-9.019877781e-06 0.001101188042 2.811223476e-13)
(-9.887293231e-06 0.001144324854 3.075040222e-13)
(5.447408684e-05 0.001139770817 3.062966547e-13)
(4.978305964e-05 0.001096036244 2.798178356e-13)
(0.0002095875861 0.001015998573 2.594452431e-13)
(0.000231817126 0.001067535554 2.869648963e-13)
(0.0002797954481 0.001022406088 2.748634653e-13)
(0.0002514247108 0.0009673013733 2.47024623e-13)
(0.0003193426935 0.0007586625661 1.938171845e-13)
(0.0003644848485 0.0008218488525 2.210315264e-13)
(0.0003679998939 0.0007359374712 1.979527653e-13)
(0.0003188493354 0.0006718351401 1.716543574e-13)
(0.0002460250482 0.0003859281407 9.864331574e-14)
(0.0003062288804 0.0004541567881 1.223743329e-13)
(0.0002645873407 0.0003611778939 9.74359482e-14)
(0.0002099279557 0.0003026720581 7.743805597e-14)
(7.306970887e-05 8.526817115e-05 2.184363801e-14)
(0.0001091482122 0.0001209035363 3.262667914e-14)
(6.164480997e-05 6.425731897e-05 1.734723476e-14)
(3.523971282e-05 3.869457227e-05 9.908740495e-15)
(0 0 0)
(0 0 0)
(0 0 0)
(0 0 0)
(0 0 0)
(0 0 0)
(0 0 0)
(0 0 0)
(0 0 0)
(0 0 0)
(0 0 0)
(0 0 0)
(0 0 0)
(0 0 0)
(0 0 0)
(0 0 0)
(0 0 0)
(0 0 0)
(-1.162348855e-05 0.001114187498 3.555350458e-13)
(-1.184102877e-05 0.00105536025 3.592126596e-13)
(6.366769343e-05 0.001055131787 3.591571485e-13)
(6.296899307e-05 0.001112585401 3.550493233e-13)
(0.0002806875137 0.001080985571 3.451405828e-13)
(0.0002891536149 0.001040464909 3.544248228e-13)
(0.0003581090413 0.001022927841 3.485822742e-13)
(0.0003455182695 0.001055190432 3.370081991e-13)
(0.0004835859463 0.0009098065689 2.909894548e-13)
(0.0005144979114 0.0009015111616 3.082256672e-13)
(0.0005417486381 0.000840582014 2.878669525e-13)
(0.0005041833597 0.0008379309652 2.684796829e-13)
(0.0004703790539 0.0005837140801 1.874056466e-13)
(0.0005182486156 0.0006022542604 2.064182159e-13)
(0.0004758516046 0.0005104017447 1.749433931e-13)
(0.0004269399094 0.0004889982596 1.570132913e-13)
(0.0002337783473 0.0002174976376 6.983302825e-14)
(0.0002754758315 0.0002400108645 8.228140391e-14)
(0.0001988412169 0.0001630258987 5.589972929e-14)
(0.0001629555349 0.0001426760833 4.582445534e-14)
(1.077668129e-05 8.014723924e-06 2.567390744e-15)
(1.851256663e-05 1.288305099e-05 4.413136523e-15)
(4.700271045e-07 3.114037527e-07 1.110223025e-16)
(0 0 0)
(0 0 0)
(0 0 0)
(0 0 0)
(0 0 0)
(0 0 0)
(0 0 0)
(0 0 0)
(0 0 0)
(0 0 0)
(0 0 0)
(0 0 0)
(0 0 0)
(0 0 0)
(0 0 0)
(-1.209085902e-05 0.0008443677218 0)
(-1.212239795e-05 0.0008091990521 0)
(2.64062408e-05 0.0008091953245 0)
(2.622911044e-05 0.0008443608741 0)
(0.0002977259823 0.0008412076717 0)
(0.000298843472 0.0008050867058 0)
(0.0003002337263 0.0007684058975 0)
(0.0003385600339 0.0007672666412 0)
(0.0003763305888 0.0007668240728 0)
(0.0003747278904 0.0008393601066 0)
(0.0005755277383 0.0007996365006 3.434613705e-13)
(0.000585550303 0.0007443960982 3.493039191e-13)
(0.0006322621474 0.0007142929667 3.353012312e-13)
(0.0006176485531 0.0007627315561 3.276823257e-13)
(0.0006298930854 0.0005828278645 2.506328478e-13)
(0.0006530834256 0.0005519911665 2.59708921e-13)
(0.000621306383 0.0004844944675 2.280675648e-13)
(0.0005928018003 0.0005060405741 2.177147351e-13)
(0.0003846290896 0.0002663156382 1.147554274e-13)
(0.0004206854797 0.0002664280205 1.254829574e-13)
(0.0003318647615 0.0001978283591 9.317546734e-14)
(0.0002988898928 0.0001947669877 8.393286066e-14)
(6.670825803e-05 3.695090256e-05 1.59317004e-14)
(8.337835394e-05 4.225473738e-05 1.990074772e-14)
(2.988127478e-05 1.442230078e-05 6.800116026e-15)
(2.033164657e-05 1.072569049e-05 4.62130334e-15)
(0 0 0)
(0 0 0)
(0 0 0)
(0 0 0)
(0 0 0)
(0 0 0)
(0 0 0)
(0 0 0)
(0 0 0)
(0 0 0)
(0 0 0)
(0 0 0)
(0 0 0)
(0 0 0)
(0.0003025529384 0.0005525192542 0)
(0.0003027373344 0.0005165823475 0)
(0.0003402513402 0.0005164031753 0)
(0.0003401064028 0.0005522868528 0)
(0.0006001624538 0.0005478994234 3.574501806e-13)
(0.0006015949019 0.0004782233529 3.583244812e-13)
(0.0006627748246 0.0004682516692 3.510386426e-13)
(0.0006590324848 0.000534764281 3.490402412e-13)
(0.0007183243926 0.0004372160753 2.855354841e-13)
(0.0007276527697 0.0003856257613 2.892686091e-13)
(0.0007033600627 0.0003441012389 2.581268532e-13)
(0.0006928535982 0.0003893012158 2.542549504e-13)
(0.0004942152868 0.0002256819336 1.473959843e-13)
(0.0005055571674 0.0002010043284 1.507821645e-13)
(0.0004108214826 0.0001537009381 1.153105389e-13)
(0.0004001510076 0.000171980867 1.123268145e-13)
(0.0001209763803 4.419134058e-05 2.886579864e-14)
(0.000136614929 4.341310961e-05 3.258504577e-14)
(6.517165891e-05 1.972567541e-05 1.480759959e-14)
(5.365040529e-05 1.866511539e-05 1.21846977e-14)
(0 0 0)
(0 0 0)
(0 0 0)
(0 0 0)
(0 0 0)
(0 0 0)
(0 0 0)
(0 0 0)
(0 0 0)
(0 0 0)
(0 0 0)
(0 0 0)
(0 0 0)
(0 0 0)
(0.0003031679313 0.0002658122561 0)
(0.0003031467463 0.0002300707925 0)
(0.0003405703301 0.0002300185963 0)
(0.000340598084 0.0002657419492 0)
(0.0006028423378 0.0002652768111 3.591710263e-13)
(0.0006027694597 0.0001939984401 3.592126596e-13)
(0.0006700171294 0.0001916951771 3.550770789e-13)
(0.0006691461094 0.0002617515819 3.545358451e-13)
(0.0007520277574 0.0002206575167 2.990385717e-13)
(0.0007565084532 0.0001623390214 3.008843175e-13)
(0.0007391034391 0.0001464176519 2.713662628e-13)
(0.0007334060079 0.00019865387 2.692290835e-13)
(0.0005462527125 0.000120281606 1.629529844e-13)
(0.000554435048 8.930610011e-05 1.654093529e-13)
(0.0004602422408 6.979834261e-05 1.292299601e-13)
(0.00045184363 9.366386436e-05 1.268707361e-13)
(0.0001566902545 2.76293293e-05 3.738676035e-14)
(0.0001630749042 2.104489995e-05 3.89271948e-14)
(8.410042589e-05 1.033930393e-05 1.91235916e-14)
(7.928130714e-05 1.331634468e-05 1.801336857e-14)
(0 0 0)
(0 0 0)
(0 0 0)
(0 0 0)
(0 0 0)
(0 0 0)
(0 0 0)
(0 0 0)
(0 0 0)
(0 0 0)
(0 0 0)
(0 0 0)
(0 0 0)
(0 0 0)
(0.0003025872251 -1.980638725e-05 0)
(0.0003024575195 -5.541279494e-05 0)
(0.0003398383578 -5.540570231e-05 0)
(0.0003399729917 -1.981082021e-05 0)
(0.0006020133649 -1.979412038e-05 3.59184904e-13)
(0.000601604191 -9.081775551e-05 3.591155151e-13)
(0.0006674362354 -8.960047787e-05 3.542444116e-13)
(0.0006686192932 -1.957305848e-05 3.547162564e-13)
(0.0007528422679 -1.654001686e-05 2.996491943e-13)
(0.0007498790161 -7.550665496e-05 2.985667269e-13)
(0.000731388787 -6.794609969e-05 2.68798872e-13)
(0.0007347101214 -1.487441488e-05 2.699368506e-13)
(0.000548619406 -8.92903771e-06 1.637578961e-13)
(0.0005450615225 -4.100677262e-05 1.627309398e-13)
(0.0004509983271 -3.189973249e-05 1.267180805e-13)
(0.0004543594468 -6.927390569e-06 1.276340145e-13)
(0.0001587066166 -2.027186365e-06 3.788636072e-14)
(0.0001566449715 -9.386835753e-06 3.740063814e-14)
(7.934288274e-05 -4.524103674e-06 1.804112415e-14)
(8.080516515e-05 -9.791561191e-07 1.837419106e-14)
(0 0 0)
(0 0 0)
(0 0 0)
(0 0 0)
(0 0 0)
(0 0 0)
(0 0 0)
(0 0 0)
(0 0 0)
(0 0 0)
(0 0 0)
(0 0 0)
(0 0 0)
(0 0 0)
(0.0003012717535 -0.0003042492283 0)
(0.0003010400406 -0.000339806174 0)
(0.0003383846996 -0.000339761195 0)
(0.000338624634 -0.0003042141317 0)
(0.0005990413628 -0.0003031699567 3.582828478e-13)
(0.0005973932548 -0.0003732462283 3.575473251e-13)
(0.0006559380266 -0.0003642346484 3.489569744e-13)
(0.0006601772941 -0.000296959609 3.509831314e-13)
(0.0007258966796 -0.0002447433213 2.89337998e-13)
(0.0007114286467 -0.000296044861 2.837036162e-13)
(0.0006901787725 -0.0002650147399 2.540051502e-13)
(0.0007020641752 -0.0002184294061 2.582933867e-13)
(0.0005056219001 -0.0001276248598 1.510735981e-13)
(0.0004930504516 -0.0001535664359 1.473404732e-13)
(0.0003994489806 -0.0001170420873 1.123406923e-13)
(0.0004112290867 -9.764690241e-05 1.156158502e-13)
(0.0001280554146 -2.581163382e-05 3.060052212e-14)
(0.0001211861454 -3.014216471e-05 2.896294315e-14)
(5.386337721e-05 -1.275523015e-05 1.226796442e-14)
(5.847242947e-05 -1.122076662e-05 1.330879851e-14)
(0 0 0)
(0 0 0)
(0 0 0)
(0 0 0)
(0 0 0)
(0 0 0)
(0 0 0)
(0 0 0)
(0 0 0)
(0 0 0)
(0 0 0)
(0 0 0)
(0 0 0)
(0 0 0)
(0.0002991453932 -0.0005880149226 0)
(0.0002988100827 -0.0006234549216 0)
(0.0003361415985 -0.0006233803051 0)
(0.0003364884306 -0.0005879403155 0)
(0.0005896863239 -0.0005788931508 3.538697113e-13)
(0.0005856273419 -0.0006448804103 3.518019209e-13)
(0.0006333828624 -0.0006195035397 3.379657665e-13)
(0.0006406274215 -0.0005587120288 3.415462357e-13)
(0.0006704197793 -0.0004377668365 2.677164046e-13)
(0.0006596361874 -0.0004829544667 2.635391905e-13)
(0.000623786897 -0.0004213300117 2.299410662e-13)
(0.0006432304311 -0.0003874987517 2.370048602e-13)
(0.000435978956 -0.0002131106946 1.303956942e-13)
(0.0004086805166 -0.0002239569499 1.222771884e-13)
(0.0003163987026 -0.0001631225401 8.906764215e-14)
(0.0003437799292 -0.0001580944809 9.67559366e-14)
(8.597768182e-05 -3.357021147e-05 2.056688153e-14)
(7.508559776e-05 -3.2865723e-05 1.795785742e-14)
(2.437772132e-05 -1.015933355e-05 5.551115123e-15)
(3.068419339e-05 -1.14070753e-05 6.994405055e-15)
(0 0 0)
(0 0 0)
(0 0 0)
(0 0 0)
(0 0 0)
(0 0 0)
(0 0 0)
(0 0 0)
(0 0 0)
(0 0 0)
(0 0 0)
(0 0 0)
(0 0 0)
(0 0 0)
(0.0003031824865 0.0003014977635 0)
(0.0002657556799 0.000301633905 0)
(0.0002657475962 0.0002838117262 0)
(0.0002657493381 0.0002659286397 0)
(0.0002649189963 0.0005529620228 0)
(0.0002651937967 0.0005168767595 0)
(0.0003027103821 1.584282015e-05 0)
(0.0002653443667 1.584723686e-05 0)
(0.0002652885401 -1.98807015e-06 0)
(0.0002652277798 -1.98184353e-05 0)
(0.0002657477758 0.0002480307425 0)
(0.0002657429177 0.0002301279102 0)
(0.0003014622909 -0.0002687251674 0)
(0.0002641225562 -0.0002687866097 0)
(0.000264033876 -0.0002865428848 0)
(0.0002639369769 -0.0003042859856 0)
(0.0002651637263 -3.765044367e-05 0)
(0.0002651013566 -5.543636724e-05 0)
(0.0002994806915 -0.000552589737 0)
(0.0002621639809 -0.0005526742413 0)
(0.0002618072665 -0.0005881224524 0)
(0.0002637101897 -0.0003398577488 0)
(0.0002615246245 -0.0006235641407 0)
(-4.990064491e-05 0.0008443741497 0)
(-5.003806744e-05 0.0008091907537 0)
(0.0003022600497 0.0005886251559 0)
(0.000264626062 0.0005890124731 0)
(0.0002592923002 0.000841874633 0)
(0.0002602717469 0.0008060154844 0)
(0.0001532146543 0.0004095742836 0)
(0.0001531735301 0.0004186034237 0)
(0.0001437286714 0.0004186166283 0)
(0.0001437441141 0.0004095814194 0)
(0.000152010804 0.0005543549371 0)
(0.0001331566845 0.0005546367002 0)
(0.0001334647349 0.0005363537121 0)
(0.0001522928898 0.0005361219409 0)
(0.0003406257958 0.0003014142783 0)
(0.0006028365834 0.0003363909407 3.590877595e-13)
(0.0005280231777 0.0003367316008 0)
(0.000527923353 0.0002654347114 0)
(0.000527951046 0.0005510787952 0)
(0.0005280239471 0.0004796634538 0)
(0.0001513645175 0.0001230519144 0)
(0.0001514141625 0.0001319761338 0)
(0.0001407791151 0.0001319733647 0)
(0.0001407326027 0.0001230557265 0)
(0.0001531301328 0.0002660739936 0)
(0.0001433450253 0.000266045836 0)
(0.0001436084342 0.0002571180671 0)
(0.0001532638313 0.000257133164 0)
(0.0003400994339 1.583015481e-05 0)
(0.0006023424517 5.139103175e-05 3.592126596e-13)
(0.0005273851279 5.143396196e-05 0)
(0.0005271076115 -1.977883853e-05 0)
(0.0005277955042 0.0001940851751 0)
(0.0001527681622 -0.0001623527446 0)
(0.0001527402688 -0.0001534465667 0)
(0.0001433281435 -0.0001534585719 0)
(0.0001434085422 -0.000162364793 0)
(0.0001529832521 -1.979683494e-05 0)
(0.0001433805561 -1.977411865e-05 0)
(0.0001430850234 -2.868003036e-05 0)
(0.0001528177401 -2.871272927e-05 0)
(0.0003388283429 -0.0002686851439 0)
(0.0006002135497 -0.0002326932259 3.58726937e-13)
(0.0005260745521 -0.0002330599071 0)
(0.0005256490899 -0.0003040438008 0)
(0.0005268022306 -9.085006567e-05 0)
(0.0001512787323 -0.0004465748871 0)
(0.0001514182543 -0.000428840051 0)
(0.0001328367573 -0.0004288905961 0)
(0.0001327166533 -0.000446630386 0)
(0.0001521623451 -0.0003044869732 0)
(0.000133535438 -0.0003045160838 0)
(0.0001334772531 -0.0003134172531 0)
(0.0001334416039 -0.0003223349002 0)
(0.0001520680484 -0.0003222679327 0)
(5.83704008e-07 -0.0007308766857 0)
(9.855979478e-06 -0.0007308382305 0)
(9.776884024e-06 -0.0007219484698 0)
(4.145126314e-07 -0.0007219638078 0)
(0.0001485254635 -0.0007301063427 0)
(0.0001487520364 -0.0007123946214 0)
(0.0001301820298 -0.0007124830324 0)
(0.0001299699466 -0.000730188182 0)
(0.0001501212625 -0.0005884304988 0)
(0.0001315759652 -0.0005884942411 0)
(0.0001314060043 -0.0006062158847 0)
(0.0001499593666 -0.0006061521489 0)
(0.0001530568482 0.000275024649 0)
(0.0001431923986 0.0002749866812 0)
(0.0001437768587 0.0004005700622 0)
(0.0001532378584 0.0004005701765 0)
(0.0003030898306 0.0004089079446 0)
(0.0002656104041 0.0004091048645 0)
(0.000265646692 0.0003911992002 0)
(0.0002656911563 0.000373228844 0)
(0.0003031459249 0.0003730696363 0)
(0.0001532905469 0.0003915928738 0)
(0.0001720508553 0.0003915198266 0)
(0.0001719932068 0.0004094699487 0)
(0.0001627353248 0.0002660841939 0)
(0.0001626999007 0.0002750397561 0)
(0.0001531551711 -1.08957593e-05 0)
(0.0001436844695 -1.088467319e-05 0)
(0.0001407956988 0.0001141248306 0)
(0.0001514139415 0.0001141078623 0)
(0.0003029943704 0.0001229188956 0)
(0.0002842998533 0.0001229359269 0)
(0.0002842637468 0.0001050627471 0)
(0.0003029549747 0.0001050490105 0)
(0.0001617642301 0.0001140960523 0)
(0.0001617386763 0.0001230450226 0)
(0.0001624802859 -1.98112346e-05 0)
(0.0001625732054 -1.09035102e-05 0)
(0.0001627970905 0.0002571368398 0)
(0.0001617740058 0.0001319741915 0)
(0.000303028808 0.0001407640959 0)
(0.000284332645 0.0001407811285 0)
(0.0001522490516 -0.0002867290506 0)
(0.0001336083145 -0.0002867630876 0)
(0.0001335725346 -0.0002956395863 0)
(0.0001433967713 -0.0001712676463 0)
(0.0001527410813 -0.0001712588772 0)
(0.0003020058992 -0.0001621809426 0)
(0.0002646529944 -0.000162245666 0)
(0.0002645741708 -0.0001800249923 0)
(0.0002644920783 -0.000197776335 0)
(0.0003018367481 -0.0001977181886 0)
(0.0001526972323 -0.000180140307 0)
(0.0001713466901 -0.0001801095691 0)
(0.0001714255096 -0.0001623351806 0)
(0.0001707719713 -0.0003044562025 0)
(0.0001708639434 -0.0002866999301 0)
(0.000162390646 -2.873377511e-05 0)
(0.0001714895292 -0.0001445443206 0)
(0.0001621340363 -0.0001445415589 0)
(0.0001527319526 -0.0001445519265 0)
(0.0003021536667 -0.0001266272197 0)
(0.000264815601 -0.0001266606825 0)
(0.0002647400557 -0.0001444564708 0)
(0.0001502991347 -0.0005706956942 0)
(0.0001317396824 -0.000570759425 0)
(0.0001326006601 -0.0004643751171 0)
(0.0001511691582 -0.0004643196235 0)
(-8.519194757e-06 -0.0007309630125 0)
(-8.644985781e-06 -0.0007397933509 0)
(5.585730937e-07 -0.0007397334419 0)
(-8.845569176e-06 -0.0007220055649 0)
(0.00012972364 -0.0007478784899 0)
(0.0001482784932 -0.0007478032339 0)
(9.827293346e-06 -0.0007396949837 0)
(7.651717631e-05 0.0004821378838 0)
(7.585361064e-05 0.0004910292777 0)
(6.640305047e-05 0.0004905144709 0)
(6.93622426e-05 0.0004832725545 0)
(7.572175419e-05 0.0005560071898 0)
(6.586886856e-05 0.000556220764 0)
(6.587157045e-05 0.0005467040719 0)
(7.578447875e-05 0.0005466249245 0)
(7.53787789e-05 -0.0003753273746 0)
(7.50225488e-05 -0.0003663880078 0)
(6.513646968e-05 -0.0003657083302 0)
(6.367106596e-05 -0.0003731418131 0)
(0.0003368089074 -0.0005525249933 0)
(0.0005928930433 -0.0005113103971 3.554517791e-13)
(0.000524136194 -0.0005167669417 3.592126596e-13)
(0.00052330929 -0.0005874127942 3.590461262e-13)
(0.0005251907063 -0.0003750309594 0)
(-2.759187917e-06 -0.0006573154481 0)
(8.829043764e-06 -0.0006594844519 0)
(8.799818755e-06 -0.0006505963782 0)
(-8.061481324e-07 -0.0006499482039 0)
(7.532288846e-05 -0.0006596346396 0)
(7.549844014e-05 -0.0006419195844 0)
(5.694671022e-05 -0.0006419997808 0)
(5.687078037e-05 -0.000650863079 0)
(5.681756711e-05 -0.0006597231039 0)
(7.603071168e-05 -0.0005887497344 0)
(6.67629145e-05 -0.0005887865473 0)
(6.668122659e-05 -0.0005976465489 0)
(7.594968078e-05 -0.0005976113823 0)
(0.0001711080334 0.0005358799757 0)
(0.000170908947 0.0005539668761 0)
(0.0001719273617 0.0004274602383 0)
(0.0001531527916 0.0004276035786 0)
(0.0003030156163 0.0004447283271 0)
(0.000265546012 0.000444860389 0)
(0.0002655823308 0.0004269922521 0)
(7.609513083e-05 -0.0005798732593 0)
(6.681993237e-05 -0.0005799034824 0)
(7.627236235e-05 -0.0005177179572 0)
(6.666622887e-05 -0.000517672195 0)
(6.676374795e-05 -0.0005265751383 0)
(7.627822051e-05 -0.0005265994279 0)
(0.0003003319161 -0.000446256445 0)
(0.0002630020543 -0.0004463211874 0)
(0.0002627375068 -0.0004817760581 0)
(0.000300060793 -0.0004817014347 0)
(0.0001697467035 -0.000464270721 0)
(0.0001698715808 -0.0004465309351 0)
(0.0001686866347 -0.0005883733566 0)
(0.0001688724047 -0.0005706418505 0)
(0.0001706783424 -0.000322225641 0)
(0.0001700013917 -0.000428796091 0)
(0.0003005948529 -0.0004107587787 0)
(0.0002632584088 -0.0004108218697 0)
(-1.157344183e-05 0.0007037099601 0)
(-3.207666672e-05 0.0007035554921 0)
(-3.207979239e-05 0.0006859578147 0)
(-1.160266376e-05 0.0006861103291 0)
(0.0001517207865 0.0005725501161 0)
(0.000132832617 0.000572857123 0)
(0.0001476164081 0.000700656756 0)
(0.0001082891004 0.0007018659654 0)
(0.0001086136768 0.0006840639224 0)
(0.0001099239695 0.0006656203056 0)
(0.0001300993481 0.0006644199451 0)
(0.0001494218007 0.0006638166087 0)
(9.815005597e-06 0.0006859437455 0)
(9.704577536e-06 0.0007035606092 0)
(7.400193638e-05 0.0004706330568 0)
(0.0001528513419 0.0004817065371 0)
(0.0001340629406 0.0004818434697 0)
(0.0001341069833 0.0004727605051 0)
(0.0001341520259 0.0004636926822 0)
(0.000152980786 0.000463596371 0)
(8.569228792e-05 0.0004727513008 0)
(8.58558756e-05 0.0004819289004 0)
(8.553989533e-05 0.0005465752538 0)
(8.54051856e-05 0.0005558872838 0)
(8.563971148e-05 0.0004910645119 0)
(0.0001527233301 0.0004997571191 0)
(0.0001339605625 0.0004998418545 0)
(0.0001340091283 0.0004908551733 0)
(0.0001541011196 0.0001945359163 0)
(0.0001452270881 0.0001945695545 0)
(0.0001451255813 0.0001856272725 0)
(0.000154006527 0.0001855952746 0)
(0.0001540755631 0.0002034815948 0)
(0.0001451437579 0.0002035136345 0)
(0.0001530891245 -9.114820951e-05 0)
(0.0001438152536 -9.116526628e-05 0)
(0.0001437116152 -0.0001000976709 0)
(0.000153035687 -0.0001000806554 0)
(0.0001530619288 -8.219430007e-05 0)
(0.0001437472469 -8.220144765e-05 0)
(7.63415557e-05 -0.0004466415979 0)
(7.64634017e-05 -0.0004377849213 0)
(6.704749485e-05 -0.0004377919855 0)
(6.666415057e-05 -0.0004465990689 0)
(6.745790291e-05 -0.000384500236 0)
(7.622968737e-05 -0.0003843757802 0)
(0.0001517596869 -0.0003755614122 0)
(0.0001331653584 -0.0003756037171 0)
(0.0001330516817 -0.0003933336366 0)
(0.0001516558857 -0.0003932913399 0)
(8.571323127e-05 -0.0003843819391 0)
(8.532524141e-05 -0.0003754343165 0)
(8.595509995e-05 -0.0004466824284 0)
(8.599745817e-05 -0.0004378125189 0)
(7.685125631e-05 -0.0003042999023 0)
(7.534550152e-05 -0.0003125645492 0)
(8.514551319e-05 -0.0003132260507 0)
(8.567634805e-05 -0.0003044009835 0)
(8.516945356e-05 -0.0003665346171 0)
(0.0001518653107 -0.0003578166726 0)
(0.0001332718066 -0.0003578573322 0)
(0.0001332133128 -0.0003667338122 0)
(7.447716714e-05 -0.0007304815749 0)
(7.47106435e-05 -0.0007127813808 0)
(5.626044468e-05 -0.0007128896417 0)
(5.605083165e-05 -0.0007305931473 0)
(5.673884458e-05 -0.000668579816 0)
(5.66673601e-05 -0.0006774414719 0)
(7.513927713e-05 -0.0006773431045 0)
(3.777914763e-07 -0.0006686453553 0)
(9.303222315e-06 -0.0006685029207 0)
(0.0001534075036 0.0003377097995 0)
(0.0001439081695 0.0003377291389 0)
(0.0001440309899 0.0003287702129 0)
(0.0001534675936 0.0003287262362 0)
(0.0001533720863 0.0003466735913 0)
(0.0001438455944 0.000346692953 0)
(0.0001540130904 5.157335617e-05 0)
(0.0001452066661 5.155756064e-05 0)
(0.0001451296864 4.261855036e-05 0)
(0.0001539810447 4.263430891e-05 0)
(0.0001539266262 6.05092091e-05 0)
(0.0001451004521 6.049507575e-05 0)
(0.0001630410506 5.158073971e-05 0)
(0.0001629973793 6.051491148e-05 0)
(0.0002281048516 5.156340375e-05 0)
(0.0002281442216 6.940201618e-05 0)
(0.00020947768 6.941244066e-05 0)
(0.000209446537 5.157052959e-05 0)
(0.0002282442803 0.0001229837057 0)
(0.0002095563456 0.0001229990856 0)
(0.0002095301066 0.0001051160221 0)
(0.0002282147507 0.0001051022909 0)
(0.000227894679 -1.981898348e-05 0)
(0.0002279537974 -1.983679178e-06 0)
(0.0002092971246 -1.981492497e-06 0)
(0.0002092363589 -1.981844138e-05 0)
(0.000209403863 3.371710647e-05 0)
(0.0002280588871 3.371162927e-05 0)
(0.0001630254656 4.264332484e-05 0)
(0.0001631767862 0.0001945119879 0)
(0.0001631742714 0.0002034560014 0)
(0.000228337639 0.0001944237968 0)
(0.0002283507052 0.0002123002874 0)
(0.0002096710083 0.0002123255361 0)
(0.0002096612327 0.0001944473969 0)
(0.0002283521013 0.0002659956277 0)
(0.0002096559505 0.0002660274737 0)
(0.0002096659004 0.0002481180454 0)
(0.0002283571147 0.0002480878494 0)
(0.0002282721382 0.0001408338492 0)
(0.0002095825589 0.0001408508763 0)
(0.0002096399423 0.0001765774968 0)
(0.0002283196419 0.00017655554 0)
(0.0001631167596 0.0001855729636 0)
(0.0001524853184 -0.0002334388037 0)
(0.0001431237288 -0.0002334442667 0)
(0.0001431073533 -0.0002423421785 0)
(0.0001524513328 -0.000242335055 0)
(8.666912344e-05 -0.0002956651769 0)
(7.834840617e-05 -0.0002956912478 0)
(0.0001524941186 -0.0002245458235 0)
(0.0001431085023 -0.0002245463289 0)
(7.620801545e-05 -0.0004555081405 0)
(8.588902944e-05 -0.0004555654859 0)
(8.573039021e-05 -0.0005177290329 0)
(8.575251834e-05 -0.0005088410015 0)
(7.624117441e-05 -0.0005088150685 0)
(0.0001507575106 -0.0005175175537 0)
(0.0001509014861 -0.0004997711997 0)
(0.000132339573 -0.0004998250528 0)
(0.0001321985535 -0.0005175796389 0)
(6.65313647e-05 -0.0005087478238 0)
(6.634119989e-05 -0.0004554210153 0)
(-6.09869812e-06 -0.0006698432038 0)
(5.579614712e-05 -0.0007482636971 0)
(7.423844275e-05 -0.0007481587216 0)
(3.6534988e-05 0.0005577905339 0)
(2.496077341e-05 0.0005577919481 0)
(3.541359215e-05 0.0005467661554 0)
(3.800133345e-05 -0.0006242064439 0)
(3.809306563e-05 -0.0006153415128 0)
(2.825325151e-05 -0.0006152445343 0)
(2.817485547e-05 -0.0006241045385 0)
(3.876320369e-05 -0.0005888474467 0)
(2.959315197e-05 -0.000588912321 0)
(2.942359014e-05 -0.0005977492071 0)
(3.868119065e-05 -0.0005977025101 0)
(-6.069133203e-05 0.0005572574306 0)
(-6.154630658e-05 0.0005469654798 0)
(-4.96850203e-05 0.0005455891311 0)
(-5.061280674e-05 0.0005586218888 0)
(3.864939528e-05 -0.0005799379062 0)
(2.919564143e-05 -0.0005799334178 0)
(3.863695299e-05 -0.0005532572877 0)
(2.987781513e-05 -0.0005534146726 0)
(2.970331415e-05 -0.0005622532005 0)
(3.878334683e-05 -0.0005621717928 0)
(-1.214299897e-05 0.0006333081876 0)
(-3.398791818e-05 0.0006327672061 0)
(-3.462733659e-05 0.0006150008502 0)
(-2.289142219e-05 0.0006155832346 0)
(-1.172207561e-05 0.0006157447259 0)
(-7.690610345e-05 0.0006122487477 0)
(-7.468117383e-05 0.0006313930923 0)
(7.552097647e-05 0.0005654390192 0)
(6.573449004e-05 0.0005657352437 0)
(7.241513461e-05 0.0006304834667 0)
(5.239402543e-05 0.0006313388769 0)
(5.336527363e-05 0.0006131172466 0)
(7.366850283e-05 0.0006118700363 0)
(2.702557472e-07 0.0006155791509 0)
(1.12547869e-05 0.0006152447094 0)
(1.051097755e-05 0.0006330306381 0)
(0.0001525513178 0.0001587496245 0)
(0.0001425830436 0.0001587528904 0)
(0.0001415807049 0.0001497965364 0)
(0.0001519752827 0.0001498011493 0)
(0.0001148702925 0.0002659787438 0)
(0.0001157032352 0.0002570998843 0)
(0.0001242429952 0.0002570879184 0)
(0.0001235575349 0.0002659748862 0)
(0.000117792154 0.0002303764085 0)
(0.0001261330797 0.0002303580225 0)
(0.0001255631911 0.0002392778139 0)
(0.0001171826025 0.0002393011703 0)
(0.0001537371656 0.0002302892185 0)
(0.0001535848735 0.0002392366472 0)
(0.0001442116098 0.0002392460072 0)
(0.0001444917991 0.0002303083489 0)
(0.0001527691516 -0.0001267511687 0)
(0.0001431978781 -0.0001267465836 0)
(0.0001431601055 -0.0001356444778 0)
(0.0001527284096 -0.0001356572901 0)
(0.0001134894107 -0.0001265427271 0)
(0.0001132801548 -0.0001354124992 0)
(0.000123410143 -0.0001355146543 0)
(0.0001234971196 -0.0001266283222 0)
(0.0001157246482 -0.0001624720384 0)
(0.0001247432699 -0.0001624119773 0)
(0.0001243993965 -0.0001534578072 0)
(0.0001151915208 -0.000153483148 0)
(0.0001156661764 -1.972497517e-05 0)
(0.0001149792542 -2.861410542e-05 0)
(0.0001235346627 -2.861127079e-05 0)
(0.0001241649567 -1.973196954e-05 0)
(0.0001125888739 -5.459980778e-05 0)
(0.0001224796023 -5.523011118e-05 0)
(0.0001224072633 -4.633048045e-05 0)
(0.0001133662291 -4.622428371e-05 0)
(0.0001526451496 -5.542940609e-05 0)
(0.0001526108303 -4.653145259e-05 0)
(0.0001427038255 -4.647885903e-05 0)
(0.0001427843928 -5.538014246e-05 0)
(0.0001533517079 0.0003019124025 0)
(0.0001438364069 0.0003019301091 0)
(0.0001434955528 0.0002929534594 0)
(0.0001531962158 0.0002929718109 0)
(0.000116658706 0.0003021055479 0)
(0.0001122117459 0.0002907390878 0)
(0.0001238507609 0.0002928774544 0)
(0.0001251264398 0.000301973488 0)
(0.0001230156028 0.0002748650278 0)
(0.0001139936608 0.0002747704048 0)
(0.0001628255339 0.0003376971108 0)
(0.0001628016341 0.0003466559553 0)
(0.0002283105775 0.0003375378777 0)
(0.0002282940128 0.0003554094549 0)
(0.0002095879999 0.0003554577684 0)
(0.0002096094957 0.0003375779575 0)
(0.0002281622174 0.0004092617624 0)
(0.0002094479759 0.0004093113994 0)
(0.0002095023292 0.0003913573298 0)
(0.0002282132759 0.0003913040744 0)
(0.0002283454298 0.0002838885938 0)
(0.0002096459899 0.0002839237344 0)
(0.0002096342413 0.0003196471199 0)
(0.0002283336786 0.0003196086875 0)
(0.0001628609281 0.0003287053381 0)
(0.0001536347553 1.585358357e-05 0)
(0.0001445179133 1.584462725e-05 0)
(0.0001442590877 6.941977193e-06 0)
(0.000153485874 6.945905232e-06 0)
(0.0001181499842 1.578567684e-05 0)
(0.0001175927819 6.92112885e-06 0)
(0.0001259266477 6.924145814e-06 0)
(0.0001264381106 1.58101286e-05 0)
(0.0001247870088 -1.086747492e-05 0)
(0.0001163492751 -1.088192795e-05 0)
(0.0001525084756 8.729303248e-05 0)
(0.0001519519313 9.622762634e-05 0)
(0.0001415865054 9.624603254e-05 0)
(0.0001425683564 8.730779679e-05 0)
(0.0001154734358 -0.0001713236707 0)
(0.0001246813142 -0.0001712950381 0)
(0.0001135954349 -0.000197709757 0)
(0.0001236609052 -0.0001978085672 0)
(0.0001239738387 -0.0001889586316 0)
(0.0001141614792 -0.0001889011781 0)
(0.000152578762 -0.0001978949117 0)
(0.0001526254105 -0.0001890118382 0)
(0.0001432184012 -0.0001890073883 0)
(0.0001431307716 -0.0001978871361 0)
(0.0001711184869 -0.0002334014686 0)
(0.0001711890645 -0.0002156418867 0)
(0.0001525145913 -0.0002156693122 0)
(0.0002270178019 -0.0002333207359 0)
(0.0002270982416 -0.0002155776215 0)
(0.0002084596551 -0.0002155984928 0)
(0.0002083808532 -0.0002333514841 0)
(0.0002273445541 -0.0001622807991 0)
(0.0002087026798 -0.0001622967299 0)