/*--------------------------------*- C++ -*----------------------------------*\
| =========                 |                                                 |
| \\      /  F ield         | OpenFOAM: The Open Source CFD Toolbox           |
|  \\    /   O peration     | Version:  v2012                                 |
|   \\  /    A nd           | Website:  www.openfoam.com                      |
|    \\/     M anipulation  |                                                 |
\*---------------------------------------------------------------------------*/
FoamFile
{
    version     2.0;
    format      ascii;
    class       volScalarField;
    location    "2.32";
    object      p;
}
// * * * * * * * * * * * * * * * * * * * * * * * * * * * * * * * * * * * * * //

dimensions      [0 2 -2 0 0 0 0];


internalField   nonuniform List<scalar> 
3019
(
880.2832391
878.8277252
875.4123655
868.6424418
859.4081349
840.1725498
809.4294596
761.3323018
690.4301813
590.3991878
457.2929073
292.5100455
881.1963845
880.1612467
877.5827177
872.3182146
863.0616001
846.4611491
818.9798423
779.8186481
715.557665
622.015797
493.0923002
327.4281795
883.3640596
883.2517797
882.6225173
880.6531467
873.7541442
863.1386065
843.5591012
809.2817452
754.4764595
668.3231273
538.3057685
359.0158862
886.0497332
887.2431548
889.3941109
891.8221636
889.6971515
887.4946347
880.2410061
857.4896082
820.4961435
749.0900391
623.0865268
423.2522715
887.8828487
890.5711273
895.971408
903.5249457
907.5107684
916.2385626
924.6926233
921.5225966
911.2272787
871.4703029
770.6523251
552.6800966
887.386919
891.5705906
900.2193331
913.4412427
923.4180217
944.7434434
971.2986053
991.6914591
1021.250219
1040.511428
1016.564953
829.5628906
883.1386517
888.6430767
900.0453461
918.1522026
935.466883
967.6597103
1011.57342
1056.507706
1129.301745
1228.651488
1367.592309
1479.638904
873.9046627
880.365824
893.7331276
915.2785799
938.8561158
979.3370142
1035.578507
1101.094202
1206.904605
1367.622342
1648.103627
2220.180139
858.7489405
865.6781535
879.981603
903.1363476
931.4017698
975.8987581
1037.846227
1114.708852
1232.296249
1399.582002
1646.840815
1961.107801
837.1664359
844.0270418
858.135697
880.9066673
911.7938957
955.8627048
1016.44639
1093.973351
1203.295249
1345.986231
1519.871234
1684.470006
809.1463067
815.4421281
828.2990626
848.7886266
880.3879664
920.1229185
973.7407484
1044.760856
1136.932078
1249.099069
1374.650173
1491.667936
775.1329598
780.4549294
791.2946046
807.6527477
839.1574754
871.0877095
913.886492
973.7731343
1045.057396
1128.310555
1221.968806
1333.705539
2007.986209
1712.544165
1512.632672
1354.121001
2173.825326
1554.916332
1694.473731
1922.270587
1411.349291
1500.504955
1667.503453
1605.620993
1643.65459
1745.998866
1261.579722
1339.10581
1479.408742
1432.156158
1476.103933
1538.933706
1318.447454
1258.713462
1325.779451
1401.385063
2501.065242
2093.975911
2969.254262
2581.066201
1759.859918
1861.474753
1805.072461
1866.315534
1764.002504
2056.539253
1883.339762
1549.080444
1630.018037
1580.968289
1637.892251
1551.044108
1756.715346
1645.337837
1406.52244
1472.333394
1412.901897
1476.249019
1411.388577
1545.71675
1479.7823
1320.3591
1246.498519
1326.318159
1406.126973
1331.798639
1666.976855
1961.446179
2101.920254
2195.50044
2530.803166
2819.806264
1839.758029
1878.991869
2055.994798
2092.326709
2462.591514
2154.419185
2211.619089
3849.458388
3388.061902
2077.188473
2920.165125
1361.466979
1328.102907
1295.092063
2553.518924
2247.851472
2291.507275
2255.998781
2573.580956
2053.276204
2222.315559
2234.021866
2902.06441
3321.142792
3696.994505
2637.478027
3225.706248
2829.861598
3272.507055
2629.873239
1816.893746
1880.416141
1809.828888
1966.846208
1948.243102
2040.13718
1885.297673
1938.613138
1942.897861
1593.993955
1587.827434
1705.244844
1697.146736
1446.983919
1442.381184
1511.763491
1507.415295
1283.426035
1370.541003
1366.142415
2778.111449
3791.091774
1504.489377
1481.32333
1453.900242
1520.344493
1490.774349
1509.142212
1369.315122
1338.600227
1366.12532
1581.015748
1563.040005
1530.640084
1559.112058
1573.006377
1566.01702
1438.296045
1408.156444
1379.280085
1444.90035
1417.539234
1442.85767
1465.042542
1480.376451
1488.071613
1425.670822
1445.736039
1426.17546
1530.793845
1537.691316
1553.98854
1490.245952
1498.780548
1490.797229
1389.886733
1399.550843
1420.95371
1367.190798
1346.705212
2136.483559
2113.029838
3793.476113
3715.132868
2400.953596
2358.405042
2368.798885
2389.015785
2278.252407
2571.89181
2430.785776
2413.308842
2117.806664
2137.432557
2074.781928
2245.714916
2161.56531
2142.374215
2861.319402
2799.510984
2629.041949
2965.988956
2868.997568
1848.184823
1846.637639
1828.417547
1876.806249
1854.035661
1857.332318
1802.403859
1786.182255
1823.78411
1807.590661
1982.103091
1995.917984
1958.931951
2057.236229
2009.869062
1994.283359
1909.065933
1909.963408
1884.47494
1948.022198
1919.062579
1918.508263
1619.814958
1602.325453
1647.208076
1624.924896
1574.853919
1562.043275
1595.690984
1578.950515
1747.136397
1721.258396
1779.839068
1755.724297
1678.074106
1653.845984
1712.627316
1686.838192
1458.629522
1475.828076
1460.831189
1481.802128
1461.589683
1491.546857
1486.87273
1457.369923
1429.905865
1447.174124
1453.968538
1520.645273
1532.4632
1525.594955
1535.895583
1523.672368
1556.812382
1540.423589
1500.222033
1492.888759
1516.518562
1503.493244
1494.732588
1502.259786
1515.534348
1381.544906
1393.798199
1384.6694
1352.00894
1372.997966
1379.004779
1687.243636
1662.6834
1622.956065
1718.50547
1676.464564
1702.169501
1610.314586
1574.396616
1592.518315
1618.335982
1623.953865
1645.259354
1652.204784
1675.573791
1666.709625
2180.278339
2495.276448
2564.996053
2284.171563
2291.448301
2300.720276
2265.406391
2067.23826
2080.818197
2063.099045
2232.41555
2202.192197
2192.001656
3051.393988
2864.055935
2948.861313
3162.957292
3175.720181
3319.938692
2627.350757
2693.233631
2700.888871
1834.754841
1832.764252
1833.811075
1878.849128
1871.952385
1873.939679
1804.149871
1800.427034
1831.023279
1824.893404
1960.253128
1963.817797
1952.487127
2046.741081
2030.669516
2025.132175
1890.601499
1891.733535
1885.038068
1942.397026
1934.095646
1932.142503
1600.339885
1618.070003
1611.617379
1571.569878
1577.657939
1594.197735
1717.327746
1742.251411
1727.638957
1737.54602
1728.343225
1795.545223
1787.205535
1663.089259
1719.228531
1710.198613
1674.715217
1683.927071
1708.964922
1483.498291
1478.261252
1474.702377
1430.82479
1426.852456
1421.32433
1438.107609
1433.059633
1438.022327
1334.713871
1328.31178
1406.663609
1403.562459
1397.213757
1416.090944
1410.169734
1414.477208
1346.714008
1343.01514
1359.45675
1342.952629
1350.664879
2156.986562
2086.040549
4232.108808
4133.494093
3631.653446
3491.434673
3982.043353
3788.942916
3922.907975
2446.778306
2319.728958
2125.422648
2101.051228
2087.15545
2166.052212
2175.009496
2149.916963
2959.283083
3056.827293
3065.985702
3353.519105
3224.190336
2778.869671
2770.611435
2861.383066
1848.136888
1841.465531
1841.632123
1866.158346
1864.303298
1856.251687
1811.132531
1807.54348
1819.283486
1814.953342
1987.0844
1975.2776
1971.442875
2009.004507
2014.833438
2000.128412
1909.122124
1899.927718
1898.797446
1925.994409
1926.402811
1918.114029
1614.559632
1616.569091
1620.89133
1604.228957
1611.039668
1608.719001
1638.876322
1637.744866
1647.969219
1624.502958
1629.497803
1631.046731
1570.927054
1573.287277
1576.372959
1565.256983
1569.664324
1566.715981
1589.374458
1589.882544
1596.815674
1579.572367
1583.967537
1583.747999
1756.225353
1746.925054
1738.563181
1743.015234
1751.892194
1725.075571
1734.031891
1729.920223
1776.091556
1765.579012
1683.784552
1675.781266
1669.498932
1672.605611
1680.955963
1655.098233
1657.55452
1660.001989
1704.02341
1707.35943
1716.189592
1689.90279
1698.609234
1695.439699
1701.384189
1692.654667
1463.773009
1459.92019
1454.837171
1470.374729
1465.275828
1469.857865
1474.162289
1466.91912
1490.441421
1489.061984
1454.642946
1445.382565
1440.071345
1440.085529
1439.415839
1449.908455
1445.644388
1450.804507
1523.852205
1528.445283
1539.051752
1526.875336
1551.234067
1553.720977
1559.740696
1543.297661
1548.289288
1545.827958
1497.203939
1494.722257
1510.727734
1506.816411
1384.98711
1382.539906
1378.669604
1391.674274
1386.851444
1389.056431
1375.82126
1369.108538
1364.733453
1375.279172
1372.248742
1377.378096
799.9110579
759.217331
734.7334752
742.0182277
679.149356
649.1883998
653.2597968
560.834858
529.1522654
523.690915
396.6292261
371.6957122
348.4979585
843.8386931
814.5645708
770.7942781
801.5344236
748.6928628
693.5516131
725.3880708
635.028964
575.6650892
597.1438487
457.9164633
408.3988947
402.8800768
904.3967677
892.9523952
832.1811971
886.2939631
853.2716554
771.262839
836.5470452
761.6324207
660.9093826
726.087103
576.997404
480.6943299
511.0583959
974.1866285
989.22992
915.9037428
993.0380012
997.6603244
885.5022346
994.7583198
965.1293279
804.2651514
943.824124
813.9026082
621.6661222
738.1515623
1041.654435
1086.907058
1014.244272
1103.863027
1161.509932
1037.99178
1183.217281
1253.30597
1030.901236
1275.206582
1295.641204
904.9324146
1260.397297
1092.641058
1163.661526
1109.080264
1192.009996
1297.511668
1200.570814
1341.931439
1520.272171
1329.278506
1602.37442
2062.93159
1469.33877
1778.129033
1837.104122
1315.569334
1114.168412
1197.361741
1176.650984
1230.467809
1351.857666
1319.917289
1401.521664
1589.052701
1559.535604
1672.077442
1778.749807
1753.829785
2235.803206
2370.625662
2360.667111
1102.00363
1183.11528
1199.141951
1214.393741
1323.101127
1351.47813
1364.675517
1504.705477
1576.374342
1619.855412
1686.327491
1723.443635
1917.47297
1944.907568
1994.771441
1059.385305
1129.937202
1173.071034
1156.310147
1244.046452
1306.949134
1275.968795
1377.156437
1474.761994
1484.060147
1524.020719
1564.478143
1657.378858
1669.019152
1710.948731
993.1628053
1049.34501
1111.96822
1069.889299
1136.57526
1219.340426
1160.341431
1235.467154
1342.939578
1337.607349
1366.92433
1405.73273
1471.36264
1483.850437
1513.541475
1026.0397
1106.485189
1197.564271
1180.956771
1200.314257
1247.379862
1312.723496
1329.482435
1360.444552
2050.305299
2111.106341
2057.26184
1725.269234
1769.997009
1741.996211
1523.853765
1556.183119
1534.445137
1370.488684
1399.676994
1374.054167
2777.573792
2057.509794
1890.692321
1223.697111
1796.000645
1605.308392
1646.232694
1588.601879
1782.234251
1700.123611
1631.738439
1794.247543
1726.846585
1814.443332
1444.689367
1484.07636
1447.825558
1567.703629
1519.774924
1459.026344
1607.138204
1542.625415
1591.527108
1615.818447
1655.285177
1631.093277
1657.824794
1651.05263
1637.395633
1736.38663
1722.247314
1731.719181
1288.209401
1327.903359
1300.010284
1399.003696
1358.063743
1298.810403
1437.541851
1379.084071
1418.732692
1446.320547
1474.280953
1451.580982
1487.650333
1477.25887
1468.86577
1533.091172
1523.07572
1528.903376
1277.091363
1212.119136
1252.830484
1285.389126
1318.853095
1291.0071
1341.6146
1326.228155
1309.757247
1387.345374
1377.221813
1385.702551
2424.856292
2427.586459
2560.890768
2078.321247
2141.781155
2135.81362
2980.720427
3152.209793
3145.008744
2623.296843
2725.740271
2664.632422
1800.775221
1776.92443
1732.769408
1843.587115
1792.395969
1814.739236
1772.794486
1786.048299
1823.158902
1850.370511
1852.454806
1875.566854
1779.942
1797.566178
1783.383325
2023.291569
2012.26409
2060.431655
1883.555119
1909.696336
1901.610549
1559.363371
1553.740474
1543.306446
1624.133415
1611.316074
1616.937692
1557.230445
1567.480785
1603.166733
1631.52903
1633.642757
1640.559577
1553.607218
1558.625399
1555.835434
1735.518035
1750.456771
1773.382831
1647.588419
1654.847318
1651.984813
1421.001605
1406.900013
1397.301799
1460.551243
1452.137191
1460.616791
1393.607474
1409.204099
1437.080829
1472.676218
1476.931966
1480.197196
1416.465037
1422.042702
1416.684467
1540.896102
1543.400728
1548.553504
1483.418772
1486.710103
1483.349871
1303.93245
1273.716483
1320.193327
1325.207098
1331.518288
1400.788118
1405.465586
1411.062125
1337.677146
1340.998063
1336.129725
1754.987463
1776.027866
1676.784172
2074.501767
1864.687097
1819.130034
1838.09642
1874.231076
2101.830021
2301.063949
2349.620583
2224.987437
2727.97756
2463.575769
2369.39646
2541.281368
2483.040075
2780.643017
1859.950489
1900.234499
1877.109337
1941.066197
1925.592482
1864.227175
2030.429618
1951.13819
1965.755532
2225.239223
2165.876592
2062.773646
2325.868569
2206.885261
2278.454195
2107.097783
2175.398538
2240.001997
3862.907186
4051.052496
4022.758824
3456.721223
3592.151052
3505.292039
1777.997029
2447.806805
2450.594848
2517.986956
1875.909731
3528.306634
2775.982162
2586.381489
1347.048827
1336.812606
1346.852001
1317.419993
1326.988683
1337.497039
1304.934906
1316.136638
1306.435087
2280.660301
2387.404821
2354.833336
2581.228264
2524.396932
2516.547818
2182.248365
2165.700723
2249.32732
3032.943179
3108.895828
2955.567096
3589.523172
3290.445281
3108.117458
3355.82852
3359.676805
3649.828168
2706.117015
2704.996343
2641.033082
3167.860788
3087.5248
3133.49379
2748.891442
2833.438933
2939.779983
1825.756636
1845.093514
1835.339196
1790.302336
1803.218681
1820.299331
1960.35906
1998.307208
1993.564101
1921.346332
1918.988977
1949.29875
1596.062237
1601.994474
1599.51938
1582.504784
1584.512252
1590.22661
1709.147306
1717.023578
1712.464271
1689.934179
1693.389653
1701.281743
1450.969513
1455.843162
1451.666238
1438.020275
1441.907722
1446.221321
1514.783778
1518.947434
1516.390439
1503.116873
1505.934676
1510.44478
1293.584802
1374.741107
1378.977866
1375.046575
1361.723669
1366.824304
1370.741472
3133.319636
3375.888512
1494.8805
1485.915129
1491.699758
1472.065108
1479.07833
1488.172119
1461.420191
1470.169879
1462.925526
1510.280112
1516.825437
1526.857532
1497.48336
1507.015589
1500.414764
1519.17767
1513.301222
1503.88593
1359.203359
1368.198621
1378.281328
1347.810843
1358.023505
1348.952154
1380.584363
1367.098266
1357.070811
1575.596177
1564.487367
1569.961972
1551.968463
1558.404823
1569.509617
1537.117203
1547.609033
1541.15948
1563.936017
1561.269292
1556.339489
1570.890256
1566.083235
1568.521253
1561.183431
1563.573156
1568.582636
1425.345931
1416.169064
1425.23611
1398.677115
1407.363716
1416.711269
1388.207449
1397.885795
1389.052123
1435.891762
1443.965024
1452.714403
1425.966783
1435.05763
1426.775417
1456.383
1443.462202
1434.48991
1469.696184
1473.477997
1468.967474
1484.141661
1481.326943
1485.934538
1421.78359
1427.588859
1431.938147
1533.13066
1538.263683
1535.553954
1543.228673
1540.75143
1535.44837
1551.253723
1546.028724
1548.637087
1492.692337
1489.853829
1486.927308
1496.453074
1493.024878
1495.545138
1487.013152
1490.150632
1493.760232
1393.795745
1399.586646
1395.324342
1340.928958
1343.702565
1351.893106
3945.552843
4023.702663
3843.515589
4226.69555
4263.724809
3616.927254
3718.196432
3838.168718
2378.791615
2338.362672
2328.584408
2349.743314
2345.619969
2386.034571
2272.770283
2307.975977
2312.967364
2520.761208
2524.943446
2578.825873
2429.435991
2475.726397
2474.670244
2462.749599
2470.987194
2422.686033
2114.748388
2109.660131
2132.300066
2069.786401
2088.684095
2093.830027
2215.376316
2209.501896
2239.904345
2156.183067
2181.724948
2187.4804
2847.205532
2773.747824
2780.864501
2741.996977
2758.644438
2825.662527
2635.597405
2695.499788
2680.906953
1839.785189
1840.67752
1847.646867
1830.710319
1834.081947
1833.507943
1869.2259
1870.623959
1877.92708
1855.3054
1863.031667
1861.612197
1797.22981
1802.5537
1807.030647
1793.006252
1797.982952
1791.889207
1818.577715
1822.089199
1827.288174
1811.57687
1816.523711
1812.998274
1982.870658
1979.782685
1992.348561
1956.500917
1967.873466
1970.582702
2040.628802
2036.274957
2052.553093
2005.930362
2020.648296
2024.816991
1901.032983
1900.913012
1909.767643
1885.105641
1892.624602
1892.486717
1937.873588
1936.490448
1945.970256
1918.747008
1927.605278
1928.315843
1772.555389
1779.527112
1787.126744
1760.85779
1770.294621
1764.339944
1456.338341
1460.770297
1465.460237
1434.660986
1437.706618
1433.789322
1523.447118
1521.412343
1517.815505
1530.41
1525.35428
1525.84694
1521.098433
1523.388586
1528.209584
1497.553079
1501.587525
1498.8476
1505.94537
1504.050311
1500.106129
1513.3562
1508.497793
1510.241047
1379.73451
1383.517061
1388.424884
1357.558255
1362.642776
1357.096189
1679.261316
1665.042662
1672.412844
1649.14367
1657.162862
1670.929452
1630.400553
1643.626227
1635.863782
1704.39539
1712.941019
1727.025963
1684.850875
1698.858518
1690.358093
1717.049058
1707.95489
1693.599515
1598.009766
1604.908313
1617.47073
1580.949046
1592.726414
1586.019302
1604.456771
1598.9694
1587.083802
1620.308002
1626.855846
1624.396216
1630.508433
1628.936826
1622.35434
1642.961131
1635.907192
1637.841855
1659.388436
1657.355646
1650.003577
1672.889881
1665.05909
1667.454442
1659.773483
1662.329039
1669.957402
2993.527087
3037.555132
3106.894256
2895.138789
2967.034426
2926.175748
3041.245855
3006.26105
2925.097187
1606.433012
1604.282004
1598.302259
1616.193731
1610.230688
1612.336195
1605.900303
1607.967619
1614.046956
1573.68768
1579.002012
1576.617413
1582.718604
1581.054056
1575.83701
1592.363004
1586.576668
1588.258135
1725.681907
1721.366273
1713.277033
1737.385771
1729.410594
1733.999519
1720.487069
1724.820442
1732.589907
1677.709402
1685.538869
1681.842511
1692.263874
1688.964133
1680.903443
1705.167131
1697.059874
1700.611277
841.9111134
828.7745255
826.6124724
812.082111
790.6861251
787.7942585
764.6686559
732.9646174
729.1530165
694.6921914
649.0217474
644.3897701
595.2710628
532.9662822
528.0542308
461.9838414
382.6504275
378.5007723
295.6675183
202.583729
200.6459383
867.5427005
861.6969332
855.8295312
853.7045787
843.2548568
834.3761397
829.6208949
810.7805997
792.8055119
785.1593132
771.8786337
766.7046859
722.6345667
702.5277052
695.8750195
630.2062474
601.3585107
593.8033594
501.1529061
462.2807578
455.0664634
332.9250721
284.8854664
280.0487925
881.2200901
878.6372742
869.3389482
874.5128977
868.6414814
854.7610023
860.5371026
850.9846963
819.3631454
819.7018392
809.2764642
798.0268139
768.4867468
751.2695387
736.4263218
685.258114
657.6736794
640.5966806
555.1210586
514.2943958
498.1654021
371.2615316
317.5732491
307.473108
898.7547375
900.2687875
889.0274524
901.5936166
902.1324428
884.6353393
901.8670155
906.3375558
863.4022335
872.1238153
866.4331436
850.4209268
840.9495739
828.5937077
806.6705381
775.4404675
751.2001688
723.5618952
652.8775154
610.1455664
580.5944971
447.4936849
381.8198579
361.1879285
916.1980786
922.9627433
911.6290954
930.8524305
939.356565
920.6448764
948.0566888
968.6348163
921.4558085
938.941411
940.0990751
920.7601136
937.7319529
934.0581087
904.9090963
909.3576657
895.0048304
853.7652531
821.3343313
782.5689823
729.7496038
602.9091003
517.8371861
473.2146439
931.2765142
943.0456766
933.4780425
957.2637393
973.9359857
957.447931
993.0649813
1028.285405
983.9795008
1008.973516
1018.817145
999.3633096
1049.361749
1059.679244
1027.736114
1088.408517
1095.685553
1042.036945
1096.533579
1083.957476
993.4531873
942.9795045
836.0714132
726.7254657
939.541145
955.6013857
950.4417244
975.2117865
998.464084
987.8623237
1025.995215
1072.831795
1041.064453
1070.145014
1088.412519
1072.833728
1152.74912
1178.163076
1151.096316
1271.259938
1309.616821
1259.432345
1456.21803
1518.455537
1406.81812
937.7937789
956.6429763
957.5765569
979.6685047
1007.049979
1005.051978
1039.652962
1091.021141
1079.818455
1107.588538
1131.64289
1124.098651
1218.387049
1253.507312
1240.422308
1386.174006
1442.67417
1422.21131
924.2789045
943.9650133
951.9851211
967.9432233
996.2543369
1004.142254
1030.025184
1078.788361
1090.664537
1112.382059
1138.072537
1140.635269
1228.880022
1264.559735
1268.484436
1392.210456
1442.678101
1452.813546
898.5015547
917.212015
932.2528947
939.8247274
966.2449183
983.537017
997.5166173
1038.653088
1071.021193
1084.11519
1107.960669
1118.527689
1189.706375
1220.604318
1235.628508
1324.705996
1362.981173
1387.180141
861.5959632
877.7177124
898.9441309
897.0687258
919.444117
944.7404971
945.6706283
976.2941486
1024.834757
1028.778114
1048.854311
1065.89582
1115.96862
1140.61207
1163.174364
1220.799353
1249.307247
1279.788112
853.9763862
890.8472237
958.0225063
953.3615485
968.7731083
990.3759027
1019.151853
1037.256431
1064.826581
1095.132383
1115.57459
1150.767316
2308.403613
2216.453061
2099.048636
928.9381289
1059.960468
1722.473281
1701.134394
1674.636622
1880.868793
1848.59924
1884.463793
1522.217931
1508.673363
1487.332972
1648.949682
1623.979958
1641.404414
1359.340914
1345.703962
1325.303733
1466.460327
1445.976994
1458.827085
1479.876158
1476.184073
1472.580062
1304.539353
1283.323778
1297.286165
1330.83492
1325.736144
1319.99727
1396.538374
1391.813956
1396.192974
1773.465155
1764.299005
1750.368152
1855.670255
1838.515457
1845.034651
1768.854074
1775.423875
1770.254517
1750.12372
1755.045372
1762.091639
1411.605344
1406.563987
1401.972507
1468.275674
1464.679646
1468.546147
1314.485448
1308.843449
1314.502374
1255.00119
2001.190535
1944.929745
1913.267695
2005.484039
2019.603636
2119.015669
2600.030865
2533.689887
2476.953273
2690.835416
2714.309608
2835.178837
1897.911245
1893.740247
1874.030322
2051.12941
2019.311117
2022.976532
2132.394739
2123.639616
2085.77981
2419.428517
2363.256554
2397.339722
3087.318258
2976.929334
2835.566724
1356.552449
1352.086647
1356.773232
3417.820792
3334.756583
3249.987584
3533.89582
3552.973235
3703.135815
1819.86312
1827.041795
1822.295836
1803.54969
1806.959655
1813.247046
3938.806389
3798.104142
3662.330599
1501.636731
1497.432624
1500.157875
1514.325517
1509.651623
1506.17242
1370.823963
1366.227352
1361.773307
1433.89183
1429.774218
1433.854737
1447.429834
1442.981313
1438.821927
787.9874806
779.1884675
791.6891791
749.1110675
764.7174727
774.2291736
750.8774925
757.1581268
740.7020768
723.3410007
711.9698016
731.1916205
666.6929944
690.0639522
702.0989875
672.8940186
680.6326466
656.3784501
625.4383471
612.2662684
640.2768501
547.7913829
580.8806581
594.2622186
562.2053177
570.5424908
536.7643045
484.3624784
472.4981087
511.03523
386.5510517
430.2085626
441.4346703
414.6831623
421.7082511
377.8177391
298.954914
291.620142
339.5371141
240.7702737
246.5759081
233.0030887
236.6527165
835.5117704
821.7807235
831.2228613
798.4356699
810.8731167
825.7953932
785.1290006
797.3185742
783.8458527
786.4655171
767.964036
784.1654514
728.3095328
749.4096759
768.929757
716.0161469
731.7525747
709.9437704
698.8816144
676.985793
704.1870787
612.3822006
646.3760363
668.8150085
609.5380644
626.7275449
592.6924802
555.1013591
533.1446484
574.6106707
438.6052475
487.718219
508.6455609
454.5937912
469.8566839
422.2481596
343.9905817
329.6133794
385.7241244
270.4333456
281.5353594
253.3333109
261.1569217
901.7611493
883.5195444
887.7456349
871.4283636
878.1935062
897.9819264
842.0393068
859.5357075
851.1737064
877.7114839
852.2758227
862.8863557
823.4965485
839.25458
866.8274575
790.3423061
813.759006
796.1711616
816.1300899
781.9925712
804.558672
723.8043907
755.2511701
791.3834517
694.2629386
722.9764265
690.3686885
683.9754627
644.3709395
687.0256236
539.3582368
595.2641598
634.4860095
533.1287984
561.7620121
507.5778114
436.7082901
406.6650288
476.4226268
330.5889782
354.4486773
294.8863083
311.0166209
979.6167189
959.8040389
956.5382315
964.2020126
962.4973204
984.7114671
918.9307328
940.4668774
939.9137828
995.7382225
964.7720776
965.0267444
957.7877803
962.1632541
997.2038532
896.4436914
928.2017694
920.2429483
989.4044986
940.0244699
950.3857124
905.5253372
925.4089593
979.5706788
831.6407512
876.2433084
852.0942317
913.4437429
843.417887
878.7973257
738.1373331
797.2497755
871.1281314
680.4208433
734.2254957
674.7941336
641.0085825
572.7736347
663.8248227
464.6913842
521.1575231
383.6946076
419.7854535
1055.877637
1037.774437
1025.711087
1063.382502
1050.331585
1070.960827
1006.901289
1028.850048
1039.049902
1121.847146
1091.189631
1077.021898
1120.901255
1105.841665
1141.057021
1033.495175
1069.803637
1079.475475
1206.071592
1151.01249
1136.16456
1176.361317
1164.847977
1229.695753
1038.209381
1099.901269
1102.124296
1293.572892
1185.564543
1182.684359
1143.687969
1173.854387
1303.241898
957.753793
1058.362154
1013.979073
1161.359023
977.5242663
1083.945314
809.3169994
1095.309396
593.0522507
686.4886679
1114.28972
1102.351912
1082.262095
1147.87817
1124.139066
1137.871841
1090.308262
1108.137234
1129.510139
1223.365268
1202.48671
1173.860672
1269.671318
1234.243678
1258.305204
1174.806927
1206.126072
1237.003901
1392.714215
1354.720569
1309.532723
1466.210115
1406.240873
1451.304263
1292.922628
1352.577173
1401.306285
1701.450501
1619.67793
1536.325913
1839.102647
1721.937684
1829.169233
1444.112495
1588.721041
1659.700965
1636.180198
1660.583281
1830.573378
1139.52695
1136.765934
1111.907484
1193.589623
1163.891708
1167.159221
1149.17801
1157.895468
1186.675067
1266.897442
1262.305039
1226.239949
1347.090531
1302.35803
1307.149873
1277.840531
1292.651017
1336.56482
1456.988267
1453.97848
1397.287334
1592.190532
1518.471635
1519.18649
1485.352003
1507.661436
1583.126959
1127.076679
1133.525821
1108.096173
1190.699668
1160.993395
1154.063737
1168.701378
1165.912525
1196.106815
1248.049975
1257.647892
1222.844691
1336.214586
1295.372032
1284.244813
1308.068602
1303.458367
1345.892776
1408.950877
1427.719741
1380.296534
1532.388776
1478.448156
1455.716827
1511.576511
1497.47868
1556.784996
1081.504157
1095.564634
1072.531777
1146.224666
1120.109187
1105.009954
1144.854147
1133.455034
1160.677746
1184.137031
1203.345092
1173.958824
1267.057366
1234.389456
1213.400202
1270.161343
1253.41399
1288.135671
1308.996791
1336.803779
1301.251997
1410.636694
1373.403486
1342.851316
1430.234048
1402.639929
1443.260346
1682.853506
1675.206179
1662.655337
1703.046188
1690.126614
1696.861268
1010.965435
1030.531977
1011.564418
1071.564546
1050.534206
1029.696796
1088.292146
1070.076599
1092.450156
1091.301396
1116.638938
1093.607776
1165.497627
1140.619929
1113.544951
1190.66422
1166.343699
1193.103255
1184.786779
1217.63675
1191.200175
1272.206671
1244.689714
1209.852455
1311.172204
1278.447483
1307.984386
1493.552736
1486.099113
1477.096358
1506.21747
1496.847384
1503.459374
1007.803034
984.8870626
1001.686656
1085.313687
1055.969265
1075.265355
1173.850879
1136.628865
1158.420805
1339.940542
1330.586558
1320.884049
1351.23529
1341.871008
1350.286182
1534.366018
1527.15271
1517.408896
1549.118511
1538.948949
1545.176448
1380.337132
1371.28795
1362.210126
1390.837549
1382.001007
1390.097918
2517.441503
2358.042015
2477.499537
2015.446431
2195.872138
2294.414239
2002.481789
2093.18243
1953.274429
1383.512036
1251.065833
1098.410527
1679.777621
1440.346849
1569.91679
1230.292389
1455.237068
1756.976573
1728.542578
1751.6909
1653.323494
1678.092266
1652.881579
1848.485035
1817.002285
1786.45054
1552.988396
1530.546373
1544.613684
1500.19162
1515.451787
1537.207849
1473.218205
1494.147307
1478.105062
1586.458781
1605.331884
1629.016774
1559.428928
1582.113693
1562.763733
1616.086481
1599.686458
1576.03013
1628.656395
1621.769077
1610.067644
1648.078915
1635.929595
1641.861875
1385.803263
1365.841019
1379.271377
1339.301502
1352.318092
1372.360125
1311.715647
1332.19376
1318.070528
1418.814574
1432.352627
1452.667016
1392.270028
1412.2792
1397.69259
1438.629694
1425.763791
1405.741592
1455.543809
1447.626827
1439.048037
1466.638852
1457.908226
1464.883458
1484.264934
1480.517531
1483.721602
1257.161076
1269.78699
1291.031304
1225.519385
1248.128689
1235.165112
1275.441491
1261.519979
1238.94748
1296.930528
1287.816689
1275.831893
1309.260143
1299.366124
1308.082741
1336.292605
1331.327755
1336.139405
1314.994013
1321.523566
1313.840696
1390.942063
1386.306919
1381.541336
2469.85287
2463.866244
2425.893174
2544.090565
2507.971184
2514.463263
2097.995343
2100.706778
2081.263661
2144.463377
2122.030142
2118.875433
1792.498231
1778.311559
1787.043494
1761.951284
1769.746053
1784.406256
1741.12905
1755.328297
1747.205662
1827.365921
1832.319875
1849.967646
1799.4913
1815.45212
1809.132705
1829.454268
1822.363307
1807.073218
1860.02226
1858.17488
1851.090116
1874.052787
1866.664205
1867.754299
1786.061707
1780.590282
1774.210353
1792.793426
1786.758926
1791.895858
1777.285531
1781.819194
1788.134151
2027.476139
2028.905698
2013.565564
2062.672159
2045.275077
2043.295576
1891.888293
1890.850903
1882.809112
1909.006031
1900.133661
1900.572782
1578.985916
1572.083248
1561.534577
1596.321929
1585.177361
1590.936466
1740.226066
1747.75918
1742.483432
1758.534405
1753.010203
1745.276495
1767.525344
1760.462249
1766.250969
1415.994278
1411.791396
1416.50035
1464.645314
1460.265915
1456.51203
1418.567324
1409.979325
1401.326284
1428.817842
1420.279329
1427.882221
1298.52651
1303.337175
1309.011677
1264.175497
1999.551675
1974.501015
2039.762164
2117.788973
2022.904588
2016.584648
2630.941283
2585.861895
2666.834699
2442.019232
2508.682236
2541.375724
2421.859125
2467.817061
2404.22172
2574.011976
2600.357666
2483.020853
2819.099589
2701.914912
2670.305161
1938.115305
1915.045761
1918.553782
1905.161747
1910.414073
1933.192612
1868.932741
1888.975278
1882.367563
2003.34852
2012.06953
2042.58693
1957.626929
1983.834899
1974.566448
1992.958178
1990.052635
1963.05929
2209.579039
2164.814635
2176.567358
2130.578598
2148.919946
2189.859658
2075.370256
2110.938987
2094.048462
2287.953849
2325.773405
2373.601307
2233.167938
2278.530521
2243.988018
2335.930154
2309.199415
2257.774849
1964.563015
2179.797724
2274.902221
2314.374735
2516.094335
3316.801147
3137.614521
3285.11845
2737.204559
2949.492002
3059.790939
2720.833815
2829.53585
2663.363417
1351.932544
1346.701287
1341.968134
2314.368089
2313.089217
2281.361643
2383.692693
2348.827201
2349.586143
2191.884321
2194.036757
2168.573739
2250.082496
2221.154033
2219.2863
3472.052662
3413.721308
3509.415151
3179.516885
3252.315244
3150.328754
3682.779891
3542.072669
3525.391249
1831.65399
1829.269327
1822.705542
1843.032142
1836.482635
1838.182224
1794.390195
1800.686063
1796.455866
1808.960078
1804.827934
1798.796965
1816.73764
1810.843963
1814.731351
1972.437619
1973.21053
1960.847666
1999.387251
1985.720551