/*--------------------------------*- C++ -*----------------------------------*\
| =========                 |                                                 |
| \\      /  F ield         | OpenFOAM: The Open Source CFD Toolbox           |
|  \\    /   O peration     | Version:  v2012                                 |
|   \\  /    A nd           | Website:  www.openfoam.com                      |
|    \\/     M anipulation  |                                                 |
\*---------------------------------------------------------------------------*/
FoamFile
{
    version     2.0;
    format      ascii;
    class       surfaceScalarField;
    location    "2.32";
    object      phi;
}
// * * * * * * * * * * * * * * * * * * * * * * * * * * * * * * * * * * * * * //

dimensions      [0 3 -1 0 0 0 0];
oriented        oriented;


internalField   nonuniform List<scalar> 
5999
(
0.0004615516622
0.9161884483
0.0005965920479
0.9165649596
0.0007347243704
0.9165118677
0.0003609265873
0.9165181229
0.0005056749126
0.4583370831
0.0003738434772
0.4582923588
0.0004726798889
-0.0004650387002
-0.0005945513623
0.4582617057
0.0006828456836
-0.000769353735
0.4582059421
0.0008984116298
-0.001038520234
0.4581795347
0.001188985503
-0.001356727307
0.4581593144
0.001532412932
-0.001704417531
0.4581712163
0.00186820121
-0.002019524043
0.4582186241
0.00213239991
0.001270767098
0.9149176812
0.002059888517
0.9157758382
0.002446104587
0.9161256516
0.0008311867067
0.9168366889
0.00129635189
0.4579824935
0.0009996214508
-0.4581509283
-0.4581168518
-0.001230074901
0.4578300582
0.001516868454
-0.4579443038
-0.001868574763
0.4575247845
0.001072955106
0.00121513891
-0.2289001059
-0.001292901221
0.2287914846
0.001401522586
-0.001854458593
-0.228831047
0.2286892556
0.001996249983
-0.002548027354
-0.228785477
0.2286093391
0.002724165264
-0.00331819874
-0.2288043568
0.2286195831
0.003502972365
-0.004006503388
-0.2289086257
0.2287679617
0.004147243984
0.00162285005
0.9132948312
0.004299275064
0.9130994132
0.007290993417
0.9131339332
0.00314438175
0.9143498578
0.006633442755
-0.4578687073
0.4576040773
0.0034090117
-0.4575406256
-0.003503115282
0.4580563119
0.00298742905
-0.4569514357
-0.003228472143
0.4565333707
0.001762596716
0.001883940412
-0.2282631295
-0.002169710095
0.2280325959
0.002400243754
-0.2279896286
-0.003217225872
0.2276771439
0.003529710547
-0.2277946384
-0.004402044618
0.2283577944
0.0038472072
-0.2295499244
-0.001999212291
0.229991677
0.00159485311
-0.2295199139
-0.0009920857151
0.2295857564
0.0009534410524
0.0006316761289
0.9126631551
0.001392676552
0.9123384127
0.002824664998
0.9117019448
0.003554546014
0.9110856378
0.002534338976
-0.4567375086
0.456188522
0.004103532604
-0.4594472172
-0.005453186189
0.4562316482
0.00866875519
-0.457781237
-0.01012645742
0.459096787
0.002721458636
0.006089448689
-0.2271827448
-0.002845914392
0.2268986811
0.003129978081
-0.2269516065
-0.004011510213
0.2274784592
0.003505350873
-0.2298708937
-0.002691773104
0.2299565215
0.002698103335
-0.2301749494
-0.003522160758
0.2297675514
0.004025913938
-0.2289066223
-0.005889712634
0.2283297384
0.00651811271
0.0002232028346
0.9124399522
0.0005361367856
0.9120254788
0.001086117317
0.9111519643
0.001682202702
0.9096779762
0.000811576133
-0.455795077
0.4548945544
0.002582725225
-0.4546222243
-0.003154777117
0.4538056429
0.003971358551
-0.4527371661
-0.005068098604
0.4516770838
0.003203900015
0.002924280906
-0.2272609494
-0.005227612069
0.2253688665
0.007121081717
-0.2287603472
-0.009443154655
0.2307370019
0.007578292106
-0.2287536459
-0.005963044634
0.227942297
0.006936552209
-0.2269648971
-0.0109864642
0.225496742
0.01258268558
-0.2252929596
-0.01759483364
0.2237830236
0.01916044477
-0.0001122150173
0.9125521672
-9.059117365e-05
0.912003855
0.0002421274909
0.9108192456
0.0004990450681
0.908985954
0.0004351046708
-0.45390483
0.4534693652
0.0009345099569
-0.4531096982
-0.002039795997
0.45216613
0.002983364143
-0.4505596461
-0.003762295689
0.4492447691
0.002530469502
0.002546703165
-0.2247962839
-0.003030170087
0.2245590429
0.003326032838
-0.2254539119
-0.005489103526
0.2245087263
0.006616040409
-0.2256156361
-0.01315530648
0.2223836146
0.01658595016
-0.2210600746
-0.02420361304
0.2208526038
0.02452579036
-0.2178432824
-0.03161064138
0.2165439022
0.03293680487
-0.0006130039441
0.9131651712
-0.001067177357
0.9124580284
-0.001313304912
0.9110653732
-2.963943993e-05
0.9085650734
-0.0008627848396
-0.4532610399
0.4528695258
0.0003618747665
-0.4509608482
-0.0006970769242
0.4504609903
0.001196934815
-0.4486045316
-0.002337068407
0.447981287
0.001458370857
0.001502683233
-0.2231061589
-0.002242583003
0.2225236948
0.002934957482
-0.2214524761
-0.006228289278
0.2200378855
0.00787084537
-0.2166554804
-0.01264290981
0.2151132231
0.0143827262
-0.2105052251
-0.02117507455
0.2071165
0.0246308256
-0.2074703451
-0.04164061796
0.1052276044
0.09943463193
0.02004640396
0.02440232277
-0.001156308695
0.9143214799
-0.002241042219
0.9135427619
-0.003098381674
0.9119227126
-0.001574908425
0.9092957638
-0.002254163651
-0.4528185481
0.4527930116
-0.001549371891
-0.4502051255
0.001573704983
0.4500631116
-0.001431691035
-0.4465164932
0.00120378914
0.4460817653
-0.0003071707144
-0.0004496532617
-0.2206208795
-0.0009594996609
0.220022697
0.001694368358
-0.216588902
-0.004690827902
0.2157852876
0.005734066156
-0.2111763161
-0.009386004738
0.2101267215
0.01062594273
-0.201798683
-0.01381324318
0.2010528794
0.01458160761
-0.09137479156
-0.009432060284
0.0912090934
0.009597758441
-0.001705797685
0.9160272776
-0.003335177253
0.9151721415
-0.005030721668
0.9136182571
-0.00294182758
0.9108324461
-0.003625576412
-0.4530423023
0.4532822789
-0.003181804181
-0.450150136
0.003468306416
0.4504233141
-0.003741484533
-0.4458945682
0.004006982921
0.4460344353
-0.001908184883
-0.00221197912
-0.2186760216
0.001419977007
0.2182232042
-0.0008127638347
-0.2132268954
-0.001722219814
0.2125292174
0.002671818578
-0.2081892339
-0.005141265809
0.2078519043
0.005667225821
-0.2015593434
-0.005675703963
0.2022524447
0.004992738896
-0.09492559141
-0.0005648325137
0.09555856829
-6.814437614e-05
-0.002218378241
0.9182456558
-0.004556082624
0.9175098459
-0.006852778609
0.9159149531
-0.004309150473
0.9132883844
-0.004999566387
-0.4538016104
0.454318499
-0.004826039085
-0.4508339692
0.00542986148
0.4515246508
-0.006120543062
-0.4463979152
0.006821473642
0.4470295987
-0.003490528892
-0.003921606706
-0.2171151329
0.003207507963
0.2167967683
-0.0027219171
-0.2108487276
0.0007159752552
0.2104064778
-1.103326572e-05
-0.2074528172
-0.0015320339
0.2074876327
0.001687642194
-0.204860768
-0.0005463428718
0.2058025397
-0.0003895560617
-0.09877736476
0.001859393042
0.09912397974
-0.001084830483
-0.001121177538
-0.002803262219
0.9210489181
-0.00561539321
0.9203219769
-0.008610563549
0.9189101234
-0.005612287465
0.9165641585
-0.006274050142
-0.4550921288
0.4558645567
-0.006384715402
-0.4523359593
0.007324118729
0.4532539285
-0.008242087978
-0.4480186418
0.009317426107
0.4492220433
-0.00510401775
-0.005354969831
-0.2160028414
0.004703860379
0.2157766522
-0.004295752101
-0.2093390713
0.002623491071
0.2090547645
-0.002065065382
-0.2079162187
0.00107982386
0.2081503318
-0.001122689115
-0.2086637684
0.002772617241
0.2096228351
-0.003729414007
-0.1011759296
0.003256608505
0.1014170184
-0.001733298561
-0.001764398766
-0.003323962632
-0.006693249282
-0.01024236736
-0.006764564307
-0.4568392324
-0.007727611206
-0.4544088453
0.008853030952
-0.01008003621
-0.4503304421
0.01144115196
-0.006158754578
-0.006653833205
-0.2151632428
0.005745979757
0.2149656769
-0.00535047348
-0.2083727099
0.003814747023
0.208195665
-0.003352337031
-0.2090945381
0.002753537433
0.2094937338
-0.002962243435
-0.2125828435
0.005164445838
0.2136185046
-0.006199891602
-0.1030069149
0.004570719268
0.1032441149
-0.00238431365
-0.002423605623
-0.001103400865
0.0004240058066
-0.09424619634
0.001646918243
-0.0984133342
-0.0009875007129
-0.00102344809
0.003101602897
-0.100921075
-0.001665728196
-0.001690729356
0.004397452063
-0.1027755415
-0.002296143727
-0.002332681764
-0.01122639575
0.0118064732
-0.09195486901
-0.001594737896
0.0006810351325
-0.2039402014
0.09922200827
-0.09886631466
0.001291224645
-0.09571099705
-0.001103985281
0.09625014982
0.002051093356
-0.0030002991
-0.2077115318
0.1015821176
-0.1013233014
0.002842786707
0.001523692674
0.09955770864
0.100079279
0.002440065944
-0.09977897845
-0.001358059332
-0.001382307154
0.04965542166
-0.001019488332
-0.0494009008
0.001857634146
-0.001092666677
-0.04876070585
-0.000792477077
0.001512749929
0.04882209267
-0.0007816596747
0.004607975625
-0.005644162884
-0.211546018
0.1034759297
-0.1032363791
0.004157901514
0.003010830949
0.1018278952
0.1021072499
0.003728126735
-0.1018804248
-0.001961314311
-0.001993637527
0.02532971429
-0.001008021491
-0.02539287688
0.001071184081
-0.04977451845
-0.0009789436833
0.00201433758
0.04979834194
-0.001059217383
0.004321832801
0.1037248161
0.05207217736
0.002570527271
-0.002644640184
-0.05199806445
0.02715882848
-0.002029377015
-0.02690855921
0.001779107741
-0.02631351146
-0.001013894246
0.001171772988
0.02615563271
-0.0430822589
0.0005170123834
0.0437069927
-0.0005692168448
-0.000572529343
0.04679532645
0.001315077531
-0.04638697449
-0.0009264186509
-0.0007970108367
-0.005744909755
-0.0397149971
0.03966902576
0.005790881091
0.0001827513047
-0.0008118580032
-0.0424531522
-0.0007567779384
-0.04869257578
0.001467844646
-0.0007791967727
-0.001329990084
-0.0478836349
0.001226444902
0.04798718008
-0.09715433898
0.0008888564055
0.09760548502
-0.001340002453
-0.04770133849
0.04775990363
-0.0006619083433
-0.000726646873
0.02445844799
-0.0007681724585
-0.02444705347
0.001287073949
0.04704181171
-0.0008425527167
-0.0006910064891
0.001294966366
-0.04764197858
-0.0006604913019
-0.0006938349807
-0.0009839026243
-0.04979423084
0.001960543264
-0.0009569282563
-0.001079604376
0.00184662085
0.04980442095
-0.0009160157554
0.002612828872
0.1003762833
-0.001442277717
-0.001467555438
-0.02516752517
0.02523239266
-0.00114447187
0.02469855026
-0.0009276441197
-0.02475480876
0.02444593214
-0.0007799612237
-0.001231480455
-0.02495553305
-0.001054263488
-0.02644200239
0.001182754422
-0.001017418296
0.00108895945
0.02525817314
0.00389042601
0.1023305743
-0.002038512509
-0.002075237887
-0.02552213844
0.02538047275
-0.0008757526082
0.02692174974
-0.0008202997973
-0.02715571343
0.02467603401
-0.0009564274319
-0.0008678218115
-0.02566233812
-0.001466260402
0.001516347336
0.02710874155
-0.002689215255
-0.02767973739
0.02748962356
-0.001276146574
0.02665675163
-0.0007488961343
-0.002275909369
-0.02743320503
-0.007417256179
0.006934424826
-0.2010646394
-0.09515618621
-0.001658211701
-0.09325340178
-0.009173130794
0.09299447229
0.09217859081
-0.004642859344
0.004065625399
-0.09160135686
0.04346115263
-0.04293516097
-0.0003432403506
-0.04070412549
-0.005713925196
0.04067314094
0.0005949409322
-0.001081001643
-0.09666827827
-0.04778871969
0.001200051156
-0.04664815737
0.001032461097
0.04690277022
-0.04633387414
0.001000794301
1.725745019e-05
0.04396090756
-0.00342557979
0.0928334344
0.0027707362
-0.02013845527
-6.574671804e-05
0.02004641972
0.0001577822704
-0.003775807505
-0.01595950599
0.01576025661
0.003975056881
0.001116472701
0.01829395178
-0.001359409151
-0.01805101533
-0.03050940649
-0.09457100898
0.04617796643
0.04471252908
0.0170243466
0.01716557336
-0.006788586556
0.007653953151
-0.04058036369
-0.001136604133
-0.02497215203
0.001283244933
0.02482551123
-0.05120337435
0.002685021273
0.05125015876
-0.002731805682
0.05143702743
0.002835545051
-0.002896745225
-0.05137582725
0.004877527124
-0.01930124681
0.02727869228
-0.01285497259
-0.0001362127278
-0.02020746827
0.0002052257287
0.04512475629
0.001025082746
-0.0447140083
-0.0007174535628
-0.0007183771723
0.02226331124
-0.02255926664
0.0001597426694
-0.02116630983
0.003229562757
0.0228142742
0.02264284032
-0.02468169913
0.002031518118
7.340692315e-06
0.0002372555127
0.02196030901
0.001125097841
0.04550383194
-0.0007363389518
-0.0007678345327
0.04053250566
-0.002445029202
0.001882434501
-0.03996991096
0.01881260459
-0.01836629534
0.0006701634441
-0.0171410966
-0.003292650173
0.01665793926
-0.00333274635
-0.02040897942
0.002575415935
-0.001806868442
0.001150725091
0.01946874794
-0.001504347925
0.04116639443
0.0008704591554
0.01889549064
-0.002408407303
-0.003303819694
-0.01933017347
0.02433664442
0.0007316761191
-0.0008328655791
-0.02423545496
-0.02091687834
6.82746559e-05
0.02085376141
-5.157728347e-06
0.000768045437
0.02438224909
-0.0008136501105
0.0474153681
0.001260839149
-0.04731458715
-0.0007054189498
-0.0006562011427
0.02134227143
-0.02137258503
5.847958117e-05
-2.816598728e-05
0.0006401893138
0.02194555249
5.709852025e-05
-0.02097204527
6.895086931e-05
-1.378393725e-05
6.422326206e-05
0.02128899356
-1.094538953e-05
0.001263823539
0.04750522364
-0.0006919073997
-0.0006617716797
0.02511396088
0.000885410732
-0.0008686540173
-0.0251307176
0.0009554682653
0.02503843255
-0.0008799399336
0.02442290059
0.0008560243233
-0.0008526721098
-0.0244262528
0.00086344103
0.02442452572
-0.0008650661561
0.02466905586
0.001328360996
-0.001391460888
-0.02460595597
0.001579694256
0.02498457883
-0.001895217224
0.02630024862
0.001238955826
-0.001455943018
-0.02608326143
0.001131889192
0.02635529004
-0.001186930613
0.002878367492
-0.002931662616
0.02470322495
0.001082469272
-0.0008053297407
-0.02498036448
0.02444568637
-0.000879065555
-0.04274795441
-0.01882678428
0.03875207252
-0.004987161815
0.00517832499
-0.01615066916
-0.02566911741
0.001094710637
0.02570629597
-0.05045863537
0.001984764032
0.05051075745
-0.002036886106
0.05064882161
0.002097270272
-0.002142650771
-0.05060344111
-0.05023517259
0.00185133675
0.05029330683
-0.001909470991
0.001956139088
-0.002009806301
-0.05040496816
-0.02555012863
0.001119967045
-0.05104865957
0.002485113044
0.05108874339
-0.002525196859
0.002628554447
-0.002665805352
-0.05116612345
-0.02513467451
0.001244991753
-0.04983702375
-0.000907664599
0.0018761561
0.04982400051
-0.04998872237
0.001715255622
0.05005451613
-0.001781049378
0.001814875665
-0.001874564395
-0.05017548386
0.02385630951
-0.0003273913634
-0.0241277961
0.000598877957
-0.0003152505743
-0.02490308403
0.0005707335916
0.02464760101
-0.02490483798
0.0009554955294
0.02484929949
-0.0008999570466
-0.0249773122
0.001379983121
0.02517702334
-0.0508312912
0.002329416083
0.05087368118
-0.002371806061
0.002440833028
-0.002485077897
-0.0510044147
0.002137516492
0.05069391918
-0.002182614062
0.002265824079
-0.002312362498
-0.05078475279
-0.02491489358
0.001265942376
0.02494531661
0.001042314934
-0.0008950281249
-0.02509260342
0.02440078507
-7.92574689e-05
-0.02467050485
0.0003489772508
-0.02538158759
-0.0001285524729
0.0003672306121
0.02514290946
0.02281186374
-0.02295948528
0.0001568847232
-9.263186256e-06
-0.02631170733
0.002243459877
0.02404369551
2.455194455e-05
-0.02703036041
0.001621012726
0.0273224296
-0.00191308192
0.02492276198
0.001241453971
-0.001430694397
-0.02473352155
0.0231044257
-0.002154862611
-0.02305543705
0.002105873953
-0.0003853539542
0.000665454436
0.02357620903
-0.0001208125407
-0.02562173923
0.0003609641772
-0.0001051695941
-0.02634656596
0.0003499106994
0.02610182485
-0.02607569589
0.0009887002829
0.02593991351
-0.0008529179057
0.0258229015
0.00101417379
-0.0007344225322
-0.02610265276
0.02233287572
-0.02244688891
9.310421471e-05
2.090897687e-05
9.07072185e-05
0.02267363424
4.752228661e-05
-0.01947241594
0.004426281375
0.014993068
5.306656741e-05
-0.02442113208
0.002565881239
0.02531014665
-0.003454895816
0.01820423028
0.001214634713
-0.01954549512
0.0001266301309
0.004025639664
0.01406197032
0.0001166202934
0.01633880669
-0.001164743995
0.0008435575959
-0.01601762028
-0.0004504021621
0.01685629766
-6.708880973e-05
0.02053010419
0.0004477818031
-0.02118176811
0.000203882117
3.312561577e-05
0.02033754847
0.0001594301149
-0.02352993791
0.0004041406
0.02315892293
-0.02278753868
0.0008506337695
0.02277392053
-0.0008370156205
0.02253505295
0.0008144377017
-0.0007257359272
-0.02262375472
-0.02165476952
0.00104030216
0.02209298742
-0.001478520067
0.0009106052698
-0.0009948359982
-0.02270330795
-0.02392303911
0.0008408829979
-0.02043665329
0.004003506295
0.02045878666
-0.02285999624
0.001458162009
0.02346903051
-0.002067196279
0.02520983949
0.001225698692
-0.001559901054
-0.02487563712
0.0008391826188
0.02246438612
-0.0007685157934
0.00124083564
-0.001561916766
-0.02253891511
-0.02110097674
0.001878958166
-0.0005530790304
-0.02112341694
0.0008134856737
0.0208630103
-0.02058798051
0.0005484532743
0.02074657491
-0.000707047673
0.0009048890845
-0.00134224328
-0.02121741532
0.02116177519
0.00116371137
-0.001090372929
-0.02123511363
0.02065746869
-4.877252911e-05
-0.02014326785
0.001396606444
0.01873657839
1.008301302e-05
-0.02270016754
0.00149738862
0.02309674259
-0.001893963669
0.02646358943
0.002096348687
-0.003112646996
-0.02544729112
-0.02301482608
0.0005870189794
0.02286819145
-0.0004403843454
0.001016592436
-0.001069032695
-0.02264772729
-0.02059660438
0.0004024684449
5.08680904e-05
-0.02648171048
0.0004840251074
0.0262799904
-0.0002823050261
0.02566597518
0.0004617126973
-0.0002528532894
-0.02587483458
0.001547633911
0.02685974718
-0.001943791657
0.0005422992413
-0.000344936691
-0.02667907303
-0.0215517741
4.177798642e-05
0.0215134753
-3.479183201e-06
-0.02489189834
0.0005951709482
0.02472867216
-0.0004319447733
0.02424333969
0.000576572074
-0.0004199249906
-0.02439998677
0.0009576466122
0.02527301829
-0.001020825412
0.0006155041381
-0.0004574779827
-0.02504992449
-0.02160875459
4.336930843e-05
1.361118179e-05
-0.021134382
1.819873276e-05
0.02106099644
5.518682783e-05
-0.02362580146
0.0005613135921
0.02346835018
-0.0004038623041
0.0005724450277
-0.0004232411245
-0.02316402999
0.0005757839499
0.02408956486
-0.0004220091193
0.000563297293
-0.0004062897968
-0.02378280896
-0.02120133557
2.470912194e-05
4.224444671e-05
-0.02641190247
0.0003305196328
0.02618537837
-0.0001039955371
0.02552247593
0.000281111376
-5.866265486e-05
-0.02574492465
-0.02725527298
0.002045950456
0.02735242316
-0.002143100638
0.0004022103792
-0.0001407126523
-0.0266734002
-0.02464649576
0.02443113748
-9.989228841e-05
0.02374482277
-8.216444292e-05
-0.02399004969
0.0002821317526
0.02529932285
-5.897867514e-05
0.0003110415204
-9.679088005e-05
-0.0248607464
-0.02473271497
0.0004717474308
0.02449219402
-0.0002312264829
0.02375789613
0.0004996525204
-0.0002515887915
-0.02400595986
0.0004540209171
0.0254381924
-0.0002262381433
0.0004644714005
-0.0002267598522
-0.02497042652
-0.02275843298
0.002021358111
0.02282058552
-0.002083510645
0.003262511491
-0.004530153369
-0.0259876311
0.0005257283802
0.02350596186
-0.0002737941108
0.001188580852
-0.0009676535784
-0.02297936026
-0.0004853440241
0.02280084716
-0.02339677828
0.001081275139
-7.670898279e-05
0.0003592216344
0.02411827242
0.00105831027
0.024802647
-0.000915640659
-0.02193541304
0.02182092578
3.777828473e-05
0.0209731987
-0.02147115901
1.261628783e-05
-0.02232331414
0.02222518232
-3.042065946e-05
-0.02205701595
4.234543333e-05
0.001490462742
0.01948397596
-1.240000857e-06
0.001880524684
-0.002514330864
-0.02639655423
-0.03100027509
0.00470150567
-1.293791032e-05
0.002225477158
0.02206583275
-0.002208124469
0.0276266498
-0.02754164965
0.002123124323
-0.004452788421
0.003301062708
0.02425615142
0.001376575488
0.02522635575
-0.001680169258
-0.02184757196
0.02185661779
-0.004461834245
0.02400059702
-0.02621558292
6.861429173e-06
0.02346608931
-0.0001066205002
-0.00146026824
-0.02254216633
-0.02271100133
0.0226123472
-6.515462671e-06
-0.02242051605
-2.361062759e-05
0.0007638043334
0.02323418221
2.610474503e-06
0.0001115824916
-0.0228176905
-4.893320609e-06
0.0009896191954
-0.0008633768199
-0.02620193826
-0.02660381721
0.0003688337417
0.001134975095
0.02725547904
0.02185036867
-0.02197952022
0.0001431025872
-1.395103786e-05
0.000104114193
0.02222062353
8.137990575e-06
0.00102557711
0.02554170069
-0.0007443763006
0.002018377932
-0.00227701757
-0.02416249244
-0.02099206224
0.001441456703
7.818959944e-05
0.000181354048
0.02169991419
-3.089956056e-05
-0.04901549604
-0.0008912689422
0.00168236844
0.04908783758
-0.04937379977
0.001433287589
0.04945626723
-0.00151575505
0.04970746336
0.001547212983
-0.001629057114
-0.04962561923
0.001253131681
-0.04902475807
0.04911520946
-0.001343583069
0.001387416893
-0.001475426767
-0.0492857899
-0.0008485700365
-0.04895086945
0.001639967766
0.001583268425
0.04978684708
-0.001662652141
0.001687050574
-0.00175061685
-0.0499251561
-0.0009586328135
-0.04984379702
0.001850816815
0.02530320629
0.000863174983
-0.0008883107397
-0.02527807054
0.02695964716
-0.02720454723
0.0006471104464
-0.02713105783
0.001692856385
0.0274841519
-0.02613779655
0.002269250217
-0.02347308344
0.001661039863
0.02383340169
-0.0244961489
0.0009871275649
0.02460863944
-0.001099618103
0.0001026924991
0.01995823955
-1.451232999e-05
0.02315662117
0.003908616159
0.0002134549555
-0.01330224682
0.0004472742237
-0.0001456960001
-0.02028806697
0.0002262947022
0.0001562070917
-0.02286116973
0.0227515335
-0.0230914947
0.0004961682928
0.02241596343
0.0004953127396
0.004300042113
-0.02899236904
1.062779905e-05
0.02570857253
-0.02447734189
0.003068811475
0.02583046832
0.001909622319
0.02209413095
0.0005590879918
-0.0004337906676
0.02179566304
0.000732258574
0.02162921084
-0.01946815759
-7.232494318e-05
0.01973222685
-0.0001917443159
0.0003669315362
-0.000628946277
-0.02032596576
-0.0210147994
0.001055093836
-0.003716805257
0.02025808314
0.002354212758
-0.01735591761
0.02445836332
-0.01081925096
-0.002337990138
-0.01742633477
-0.01693825518
0.0003321886688
0.0007485572634
-0.01805865321
0.0003718407652
-0.020027355
0.001445738798
0.01446957692
-0.01442142901
-4.814791384e-05
0.02981486328
-0.02101461993
0.005669333569
0.0254097624
0.004404607121
4.937591256e-07
0.02255442477
-0.02272994328
0.0002437931574
-8.387394126e-05
0.02234629557
0.0002920031466
0.02077847597
-8.588500035e-06
0.02206090897
-0.02211814509
9.490750066e-05
-3.767138797e-05
0.02202230873
8.573017472e-05
-4.712993226e-05
0.02331927631
0.002094574802
-4.088711385e-06
0.02261446386
0.0007137213328
-8.908880645e-06
8.617764141e-06
-0.02145210399
7.090119659e-05
0.02420537992
-0.02439585345
0.0001990912888
0.02404460686
0.0002192526476
0.02550729169
0.0009633659491
-0.0001707452737
0.02519319237
0.0004848445951
0.0217123596
6.244761568e-05
7.170412909e-05
-0.02101566373
-2.808567344e-05
0.0228917001
-0.02304644762
0.0002264516499
0.0002307076929
0.02388320192
0.0002256281984
-6.797886363e-05
0.02372497386
0.0002262069205
0.02124298499
-2.197029401e-05
0.02593645042
-0.02619732806
0.000541989018
0.0005808550478
0.02670931175
0.000969018176
0.02521665034
-0.0008824622194
0.0009328741652
-0.0008925714813
-0.02494514066
-0.02515774415
0.0005657016438
0.0005437326596
0.02567484951
0.02395423552
-0.02414919155
0.000694608547
-0.02472882459
0.0006633404395
0.02453723158
-0.02444327964
0.0008320171095
0.02443311724
-0.0008218547106
0.02153756394
-0.02160497307
3.868498555e-05
2.872415272e-05
0.02146443335
4.143024141e-05
3.170034325e-05
0.02192785931
2.307993779e-05
7.136947964e-05
0.02186174105
2.376349042e-05
4.23547706e-05
-0.01478507454
0.01474239718
4.267735789e-05
0.02138630933
5.166070106e-05
2.646332057e-05
7.854967175e-05
0.02128615603
2.160363243e-05
0.0009464963326
-0.0009960021656
-0.02444664307
-0.02345832053
0.001173817935
0.0007172968118
0.02376266709
0.0003671942235
-0.0001315232182
-0.02490617586
0.02493013955
0.0006546140194
-0.02521755934
0.02462647379
0.000652643006
0.0002923470158
-0.02325019139
-1.640897897e-06
0.02693481509
-0.0273394114
0.0006969433274
0.02660197494
0.0004897248687
0.02776013751
-0.02772796391
0.002211286281
-0.0007827770441
0.001203503155
1.072707439e-05
0.02309526852
-0.0239171737
0.0008099118856
1.199330472e-05
0.0003276004188
-1.045893968e-05
8.5820123e-05
-0.02255867382
2.596479058e-05
0.02569251644
-0.02598778099
0.0003810846796
0.02539803367
0.000387586982
0.02628764887
0.0004050332941
-8.264293382e-05
0.0003825108077
3.231748424e-05
0.02620856763
-0.03093523453
0.004711019157
1.564774396e-05
0.002273434767
1.795915829e-05
0.02196651404
-0.02203030917
0.004490076512
-0.01494918882
0.005980468333
4.387917975e-05
0.0003256476968
8.709672962e-05
0.01399302544
6.894488359e-05
0.01425915269
-0.001350048086
-0.01369598858
0.01460489053
-0.0004662416789
0.01747036321
-0.02058502982
0.001837649269
0.01534431083
0.001121143973
0.00100490841
0.01474825418
0.0005867472989
-0.007697070928
0.001860295287
0.001751415728
0.0002234373278
-6.763803726e-05
0.0001171195342
0.02258584314
-0.02155098418
0.002968647328
-0.005459443059
0.003567944318
0.0008538817964
0.02154017368
0.00110937116
0.001868147667
-0.02086005523
0.01904662036
0.0007230619407
0.003060370381
0.0005379377056
0.002083339893
0.01206331086
0.0009430098329
0.001244059895
8.650903175e-06
0.0006214627941
-0.01843698478
0.0003869824735
0.0005608630614
0.0209254137
-0.02153718375
0.002008376495
-0.004349388695
0.004260182463
-3.423931237e-05
0.000132022519
4.984907381e-05
0.02203252639
0.0004457916955
0.0008978110889
0.02218583038
-0.02226252652
9.396382254e-05
-1.726768085e-05
9.115495086e-05
-2.346965466e-05
0.02237473239
0.0002432434535
-3.511978317e-06
0.0001221123011
-9.906434698e-06
0.02458175097
-0.02475779877
0.0002178257865
-1.563887236e-05
0.0002015363909
4.573244e-05
5.743134653e-05
4.617366057e-05
0.0249525883
0.0002980354125
0.0002381588445
0.02320763562
-0.02338840325
0.0001989663633
-5.298678176e-05
0.0002141747794
-7.65406411e-06
5.931775435e-05
-1.766833513e-05
0.02356574425
0.00021854737
0.0002020501246
-8.554393074e-05
0.02596891007
0.0003020122344
-0.02258453933
0.02250806306
-9.067655378e-06
-0.02267387127
-1.466360243e-05
-0.02241911121
0.02233769122
2.27573374e-05
6.122457842e-05
2.772726619e-05
0.0002852099986
-0.0007266451209
0.02700161322
0.001077455066
-0.02379872559
0.02304783315
2.424730816e-05
-0.02598112511
3.929888936e-05
-0.02280075058
-1.383334467e-05
0.0002680039068
-2.092132761e-05
0.0005962169292
-0.000100773715
0.02421435984
0.0003175513554
-0.02193026485
0.02185114487
-2.165373588e-05
-0.02201322334
-1.693379576e-05
-0.02176702195
0.02166406584
2.07916693e-05
9.277628852e-05
-8.65336736e-06
0.0003170864396
-6.425346628e-05
0.02507475658
0.0002888197306
-0.02225692207
0.02216746215
2.520645747e-05
2.179047707e-05
-0.02209371159
-1.630263142e-05
8.869082046e-05
-1.494026696e-05
0.0003027010016
0.02166902113
3.092437855e-05
-0.02173539055
3.544504202e-05
3.708918187e-05
2.69588714e-05
-0.0002375372724
0.02425043904
0.0004792922529
-0.02424816101
0.02404771292
-0.02444846311
-0.02384333128
0.02363317273
0.0002430666246
0.0004875458068
0.0218029685
2.989092809e-05
2.888162051e-05
2.654178833e-05
4.103617066e-05
0.01919677088
0.001412890497
-0.02063675365
2.709227789e-05
0.004383693485
2.800285325e-05
-0.004355437657
0.02397283803
0.00320318514
-0.0215984353
0.02162669113
-0.02226905545
-0.03054065337
2.937488613e-05
0.00582843495
0.003813641884
-0.0003345114026
0.02324570605
0.0005947672163
-0.02341103932
0.02315507759
-0.02280452629
-0.0004321827343
0.0005060330997
-0.0001554818047
0.0007723788932
0.02109848318
3.219104198e-05
2.954679814e-05
0.0006026770738
-0.0238036644
-0.0001957909503
0.02366337071
-0.02398965726
0.0009289636308
0.02338419382
0.001360452021
0.02431232619
0.0006733692345
-0.0004211686931
0.0007438376226
-0.0001065606725
0.02168867289
2.569221486e-05
2.172292896e-05
0.02213231235
0.0001341219419
-4.125197066e-05
-5.622681212e-05
0.01497572029
0.004508915784
-6.601146981e-07
0.01501147034
-3.575004493e-05
0.006045755913
-0.02203456067
0.02650065787
-0.02450503081
0.004050128858
0.003474199624
0.02339248667
0.002217184313
-0.004540187862
0.003427643722
-0.0149159358
0.03084105107
0.005931502516
-0.01491832501
2.389219303e-06
-0.01939617871
1.601944724e-05
0.004620856103
4.612047083e-06
-0.000191718226
0.02309793648
0.0005598710559
-0.02154559901
0.02134517266
8.708121499e-06
1.184632973e-05
-0.02086748809
1.104114364e-05
0.0004719285463
5.756029331e-06
0.001027698699
0.02251651511
0.0001077502313
-1.191814909e-05
0.0001153500068
-1.935094022e-05
0.02296068584
0.000275352565
-1.856190137e-06
0.0001461146895
-3.119351253e-06
0.0001212880013
-0.02210320837
2.400148632e-06
0.02450546281
-0.02480747253
0.0004232977183
0.02419501789
0.0004535475066
0.02510400414
0.0003981437198
-0.0001116432184
0.000408174838
5.771946587e-06
0.0005350012478
-0.02147281711
-5.424638146e-05
0.02281501548
-0.0234262089
0.001146194666
0.002226163007
0.02385354037
0.0005228315649
-0.0002692056292
0.000696537108
-4.21085509e-05
-0.001961992345
0.002169526845
-0.228470664
0.002897705658
0.2280722532
-0.2283361294
-0.002633829451
-0.2289304442
-0.001679788664
0.2287557743
0.003170144463
-0.2282620674
0.00409180895
0.227836973
-0.2281684391
-0.003760342859
-0.2288755174
-0.002351676307
0.2286791663
0.004398014626
-0.2281007248
0.002909477098
0.2292854086
-0.2286194891
-0.003559012592
-0.2288635994
-0.003115471981
0.2286608726
0.002337033669
-0.2289560657
0.001306144187
0.2297029691
-0.2294412144
-0.001545145322
-0.2289159908
-0.003856457139
0.2287659446
0.001146060527
-0.2293403725
-0.002662275905
0.002968254168
-0.2274887231
0.004068158613
0.2266924034
-0.2270856341
-0.003674927937
-0.002925583377
0.2277806107
0.00406602364
-0.2269448105
0.002611646757
0.2293922258
-0.2289656124
-0.002980312073
-0.004210416197
0.2276468366
0.002366321225
-0.229554706
0.002416893227
0.2303230594
-0.2303821966
-0.002272038617
-0.00251148603
0.2298316193
0.002656136111
-0.2303309324
0.003812274938
0.2292778952
-0.2296527737
-0.003378381395
-0.001096445774
0.2298400675
0.00425296542
-0.2293004319
-0.01005382964
0.01136974735
-0.2285768671
0.004502155173
0.2299552273
-0.2276244144
-0.006770803537
-0.003871154045
0.2265555063
0.003900930387
-0.2280698077
0.004768091204
0.2288793481
-0.2293431112
-0.004163135804
-0.002826742782
0.2296074849
0.005565107631
-0.2294032445
0.008851664165
0.227545757
-0.2286384954
-0.007623193077
-0.003125248995
0.23002722
0.01017520533