/*--------------------------------*- C++ -*----------------------------------*\
| =========                 |                                                 |
| \\      /  F ield         | OpenFOAM: The Open Source CFD Toolbox           |
|  \\    /   O peration     | Version:  v2012                                 |
|   \\  /    A nd           | Website:  www.openfoam.com                      |
|    \\/     M anipulation  |                                                 |
\*---------------------------------------------------------------------------*/
FoamFile
{
    version     2.0;
    format      ascii;
    class       volVectorField;
    location    "2.32";
    object      U;
}
// * * * * * * * * * * * * * * * * * * * * * * * * * * * * * * * * * * * * * //

dimensions      [0 1 -1 0 0 0 0];


internalField   nonuniform List<vector> 
3019
(
(99.99851961 0.003547146393 -4.185606473e-21)
(99.99807839 0.01183235636 2.929766934e-25)
(99.99685092 0.0246111064 -4.176634177e-21)
(99.99481593 0.04480047245 -4.148137109e-21)
(99.99977566 0.03495440718 3.999289892e-21)
(99.99743408 0.05690906239 0)
(99.99609571 0.09077871128 0)
(99.99570271 0.1370901557 -6.97409267e-21)
(99.99453888 0.1978940868 8.104462083e-22)
(99.99378077 0.271196166 -5.237272962e-21)
(99.99404593 0.3481516223 7.005256413e-22)
(99.99551176 0.4131838876 0)
(99.98684778 0.009382322945 1.677233145e-20)
(99.98177243 0.03174344704 4.187833944e-21)
(99.97036949 0.06676443394 2.924110999e-20)
(99.95089653 0.1224629616 -1.252344414e-20)
(99.95424011 0.1647350476 4.02987103e-21)
(99.92454387 0.2711594662 -5.026815924e-23)
(99.8859536 0.4329038037 0)
(99.86539816 0.5780672901 -7.041398077e-21)
(99.82322029 0.8441074133 -6.495850318e-21)
(99.79129241 1.174539337 -1.122044572e-20)
(99.78815344 1.533867205 -4.58147513e-21)
(99.83136913 1.846617346 -5.691466168e-21)
(99.96503396 0.01186363225 -1.67349706e-20)
(99.95071998 0.04120651336 -3.361132716e-20)
(99.91967031 0.08940039058 -7.531708557e-20)
(99.86784328 0.1684881145 1.00196658e-19)
(99.84255801 0.2577451771 -8.27671203e-21)
(99.75361414 0.4374797674 -8.037232351e-21)
(99.634701 0.7134810996 -1.39425359e-20)
(99.56864612 1.013741465 0)
(99.4330588 1.519192618 2.694394137e-20)
(99.32735532 2.167172878 -4.984903137e-20)
(99.32897131 2.890648788 -3.092874585e-19)
(99.49085871 3.5675907 -2.041308118e-19)
(99.94035463 0.008995530345 -8.43902773e-21)
(99.91296341 0.03397769844 5.906863599e-20)
(99.85447661 0.0824344301 -1.690089603e-20)
(99.75891495 0.1661636981 0)
(99.68305025 0.2905877566 0)
(99.50941491 0.5199594796 -6.508647468e-20)
(99.26784848 0.8848418232 -1.301647125e-19)
(99.07662394 1.327423187 3.059078541e-20)
(98.76062586 2.061251978 -5.808972289e-20)
(98.50470427 3.040055226 -1.063451082e-19)
(98.43356413 4.26480745 -3.61623569e-19)
(98.76674247 5.521629673 1.779234873e-19)
(99.92561592 -0.0004632170483 0)
(99.88305281 0.00589918801 0)
(99.7929967 0.0386843784 8.540285788e-21)
(99.64501892 0.1064769 1.288972415e-20)
(99.50721292 0.2478427036 2.131824463e-20)
(99.22261073 0.4907901515 0)
(98.82391717 0.8822408606 0)
(98.43829254 1.43137493 0)
(97.86666958 2.333426506 -3.838731753e-19)
(97.27596613 3.679220441 -2.591898158e-19)
(96.91503654 5.582396402 -5.827496986e-20)
(97.36589715 7.863532434 1.347769295e-20)
(99.93505586 -0.01691640984 0)
(99.87703233 -0.04435886523 0)
(99.75580461 -0.04631000398 -1.710190195e-20)
(99.55297201 -0.01416587792 3.486135124e-20)
(99.34482267 0.1175474586 0)
(98.94000496 0.3266468946 0)
(98.3584551 0.6847842821 2.727154685e-20)
(97.75083543 1.253685563 3.530613711e-20)
(96.81292838 2.193496189 0)
(95.62925603 3.767995635 -5.946225216e-19)
(94.44512509 6.427981318 0)
(94.38499996 10.62266296 0)
(99.98235025 -0.03993620014 4.184777206e-21)
(99.91049654 -0.1149687381 -4.216291953e-21)
(99.76257096 -0.1694194367 8.604120367e-21)
(99.51193623 -0.1953606413 -3.146159721e-20)
(99.22701902 -0.1010152937 6.858124497e-23)
(98.714885 0.0272684461 2.694154302e-20)
(97.96639091 0.284332246 2.947344477e-20)
(97.14550503 0.7522535908 7.671912933e-20)
(95.78744292 1.549954809 0)
(93.8181282 2.971748312 3.658512546e-19)
(90.97671778 5.665397991 7.842226647e-19)
(87.40313575 12.14888465 1.254307293e-18)
(100.0792072 -0.06817525407 -4.185220117e-21)
(99.9969571 -0.2015924868 4.217807787e-21)
(99.82989116 -0.3220960852 -5.354745083e-21)
(99.54520026 -0.4233828087 -3.603402572e-21)
(99.1955868 -0.3929207205 1.537236613e-20)
(98.60217735 -0.383514437 9.163764642e-21)
(97.74442791 -0.2997421281 2.857547967e-20)
(96.75035669 -0.02682146566 0)
(95.07974632 0.4066084388 5.361213431e-19)
(92.52608424 1.146654001 -9.971903904e-20)
(88.30921427 2.268225408 0)
(80.15315231 4.274663911 -1.205513274e-18)
(100.2341034 -0.09958776062 -2.019798848e-21)
(100.1461463 -0.2978974217 -1.518009515e-21)
(99.96970289 -0.4922916338 -5.202822852e-22)
(99.66856767 -0.6789790635 1.577007929e-21)
(99.27239667 -0.7309201072 -2.95725845e-23)
(98.63959172 -0.8621139698 0)
(97.74743759 -0.9842420958 -2.664775756e-22)
(96.6649144 -0.9638096665 -4.019556618e-20)
(94.89771157 -0.9811270877 -5.525524538e-19)
(92.3125535 -1.054140402 5.131826636e-19)
(88.515552 -1.620068789 9.634198201e-19)
(83.67449163 -3.752810079 -2.209327892e-18)
(100.4511054 -0.1317351164 3.980619004e-21)
(100.3626308 -0.3963798357 5.988896623e-23)
(100.187436 -0.6659386141 0)
(99.88883462 -0.9402644182 2.065302565e-22)
(99.4688614 -1.083241175 -2.113205094e-21)
(98.84087174 -1.357252543 2.253339235e-21)
(97.9840272 -1.681176863 -6.0620749e-22)
(96.91134777 -1.906842318 -4.162390218e-20)
(95.24212583 -2.312264342 -3.67635638e-19)
(92.94169447 -2.936457466 0)
(89.96548717 -4.118894881 0)
(86.97021971 -6.016071991 0)
(100.729466 -0.1622658148 -1.960648183e-21)
(100.6453302 -0.4896536649 1.97804778e-21)
(100.4810212 -0.8293447422 1.930439756e-21)
(100.2041404 -1.186305868 -1.80615001e-21)
(99.78030357 -1.419157238 -2.085356785e-21)
(99.19637266 -1.820931058 0)
(98.42629313 -2.318948615 -3.042796693e-22)
(97.43217163 -2.751224519 7.331318639e-19)
(95.94930389 -3.435646779 -6.8692742e-19)
(93.98162147 -4.372414252 3.728209592e-19)
(91.53970283 -5.743792601 8.172554355e-19)
(89.13966271 -7.337485206 -8.089365346e-19)
(101.063867 -0.1891274148 7.195075878e-21)
(100.9882881 -0.5711862967 0)
(100.8420993 -0.9689082776 -1.926659739e-21)
(100.5997834 -1.405530932 0)
(100.1856519 -1.713947218 0)
(99.68107558 -2.215708217 -6.2032792e-21)
(99.03084562 -2.847820639 -1.392776464e-19)
(98.15812842 -3.436704739 6.65422484e-19)
(96.89677645 -4.30813159 -3.196794535e-19)
(95.23704789 -5.440805685 -6.188151214e-22)
(93.13197644 -6.965927831 7.26324598e-19)
(90.88393192 -8.578789712 9.837630383e-19)
(83.09911864 -3.265305433 1.119194421e-18)
(86.64964989 -5.808447126 1.306327349e-20)
(88.90407736 -7.193639785 2.649270341e-18)
(90.66230601 -8.411860833 8.298773616e-19)
(80.54325095 5.836402506 -2.42756487e-18)
(89.57455891 -3.602653114 0)
(86.99027272 -5.466092421 9.411286301e-19)
(84.29517975 -3.22424394 2.16294372e-20)
(91.14813985 -5.387685148 -8.180198585e-19)
(89.17205959 -6.942394094 -2.443788482e-18)
(87.29989571 -5.688215324 9.118089819e-19)
(87.86249525 -6.572061184 1.305228317e-18)
(87.0268144 -7.619827655 0)
(85.84360258 -7.072156386 1.465465027e-18)
(92.72412322 -6.685944998 -1.476776875e-18)
(90.91316185 -8.18543589 1.086466138e-18)
(89.40278298 -7.096674816 1.127603105e-20)
(89.80380287 -7.775590796 9.59731373e-19)
(88.82969244 -8.51668774 -5.63690925e-19)
(88.20278033 -8.077093558 0)
(91.13311363 -8.347772834 -7.236047535e-19)
(91.70239274 -9.072263287 -8.375518224e-19)
(90.20576249 -9.970322328 -3.922900933e-19)
(89.55719699 -9.259805158 -5.479334246e-19)
(76.18401777 -5.310353715 1.005484361e-18)
(81.52570387 -6.608150656 1.04520776e-18)
(69.29251305 6.041399894 1.594611975e-18)
(75.11287625 -4.720444293 -1.342569776e-18)
(85.67886908 -6.979013098 -6.276936257e-19)
(84.45843079 -6.478644328 8.865026887e-19)
(85.5635785 -5.090754992 -1.002679697e-18)
(84.28964984 -6.697040853 0)
(85.55084604 -7.124953475 6.391115149e-19)
(82.00496176 -6.628768194 0)
(84.08582288 -6.664039392 -2.29268624e-19)
(88.09078194 -8.023316662 -9.56589504e-19)
(87.18135182 -7.675102445 0)
(88.13951814 -6.738108596 -6.492561744e-19)
(87.00125584 -7.783122198 -1.520630652e-18)
(87.95870939 -8.115435534 1.223662262e-18)
(85.63209071 -7.179712058 6.384264166e-19)
(86.92392139 -7.751410212 3.033823569e-19)
(89.50754913 -9.213310867 5.439444609e-19)
(88.868235 -8.554797095 0)
(90.01695056 -7.928666559 -6.710894165e-19)
(88.71681983 -8.588712617 1.409466375e-21)
(89.28637625 -9.259797722 0)
(88.01252161 -8.147139903 0)
(88.68263531 -8.5518074 -5.834600253e-19)
(90.24978799 -10.02646868 -5.206458304e-19)
(91.82515503 -9.164354568 5.491564868e-19)
(89.88336966 -10.0616693 0)
(89.33454624 -9.305425091 -5.585655415e-19)
(89.85094237 -10.00770735 3.995735078e-19)
(88.26445693 -0.777387814 0)
(83.81899614 -2.708795751 -1.117346176e-18)
(81.79354772 4.065658434 2.344184182e-18)
(80.72776222 0.01357976128 2.462427952e-18)
(75.92546601 -3.694352777 1.315502871e-18)
(71.48609094 5.872976183 1.431872553e-18)
(85.14952682 -4.816345593 1.029661979e-18)
(84.24823056 -6.432686717 -8.985116379e-19)
(82.07759282 -6.145304219 2.039643065e-18)
(81.60933806 -6.069325392 1.910794988e-20)
(76.81893074 -4.311803258 -1.311958363e-18)
(81.2667586 -1.058354947 9.240319843e-21)
(79.15528636 -9.339100307 5.527950664e-19)
(54.69428935 8.437440942 2.192951321e-19)
(62.96643582 -7.827019258 -1.606685218e-18)
(78.46118467 18.36392844 7.205612388e-20)
(69.66808214 8.332813231 0)
(89.92834295 -9.604549345 -1.942661354e-21)
(90.77973185 -9.298151324 -3.177826597e-19)
(91.13043224 -9.581212447 -9.262108537e-19)
(74.77556131 -10.95580767 4.624265659e-19)
(78.70854053 -9.552031946 0)
(78.93613821 -6.287432581 -2.939789594e-19)
(78.88696681 -9.201636712 -1.971197332e-18)
(74.85095692 -9.960965273 1.077231677e-18)
(81.12049645 -8.172231088 -2.769406489e-18)
(79.30098318 -9.035416935 1.96976354e-18)
(79.69049676 -6.423876591 1.424080306e-18)
(70.7073134 -0.1428517357 0)
(64.16748669 -6.219117491 0)
(57.50085992 8.089023905 -8.421577805e-19)
(73.99152772 -9.880125441 -1.143955114e-18)
(65.58124533 -7.251473166 -1.270343556e-18)
(71.73708862 -1.723059752 0)
(64.66834085 -8.86585091 -1.882064891e-19)
(73.94716649 -10.7903562 -6.02891605e-19)
(84.91561796 -6.803406627 -6.445287058e-19)
(83.13373455 -7.213446243 -4.870590963e-19)
(84.99694987 -6.840076827 0)
(83.0903855 -6.613829062 9.406988724e-19)
(82.36177558 -7.457694872 -1.450651387e-18)
(81.27533994 -8.066377599 -9.572165898e-19)
(83.07583652 -7.205958437 4.849245111e-19)
(82.46737643 -7.381752796 -2.422317076e-18)
(83.37430603 -6.611246305 2.27791645e-19)
(87.49388064 -7.930575424 6.069823408e-19)
(87.55732083 -7.958114064 -6.0750658e-19)
(86.24176121 -7.492205951 1.264475193e-18)
(86.32980243 -7.538323156 6.314322727e-19)
(88.9953915 -8.891541355 2.983876406e-19)
(89.03492207 -8.932727182 7.406736066e-20)
(88.36227047 -8.322077893 5.698841673e-19)
(88.40603236 -8.350308975 -2.845078663e-19)
(91.25316222 -9.679020803 2.7433878e-21)
(89.64684902 -9.587742815 0)
(89.68166789 -9.63310908 -5.957913726e-19)
(66.32673243 25.7001989 4.927266216e-19)
(55.10997767 11.48437054 3.261275296e-18)
(88.53252317 -8.306863223 -2.687990778e-22)
(89.09097144 -7.984484651 6.853571183e-19)
(89.40137586 -8.195109963 -6.805912613e-19)
(88.6467287 -7.724587874 -8.667972401e-22)
(88.98373925 -7.917803706 6.884462452e-19)
(88.48564493 -8.280221265 -8.344306292e-19)
(90.33687157 -8.938985816 -3.220989915e-19)
(90.66764898 -9.20615876 1.588839033e-18)
(89.88724246 -9.557023718 1.126410812e-18)
(87.73434237 -7.872276983 0)
(88.15584998 -7.471703205 0)
(88.52893959 -7.660819845 6.983468315e-19)
(87.40899699 -8.252477838 -6.956559789e-19)
(87.27637869 -8.180569689 0)
(87.79477228 -8.045691205 0)
(89.20899531 -8.8933649 0)
(89.91183437 -8.593706894 -6.620818856e-19)
(90.22866315 -8.851064529 0)
(89.50259002 -8.2706849 -6.742727409e-19)
(89.8082293 -8.510171073 1.326496466e-18)
(89.16532642 -8.850271124 -5.689238513e-19)
(88.8246819 -8.715786395 0)
(87.78297336 -8.766643809 -6.759132156e-19)
(87.7385472 -8.610522599 -1.322617947e-18)
(87.33823407 -9.262820341 -7.158726626e-19)
(87.26544807 -9.124974717 8.331777233e-20)
(89.15631236 -9.111757942 5.511961905e-19)
(88.1715671 -8.219601423 6.047856022e-19)
(87.5902396 -8.357158943 3.533224606e-19)
(87.45758205 -8.27982108 7.030512563e-19)
(87.7282587 -8.577022056 1.965898416e-18)
(87.67502915 -8.511721876 2.566882296e-18)
(88.57409663 -8.457404379 5.757765051e-19)
(89.48214939 -9.430900256 -1.981075923e-21)
(87.57395937 -9.43461567 1.439409257e-18)
(87.38036863 -9.32146847 -7.210405878e-19)
(87.70776649 -9.833077095 0)
(89.80933288 -9.856243317 2.884993155e-19)
(80.08917617 -8.78639455 0)
(80.37310483 -8.661905104 0)
(56.48452186 -0.491117214 0)
(57.85113013 -2.853544128 -8.740045262e-19)
(76.72737148 -10.3642929 -1.152426644e-18)
(77.27763871 -10.12595827 2.290413345e-18)
(77.4740207 -9.648519959 1.966478005e-18)
(77.53036729 -7.826273337 9.816930657e-19)
(79.0033585 -7.853920914 -8.182725498e-21)
(75.10243431 -7.428940572 0)
(76.97393745 -7.776831259 0)
(76.91636378 -9.790083193 -9.851589798e-19)
(80.56740953 -8.484897523 0)
(80.77612476 -7.648967911 0)
(81.50787067 -7.485352328 3.776965162e-19)
(79.43102061 -7.832504965 0)
(80.49045632 -7.700844509 0)
(80.27556355 -8.580555822 0)
(70.83570216 -9.499222793 2.538564769e-18)
(71.97384325 -6.354483209 0)
(74.35769523 -7.235653006 0)
(69.21808177 -10.63652441 -4.279493628e-20)
(70.61907118 -10.79717923 -3.871711856e-18)
(83.47200483 -7.23247528 2.038128088e-18)
(84.21550053 -7.05903968 0)
(84.38898778 -7.110339887 1.752821911e-18)
(83.86792054 -7.017539276 2.364658307e-18)
(84.1344678 -7.047462391 3.940254545e-19)
(83.38924246 -7.250287547 1.966659987e-18)
(84.67510504 -7.28423257 0)
(84.86234601 -7.444035196 7.172191154e-19)
(84.43693386 -7.141951805 -6.923601815e-19)
(84.6154997 -7.243487597 0)
(81.96097828 -7.671098143 -9.752503788e-19)
(82.44972406 -7.235579381 7.517054967e-19)
(82.89096416 -7.121809376 -1.650354788e-21)
(81.71702109 -7.432299476 0)
(82.28328993 -7.281774104 -5.407147738e-21)
(81.81683224 -7.761353308 9.767513859e-19)
(82.81686908 -7.293213149 0)
(83.47537831 -7.027219026 0)
(83.77668023 -7.013228531 -1.568621027e-18)
(83.02047309 -7.091097652 -7.652737942e-19)
(83.36649353 -7.036321222 -7.728144102e-19)
(82.70728921 -7.306034096 1.947240525e-18)
(86.47129219 -8.108325114 -6.801385073e-19)
(86.64067311 -8.162201524 -6.890756151e-19)
(86.23030491 -8.110775304 6.496496386e-19)
(86.42223317 -8.101770989 -2.023792139e-18)
(86.89835084 -8.199195282 1.420594874e-18)
(87.012188 -8.274720015 -2.29900341e-21)
(86.70481599 -8.174450888 2.082924393e-18)
(86.8618647 -8.187910724 7.061405832e-19)
(85.30683318 -7.732941467 7.400081493e-19)
(85.59662932 -7.856066587 2.254690251e-18)
(84.93590859 -7.509027858 7.218215734e-19)
(85.2100305 -7.685369933 -7.322776515e-19)
(86.05403872 -8.015208384 -1.959707501e-21)
(86.18504856 -8.090651053 -6.557275304e-19)
(85.69235896 -7.891313835 -7.550890132e-19)
(85.97132777 -7.985895232 3.822245064e-19)
(87.95720741 -8.957178533 7.036569519e-19)
(87.82049426 -8.829920178 -5.422431323e-21)
(88.86529282 -8.761424616 0)
(86.9002334 -8.805179341 3.484861687e-18)
(87.06992829 -8.917727177 3.918584201e-19)
(86.8512564 -8.548202718 -3.82124811e-19)
(86.85647951 -8.727959025 0)
(87.06849733 -8.944907275 -4.094575406e-19)
(89.12736738 -9.060934642 -5.553654907e-19)
(87.36630722 -9.0807863 0)
(87.95695414 -8.995282995 -3.571589807e-19)
(87.53820403 -8.447663712 -6.817697555e-19)
(87.62465043 -8.392814178 6.771325352e-19)
(88.22115938 -8.25049333 -6.007787237e-19)
(87.2050822 -8.412408378 0)
(86.70590852 -8.437409602 -1.225505041e-18)
(87.05966467 -8.304266352 -3.669493229e-19)
(87.17245588 -8.38262702 0)
(86.81732562 -8.471731099 -1.885950108e-18)
(86.8530128 -8.518808416 -4.046897846e-22)
(86.71398691 -8.440050777 2.19216984e-18)
(86.79474468 -8.461010106 0)
(88.53457857 -8.429668648 -5.719852805e-19)
(87.64997657 -8.496081302 -1.908812198e-18)
(87.55941725 -8.464095831 1.476756849e-21)
(87.71070558 -9.518621489 0)
(87.62365754 -9.454862299 1.44334245e-18)
(89.52806501 -9.468832067 0)
(89.78009579 -9.794607493 4.457050088e-19)
(87.68755449 -9.760031964 0)
(87.71825323 -9.548077523 -1.458244077e-18)
(86.52918494 -7.419938546 8.192643535e-19)
(86.99479926 -6.908073432 -1.49219764e-18)
(87.45851873 -7.137906556 1.460153741e-18)
(86.34779342 -6.556190064 -7.790024699e-19)
(86.83549899 -6.824215091 0)
(86.35676045 -7.340525655 -1.022940006e-18)
(87.60616716 -7.208871791 -7.301132682e-19)
(88.02428431 -7.407899605 0)
(87.60513844 -7.824070287 5.856913204e-19)
(87.2246547 -7.843800559 -1.211281357e-18)
(86.76320756 -8.057119657 6.374661933e-19)
(86.55076381 -8.026971034 -6.273957597e-19)
(86.48457822 -8.004392274 9.567173535e-19)
(86.27177818 -7.930715347 7.082975612e-19)
(86.67805496 -7.675180285 -1.748560417e-21)
(79.53108205 -9.105925732 -5.596056331e-19)
(75.50681771 -10.84352341 -2.044961729e-18)
(74.40198529 -11.23933871 0)
(78.24326547 -9.731251834 2.268499657e-18)
(78.44517001 -9.349677976 9.925797375e-19)
(78.54044817 -8.869778758 -1.884638995e-18)
(78.97680259 -8.756974819 2.808186015e-18)
(80.97438693 -8.297443402 3.406015898e-18)
(81.12715718 -8.042145113 -1.609512854e-18)
(81.32465779 -7.957185261 0)
(79.38201373 -8.630801195 -2.815935359e-18)
(79.74988685 -8.501749504 -4.676493935e-19)
(79.66983789 -8.858255933 0)
(68.4842609 -3.874503679 0)
(71.12759435 -5.788035693 0)
(69.59729361 -9.199838694 0)
(66.26550354 -9.725486554 0)
(65.77922069 -11.99725774 9.209131908e-18)
(63.78505593 -10.54079965 1.629502834e-18)
(73.69277996 -11.39064194 -6.437910396e-18)
(72.78387847 -11.62315136 6.481290356e-18)
(72.98916237 -10.80673943 0)
(83.39584136 -7.19184947 0)
(83.75725623 -7.194763343 0)
(83.71441925 -7.215403771 1.536549383e-18)
(83.4924389 -7.174627172 0)
(83.57359861 -7.183936107 0)
(83.20555474 -7.228179544 -1.949419835e-18)
(83.92434003 -7.442867586 1.791388488e-18)
(83.95902383 -7.520361808 0)
(83.70207684 -7.237398294 4.168891592e-19)
(83.73491142 -7.256513589 -8.683277898e-19)
(82.22731578 -7.539277166 -9.729561714e-19)
(82.49477407 -7.449450952 -1.668783994e-18)
(82.62671449 -7.38874037 0)
(81.51499659 -7.880716963 -2.544438611e-21)
(81.70475467 -7.807232394 -1.634471295e-18)
(81.45565967 -7.969627132 2.937122369e-18)
(83.01562608 -7.2203551 0)
(83.33872293 -7.186611853 -8.573070519e-19)
(83.41733179 -7.17313333 1.515063467e-21)
(82.7426252 -7.33012709 0)
(82.84137953 -7.286788011 1.684212922e-18)
(82.54441854 -7.334457204 4.868189198e-19)
(87.00577349 -8.118662932 -6.54492006e-19)
(86.82384562 -8.068677292 -6.436988666e-19)
(87.29418107 -7.871508828 8.108642195e-22)
(87.73839262 -8.017203609 6.08489682e-19)
(87.23158797 -8.165143275 0)
(87.06792353 -8.132591597 6.611946977e-19)
(85.81640873 -7.768213889 -7.149476936e-19)
(85.53382325 -7.64243669 0)
(85.97525466 -7.370906973 0)
(84.62999997 -7.961214668 -1.782646333e-18)
(84.7262932 -7.994886998 0)
(84.01435071 -7.622129368 -1.807821367e-18)
(84.10613428 -7.715983401 0)
(85.04089186 -8.157070404 -1.596225209e-18)
(84.82096147 -8.025236825 1.779390663e-18)
(84.91345435 -8.052339124 0)
(86.59319605 -7.636724353 9.388893532e-19)
(86.18599584 -7.902128066 0)
(85.91031377 -7.80484783 1.438861719e-18)
(87.7611048 -8.704851453 -6.726996896e-19)
(88.26700343 -8.715253216 -6.449555396e-19)
(88.29537484 -8.767687245 2.603597483e-18)
(87.30255644 -9.214789416 -2.13350373e-18)
(88.34891412 -9.264903309 1.19494009e-18)
(88.38776641 -9.307172229 1.811958428e-18)
(88.302288 -9.170107959 -6.495327432e-19)
(88.31343717 -9.22240456 5.883257844e-19)
(87.26520959 -9.170671828 -6.969767629e-19)
(88.09186599 -10.01467867 -1.317964673e-18)
(88.11630585 -10.04334141 -3.318418449e-19)
(87.51028837 -9.409991593 1.077553611e-18)
(88.53503268 -9.438305558 -3.189988036e-21)
(88.58788624 -9.46835777 -6.244583891e-19)
(88.42950768 -9.354144378 -6.106457842e-19)
(88.47937723 -9.400407229 0)
(87.43988664 -9.374299276 -1.083745898e-18)
(88.18466988 -9.97249112 3.452474321e-18)
(88.0928879 -9.991842861 1.258981267e-18)
(88.77968044 -9.906997878 3.356985227e-19)
(88.33596974 -9.940440033 -1.015303647e-17)
(87.3596475 -9.873754621 2.106609756e-17)
(79.82348295 -8.918679133 0)
(80.55474142 -8.483573287 0)
(48.1391422 0.5143285006 -2.023961115e-18)
(50.14753209 -3.132746049 0)
(58.28386248 -11.40793581 -1.327586033e-17)
(60.65767617 -12.05458337 8.182918812e-18)
(52.81924472 -6.251626503 -1.882054512e-18)
(55.60274847 -9.939166435 1.122260431e-17)
(53.07346363 -10.88294188 0)
(76.13234043 -10.61640823 1.089205217e-18)
(77.77581258 -9.912130447 0)
(80.6629093 -8.214083706 0)
(80.91004937 -8.131485772 0)
(80.77816278 -8.415897844 0)
(79.98713779 -8.701274988 0)
(80.07845294 -8.385502266 1.41953626e-18)
(80.37811623 -8.289130881 -2.92841396e-20)
(68.98624767 -12.38918559 0)
(67.51206021 -12.39860922 -1.022992608e-17)
(67.75534588 -10.29253165 9.654480588e-19)
(62.92974124 -12.40736732 -3.202697333e-18)
(64.8723168 -12.76561546 2.285559847e-17)
(71.88795547 -10.83142695 -2.560560985e-18)
(71.70108161 -11.90747083 -7.008831765e-19)
(70.41408287 -12.19254196 0)
(83.82811582 -7.201703907 -4.498463413e-19)
(83.89381637 -7.19823039 0)
(83.52780216 -7.201548247 0)
(83.29161348 -7.245720213 0)
(83.66116929 -7.19521791 0)
(83.75161127 -7.202325427 4.430287771e-19)
(83.85879826 -7.340454858 1.784325443e-18)
(83.89239819 -7.384174406 -1.792028081e-18)
(83.78042214 -7.278337384 0)
(83.82173686 -7.306131904 0)
(82.21600617 -7.572328347 5.181822112e-21)
(82.3573845 -7.507441435 2.495777417e-18)
(82.09120362 -7.602660792 -4.963863696e-19)
(81.64504574 -7.866214157 9.742549975e-19)
(81.89033866 -7.729165702 -8.198252069e-19)
(82.06219123 -7.648113307 1.068816949e-20)
(83.1401736 -7.232234468 8.507447298e-19)
(83.24561872 -7.210752295 -8.570603952e-19)
(82.92870254 -7.25794173 1.935217657e-18)
(82.61809079 -7.312514843 -3.894184214e-18)
(82.93519496 -7.260651538 1.692402726e-18)
(83.03424087 -7.245939576 -1.701304611e-18)
(86.52187858 -8.123926055 1.36619444e-18)
(85.83284013 -8.132203787 -2.423313343e-18)
(85.79452259 -8.115583108 2.414420778e-18)
(85.95084985 -8.175360239 -4.046833359e-19)
(85.88526058 -8.15625615 4.031396397e-19)
(86.57844351 -8.143856093 -1.373692695e-18)
(86.29760653 -8.113755213 -1.916467985e-21)
(85.65675324 -8.154045064 -2.350918355e-18)
(85.59754854 -8.175188185 1.501220292e-18)
(85.76219862 -8.111950671 1.604818521e-18)
(85.71919184 -8.126970772 0)
(86.36576532 -8.10615448 6.663230587e-19)
(86.9329951 -8.218700982 0)
(86.22059052 -8.196665733 1.219302583e-18)
(86.19946222 -8.177338071 -1.214927697e-18)
(86.28315669 -8.260900593 0)
(86.24669272 -8.225465703 1.627472909e-18)
(86.97009858 -8.244624711 -7.226734037e-19)
(86.76533271 -8.180787904 0)
(86.08710664 -8.182116678 -1.612772958e-18)
(86.02153046 -8.182751927 -1.613540412e-18)
(86.17614201 -8.169564932 -1.211712747e-18)
(86.13999888 -8.174166755 -4.028642744e-19)
(86.81820662 -8.183583944 -6.995493031e-19)
(84.43271898 -7.882374431 -1.78662451e-18)
(84.53180311 -7.924429171 0)
(85.40345128 -7.777244463 0)
(85.07645259 -7.860493607 -7.810498262e-19)
(84.97737797 -7.817950133 3.105919408e-18)
(85.27388543 -7.934773132 -1.565315943e-18)
(85.17559422 -7.899140892 7.859762653e-19)
(85.50021909 -7.81821434 0)
(84.22108373 -7.781801478 0)
(84.33145172 -7.834185391 0)
(85.15821139 -8.126342825 0)
(85.22326474 -8.137338399 -1.083898129e-18)
(86.13413348 -8.052963014 3.660047532e-19)
(85.80987765 -8.122696523 -2.007053621e-18)
(85.72425831 -8.088698243 0)
(85.58955505 -8.180679617 5.552719947e-18)
(85.61731657 -8.160892891 -4.587348345e-18)
(86.15579379 -8.067763365 1.372185326e-18)
(85.78702114 -7.924133718 0)
(85.46658246 -7.998547289 7.955062407e-19)
(85.37101872 -7.967922093 -1.575964644e-18)
(85.65063689 -8.057453095 0)
(85.55956021 -8.028307868 1.600459612e-18)
(85.88024449 -7.955349495 0)
(85.00230124 -8.079401808 -2.227716764e-18)
(85.09006085 -8.103290973 4.509384362e-19)
(87.91887041 -8.921883889 1.042958071e-18)
(88.41937962 -8.912790181 -2.997625816e-21)
(88.45790717 -8.95317566 -1.00619948e-18)
(88.33200148 -8.821394273 -1.971285433e-18)
(88.3754785 -8.870190426 9.902613674e-19)
(87.87072361 -8.881777807 -3.437228817e-19)
(86.96694051 -8.857309687 -3.882097471e-19)
(87.0273951 -8.89154198 0)
(86.84688292 -8.590410737 -3.833841648e-19)
(86.84330716 -8.647933749 1.930861823e-18)
(87.05684464 -8.958810374 1.894714283e-18)
(86.68943852 -8.986105706 -5.620663711e-18)
(87.53700211 -9.041666603 -1.878328097e-18)
(88.41260602 -9.061129684 1.81011865e-18)
(88.34163775 -9.107698651 5.792239933e-19)
(88.47838698 -8.992573081 2.495652214e-19)
(88.49379575 -9.04440533 -3.211171243e-19)
(87.96503527 -9.036526161 -1.411069845e-18)
(86.87839993 -8.416937235 0)
(86.16265143 -8.379076584 0)
(86.45200841 -8.368034741 0)
(86.76825902 -8.43223157 1.286370331e-18)
(87.10797147 -8.330529803 -3.690309684e-19)
(86.3803732 -8.31551644 0)
(86.33083042 -8.291981612 0)
(86.43852673 -8.357671555 -1.293004396e-18)
(86.4245519 -8.33486477 -1.240849692e-18)
(87.15338359 -8.354924002 7.464757181e-19)
(86.83625986 -8.483659252 1.891028018e-18)
(86.84845733 -8.498241915 -1.137260781e-18)
(86.74383468 -8.444370572 -2.234496661e-18)
(86.77083316 -8.451626616 1.499621573e-18)
(87.69077206 -9.49580678 2.535496504e-18)
(88.70144712 -9.550656152 -1.912904514e-18)
(88.72665707 -9.583391059 6.443761665e-19)
(88.63287267 -9.494965463 -6.280063821e-19)
(88.67026472 -9.521731843 1.265025653e-18)
(87.66153062 -9.474803786 3.629154181e-19)
(87.70500166 -9.662330283 -1.50040945e-18)
(88.76773676 -9.738418686 3.357877786e-19)
(88.7562048 -9.820525239 -3.40095466e-19)
(88.7453809 -9.622588762 1.302402558e-18)
(88.75705997 -9.673657184 1.649856403e-18)
(87.71348617 -9.595562207 -1.469490311e-18)
(99.66396655 0.9128880972 -1.419902031e-20)
(99.58911899 1.235580129 6.697800279e-21)
(99.86110748 0.7619302749 6.700916754e-21)
(99.55953957 1.358709171 -2.005350757e-20)
(99.5009608 1.773303712 -6.164301673e-21)
(99.83577035 1.076214445 -3.655076733e-22)
(99.48023031 1.924255699 5.707388182e-21)
(99.47839949 2.394343294 0)
(99.83481956 1.432696695 4.580642105e-21)
(99.48271313 2.55014984 0)
(99.57489332 2.992481761 -1.763165162e-21)
(99.87721755 1.767041923 -1.681577752e-21)
(99.60975341 3.121179625 -4.73939662e-21)
(99.21551781 1.264651932 -1.51726143e-20)
(99.0192464 1.753653597 -1.474297882e-20)
(99.4686203 1.379142053 0)
(98.95299368 1.944593959 -3.604891358e-21)
(98.78645327 2.595005217 -1.086111898e-19)
(99.35065212 1.993731195 1.519240319e-21)
(98.74534193 2.837636153 4.168844895e-19)
(98.69232466 3.638433383 1.314912377e-19)
(99.31950318 2.70789231 1.167609839e-19)
(98.70539341 3.920496347 -1.159254592e-20)
(98.88411258 4.75209077 -1.935091218e-19)
(99.4389816 3.414399239 2.355130224e-19)
(98.9929482 5.002746307 1.253113375e-19)
(98.60825239 1.429870806 4.997448906e-19)
(98.23353471 2.052916641 0)
(98.84008973 1.854695577 1.469069933e-20)
(98.1084803 2.299059591 2.575741695e-19)
(97.73719418 3.19581037 3.655025172e-19)
(98.5584689 2.770063529 2.254705823e-19)
(97.62445247 3.552705503 -1.227591768e-19)
(97.39010347 4.801855653 -1.133937271e-19)
(98.42311133 3.942568271 4.791221722e-19)
(97.36998745 5.27102985 0)
(97.60733577 6.754659279 -8.874489691e-20)
(98.63561579 5.227550141 6.841948437e-20)
(97.81296861 7.234360919 3.006253198e-19)
(97.91874057 1.328726244 1.204087034e-19)
(97.31239357 1.988481171 5.782140669e-19)
(98.01433046 2.071468909 -5.157191539e-19)
(97.08361176 2.269602303 6.372708941e-19)
(96.33543974 3.354701573 -1.122613623e-18)
(97.4169963 3.293303424 0)
(96.07730616 3.821176279 1.503928311e-20)
(95.34990305 5.584298204 0)
(96.95782314 5.054761708 0)
(95.16894138 6.310539911 -6.736522505e-19)
(95.11399736 8.937841465 0)
(97.13606448 7.294823289 -1.193839944e-20)
(95.3722967 9.915789484 3.358093792e-21)
(97.28246008 0.9064186799 3.722925154e-20)
(96.38395919 1.50112761 1.102586416e-18)
(97.07313458 1.910711893 1.442471336e-20)
(96.02657859 1.762432318 1.618595667e-19)
(94.75272936 2.809381881 -1.017933414e-18)
(95.94163811 3.294483804 7.42722579e-19)
(94.25289209 3.272311686 3.450289926e-19)
(92.52552846 5.190785581 -5.387676114e-19)
(94.70466955 5.629925209 5.889494704e-19)
(91.88558773 6.084031362 -8.841977221e-20)
(90.08632485 10.17975159 -3.457776891e-19)
(94.16059391 9.433316227 0)
(89.73244358 12.29940335 7.276171196e-19)
(96.8224062 0.1890654139 1.494054635e-21)
(95.67780546 0.5616613589 1.679362805e-19)
(96.17643507 1.305567578 -6.408568571e-19)
(95.21154076 0.7281842031 0)
(93.47747175 1.388373825 -3.756284744e-19)
(94.38099828 2.533636808 0)
(92.75741723 1.67436808 -9.519440882e-20)
(89.96110897 2.813773142 -4.39685836e-20)
(91.78430185 4.799638054 -9.799901054e-19)
(88.72090301 3.315581298 9.085347793e-19)
(82.13431051 5.347728831 5.556016709e-20)
(88.29033199 9.85766999 -8.412305737e-19)
(84.52506963 10.41757041 0)
(82.15671352 16.11308577 0)
(88.08542864 15.97946412 0)
(96.65509096 -0.7210945799 6.476171044e-19)
(95.39892231 -0.660447394 -1.792120784e-19)
(95.56381408 0.2724569334 1.741702853e-19)
(94.89086093 -0.6299218211 1.815136827e-19)
(93.02681003 -0.5371507484 -2.003406172e-19)
(93.27625953 0.9284921372 -3.909862175e-19)
(92.26695194 -0.5183251015 -5.19445186e-20)
(89.43179038 -0.6235335818 0)
(89.60574983 1.94804686 -8.928482464e-19)
(88.11719103 1.194657952 -1.966828045e-18)
(86.6054416 1.306904835 1.011991415e-18)
(86.78354596 2.595194829 2.669931513e-19)
(80.09179947 2.732505779 0)
(78.25946909 2.634711808 0)
(78.24506439 4.474575617 1.372983396e-18)
(96.82191199 -1.676645986 4.006105607e-20)
(95.60152129 -1.907042177 0)
(95.40456577 -0.9793125721 8.896243891e-19)
(95.11756119 -1.995624601 0)
(93.40128789 -2.346641508 -1.941805375e-19)
(93.05528279 -1.015488157 -2.087997093e-19)
(92.73325595 -2.5095991 4.157432385e-19)
(90.42910359 -3.240101046 -4.384000201e-19)
(89.59914229 -1.377751888 -9.127371032e-19)