/*--------------------------------*- C++ -*----------------------------------*\
| =========                 |                                                 |
| \\      /  F ield         | OpenFOAM: The Open Source CFD Toolbox           |
|  \\    /   O peration     | Version:  v2012                                 |
|   \\  /    A nd           | Website:  www.openfoam.com                      |
|    \\/     M anipulation  |                                                 |
\*---------------------------------------------------------------------------*/
FoamFile
{
    version     2.0;
    format      ascii;
    class       volScalarField;
    location    "2.17";
    object      k;
}
// * * * * * * * * * * * * * * * * * * * * * * * * * * * * * * * * * * * * * //

dimensions      [0 2 -2 0 0 0 0];


internalField   nonuniform List<scalar> 
3019
(
36.90869301
36.90873527
36.90879243
36.90885009
36.95438328
36.95466289
36.95517231
36.95647828
36.95919968
36.96434084
36.97270418
36.98344721
36.72743591
36.72762722
36.72779577
36.72805961
36.77352784
36.77500855
36.77826216
36.80582173
36.81857926
36.84254713
36.88156098
36.93279265
36.54733648
36.5477823
36.54824502
36.5488665
36.59487599
36.59880375
36.60682746
36.64273149
36.67445438
36.73258845
36.8302382
36.94086482
36.36862325
36.36904423
36.36970024
36.37119362
36.41808541
36.42658737
36.44383625
36.4968713
36.56396766
36.69878039
36.878821
37.04802549
36.1918998
36.19240319
36.19357825
36.19666234
36.24558756
36.2608027
36.29371561
36.37316593
36.51676859
36.75988202
37.04744618
37.30718743
36.01691651
36.01754004
36.01948466
36.02484318
36.07805802
36.10424661
36.16282141
36.28592176
36.54031145
36.91383261
37.38938689
37.88648407
35.84447483
35.84555917
35.84904118
35.85803661
35.91620238
35.95745347
36.05172267
36.24197103
36.61230782
37.17236445
37.97502478
39.17914214
35.67513553
35.67687103
35.68235069
35.69571961
35.76215482
35.82275542
35.96273027
36.22853159
36.71518231
37.49278783
38.76983182
41.40676915
35.51056635
35.51349572
35.5220988
35.54202776
35.61826339
35.70178039
35.89432692
36.23357968
36.83705239
37.82159366
39.48935256
43.35346715
35.35156205
35.35580512
35.36785062
35.39582862
35.48383672
35.59427045
35.84223695
36.24851375
36.96094083
38.11313754
40.01071293
44.2402608
35.1998362
35.20602275
35.22278424
35.26164919
35.3583281
35.49924277
35.80234127
36.2720664
37.08740983
38.37746496
40.43977344
44.33340339
35.05520248
35.06314849
35.08435961
35.13375084
35.24176172
35.41453317
35.77047212
36.30240168
37.21366612
38.62879948
40.85183696
43.94315979
43.19772168
44.17135934
44.36170471
44.00713623
41.06595992
39.89344424
43.26056733
42.47576828
40.33773265
43.74084317
43.35063964
44.37320555
46.05951507
46.98052451
40.76044813
43.72535772
43.75691771
44.21453233
42.6232892
44.50590765
43.70945146
43.7167139
38.05099167
40.39085374
47.31038814
49.03422056
43.47846452
46.92486719
47.09414224
47.78060103
43.8577245
48.40058432
47.1720476
49.12466568
48.54188294
44.68658865
45.90367066
44.38910534
45.58462163
43.84983669
47.09243707
45.69172678
40.52054267
42.50547144
44.16800639
41.59319235
39.16929235
43.73281084
41.7268297
37.88166656
43.68331461
36.02950655
39.02967688
36.229787
39.33116278
42.33123786
40.76609951
42.3400129
45.97530554
43.08380436
43.75342951
47.85890521
47.89277924
47.73698366
46.27369371
42.59539012
54.3622501
45.40409275
52.37672846
41.07168365
43.041289
39.32285942
43.27159476
42.9288188
58.38730077
54.79962646
48.18109648
55.07474817
56.03002485
50.96486253
54.76047818
48.41655548
45.06361644
50.12727096
44.81944544
55.31100738
50.85554826
45.60394412
53.03908434
58.20173098
47.82218773
44.04635628
47.74383022
49.00536523
47.31426871
50.44245262
44.42582348
46.90199975
48.90873454
44.79699226
44.68494612
46.48546341
46.39701853
40.63563061
40.47035053
42.79285726
42.65678104
42.80964719
38.05119301
37.91207399
42.64835767
44.99920675
43.46658147
44.77192521
44.52421356
45.07980442
44.85135317
43.603522
43.69411027
43.37949373
39.45882103
45.23333287
45.34871351
45.15131067
40.34204899
40.83954812
44.21478271
41.52690523
44.08125796
43.79398354
44.43866389
44.17323976
41.66002256
41.19268342
35.96580689
36.28624358
33.56341223
33.78212259
39.64535511
43.34142545
39.54986525
40.20146598
36.41499184
36.7770677
42.12588996
38.61365637
33.25311361
33.49038606
32.74106303
37.16687299
52.44926001
52.35047717
48.0635721
48.91738913
57.08804518
56.55663965
56.1100419
51.04665341
51.60523492
50.04432394
50.82159285
56.40340738
53.27819384
51.8016554
51.62352054
51.72398729
51.81995244
53.54651431
53.71640404
48.8562053
49.78338654
56.63053926
57.0643384
42.70121028
47.91708208
47.07546668
48.70849524
48.14465209
43.25802554
45.90527384
45.32365455
46.78214916
46.105283
48.56779446
50.86947355
50.35061643
51.4966718
51.0357349
49.01738714
45.41998592
49.45244098
48.89837522
50.17346061
49.63469082
45.78016491
39.88831928
39.40230154
40.73110135
40.05876197
38.62909426
38.15460113
39.24891772
38.7702638
44.39032047
43.83822938
45.13559513
44.57949407
42.73509119
41.16519014
43.63640675
43.08184327
35.52577656
35.83912673
41.05803626
33.97184196
33.75398201
34.27556373
34.06160976
33.64530595
39.8484569
33.86834677
35.24625016
37.58529673
39.26392762
43.20889824
37.24083406
35.22278335
38.05726779
37.32827661
34.64814508
34.37507934
35.0784062
34.75584454
42.25819827
36.9062749
37.33983644
32.96976199
33.18292253
38.47496552
37.40559324
32.76635919
32.91361245
46.48627506
45.72036865
45.61041549
45.81119795
45.74899836
46.61674543
45.56530197
45.40786156
45.40700841
45.24879952
42.34305148
42.96392829
43.26461365
44.18676699
46.01199853
53.64925103
58.10389038
58.8596862
55.42865733
55.44067805
54.36928187
54.21134717
51.51335942
52.46924033
52.10295124
54.04117393
53.83110371
54.34478327
47.44365921
48.55587752
53.20518787
54.48850683
59.67616276
56.18809855
59.90735099
60.24770864
57.61658552
41.12618138
43.22942367
42.71676175
46.77176548
46.54422256
43.81551317
40.68206705
40.44979573
42.29419445
41.95773188
47.72618938
49.82950776
49.51212375
51.76226114
51.43581981
49.95011095
44.71424032
47.3637572
47.09523043
49.19227316
48.88075559
46.52013011
41.66475385
42.16929215
45.13990227
44.32997384
40.99954329
41.49997742
45.09926418
45.58804592
46.75384613
39.08314934
38.94007335
40.24476395
40.06061082
36.88090733
38.72245768
38.60308873
46.10826601
44.41485059
44.92941087
36.05238298
38.26909493
38.14251451
33.65006728
35.04589354
34.94994198
35.34986828
35.16057114
33.71952434
32.77921746
32.73618751
33.33680871
34.70590783
34.61711057
34.86932676
34.78633424
33.40979204
32.8995345
32.83252458
33.53689031
33.05510333
32.86411422
53.30366334
50.643939
49.76766149
52.7636278
59.11195632
60.61325384
53.64238834
57.9735038
61.53467515
57.6464064
55.94408706
53.21610034
52.85218757
52.03882999
54.04795851
53.65261142
53.39787131
60.87111802
60.54096336
55.7578677
61.07663174
63.16534805
57.46484063
60.69655131
60.85275032
45.43710417
45.28366937
42.64257452
43.4113668
46.17623125
46.01495399
41.15844852
40.91142667
41.67464214
41.40830756
50.46782359
50.14630138
48.13132627
49.47900299
51.11353232
50.79082965
47.963839
47.67758185
45.09949724
46.12616929
48.56707071
48.26869955
39.72063693
37.00272065
37.15129091
36.73369512
36.87292434
39.56279959
40.4531373
37.63900029
37.85941954
37.29657004
37.46174234
40.24407816
38.4588197
35.94507632
36.0881086
35.71361873
35.85415566
38.33482736
39.0873081
36.46508789
36.60719507
36.19555233
36.34316031
38.93727206
39.45989199
39.2957407
44.20809675
42.20207907
42.38625111
41.82009847
41.9879896
44.01513912
39.84920841
39.66916875
37.97043552
37.83551695
42.47153592
40.51089059
40.57733805
38.18388727
38.64637777
41.79078027
43.47044293
41.45072817
41.58974139
41.07469137
41.17559673
43.24010323
38.37096268
38.2750794
35.6025856
37.70766748
37.57567403
37.99651495
37.87740973
35.76589311
33.91489688
33.81380322
34.20750547
34.11528925
33.62133916
33.6119434
34.04364735
36.39071222
35.71654693
37.30632125
37.04096661
34.95831783
35.74490243
34.78166973
35.14653357
35.42382381
37.8383258
35.48639439
35.6370186
35.24292267
35.41645591
37.75810731
34.55895891
34.45488495
34.96659087
34.85306416
33.04052531
34.3566071
34.26319559
34.5330924
34.44053711
33.1041673
32.81342938
33.97734614
33.84204842
34.1777392
34.0822587
32.86004391
36.68220664
36.70006194
36.81434741
36.70791526
36.74159172
36.8348931
36.75533321
36.81096607
36.86982725
36.83217687
36.90846162
36.91886857
36.93002957
36.53142758
36.56963915
36.66465358
36.58721308
36.66221557
36.71535847
36.69734401
36.81592855
36.80196972
36.85702879
36.97694102
36.91576395
37.01036238
36.40204764
36.48170708
36.54258247
36.52110025
36.67712125
36.65793542
36.73608108
36.92671091
36.83285263
36.99143411
37.17033402
37.0105459
37.2197616
36.30353531
36.45915588
36.46885826
36.52882137
36.77192671
36.69376101
36.8651185
37.17662903
36.97430359
37.2841079
37.60635634
37.24867284
37.69869772
36.24903524
36.4916777
36.46345155
36.59128244
36.95562175
36.80973967
37.09906072
37.6077977
37.26394006
37.80305291
38.49054916
37.76128356
38.74093263
36.23077575
36.55615726
36.50526085
36.69107688
37.20203616
37.01074155
37.41371948
38.21831813
37.74644523
38.56511535
40.47925617
38.80302798
39.81348897
40.44000491
39.46601352
36.23121468
36.63482672
36.57153116
36.80630046
37.46420941
37.26329668
37.74258785
38.83944541
38.38152024
38.97026212
39.48867926
39.24082442
41.73850854
42.39098061
41.97130643
36.24391721
36.72431489
36.65682746
36.92957708
37.71322168
37.52869884
38.04326609
39.32778607
38.97431523
39.63462199
40.29457903
40.1242619
43.49774095
44.56189512
44.40140747
36.26547104
36.81950951
36.74774251
37.05522813
37.94377064
37.77247304
38.31285027
39.72201394
39.43203825
40.12332792
40.85247409
40.72464825
44.29751179
45.35782188
45.37548401
36.29327646
36.91755869
36.84442478
37.18111573
38.16287399
37.99990118
38.56580722
40.08867783
39.81312627
40.54759054
41.34028723
41.21545634
44.29854457
44.77068618
44.93183463
36.9435066
38.21757729
40.17983798
40.97492634
42.00014814
41.65534547
43.87661168
43.68332037
43.9161477
44.22483141
44.01682914
43.02045263
45.37411673
45.33719046
44.08822839
44.98086737
45.1153477
44.38029558
43.99008546
44.20217459
44.06476205
42.70714914
40.86396638
40.09440638
39.63887929
40.69002001
40.59141557
40.4489434
39.76851782
42.95262566
41.08763307
41.32198846
40.72343229
41.00498506
42.84588607
41.09818835
40.9752818
40.23069904
43.63266263
41.6773377
41.87854398
41.395045
41.60833163
43.57469093
45.28356132
45.34413573
44.34286082
46.2085524
46.17129144
46.06966055
46.66039841
46.59098405
46.86080797
41.58619176
41.44702378
40.64556238
43.76052242
42.18601449
42.34802857
41.94382008
42.12768409
43.76600102
44.52811009
44.71275888
44.2581814
42.97768415
44.10622478
43.95154173
44.97781448
44.83484016
44.29520331
42.395831
42.51065954
43.64555835
43.35170968
43.60292465
43.81541964
38.68063355
41.29453914
41.23816544
42.42423264
42.23680404
39.99781358
47.63653563
49.59578685
48.80347329
50.89033565
50.94529393
48.85151753
43.94838
44.42656049
43.85336329
48.25449687
47.70614754
46.53561377
47.41603418
45.84944287
45.82575683
45.86283747
45.85265207
47.51444092
43.9882004
45.30207101
44.92987799
48.25518192
48.4161398
48.85668366
46.3877384
46.87107171
47.41950629
49.12002437
50.55310123
50.82644165
49.00061065
49.42702673
48.67449172
44.87450186
45.24459758
45.11102789
45.96386553
45.85375805
45.74253837
44.38829757
45.15497476
45.25651935
45.47102034
44.98979812
45.12975716
43.07127264
43.21323799
43.97522618
46.84293765
45.75029341
46.22862749
45.27263728
45.41632941
45.80351247
40.92820712
42.78402959
42.60458812
43.79430116
43.63505123
42.14949229
44.11832963
44.26936639
44.46516723
41.45978893
40.16912754
40.31089542
37.30995682
37.45498543
39.31433763
43.60577645
42.78476863
42.93142883
40.45527412
40.59821906
41.86011559
41.16269382
43.2644933
35.87397031
33.70381724
33.80475269
38.89116565
37.04781088
37.17749617
33.96852066
34.27313489
36.50390874
39.93475554
39.72288416
39.1583547
41.7872713
40.25690151
40.62040298
39.67696936
40.12572273
41.56452956
43.16744283
42.79848519
42.05381594
44.87657902
43.44882746
44.10691623
42.53646117
43.21306703
44.42561654
44.85412119
44.69828887
43.62353141
48.03763351
45.65194274
45.84104237
45.31593478
45.57457615
48.05953113
47.21559819
44.88963437
45.22619243
44.28536085
44.76511083
47.01440429
42.8216043
43.77525042
43.49332206
46.23564977
46.9951505
45.86221566
55.86523665
53.89627964
51.06706192
41.31341498
42.25065278
41.73259179
42.0467831
41.21427246
44.1025368
42.46215676
42.01070467
41.67072222
41.42577881
38.8675908
43.15758576
42.51625705
42.67810957
42.2072799
42.3773471
43.04597937
50.38473051
49.80985516
47.92352585
53.38911557
53.94219598
56.57926183
48.63555119
50.89723189
50.54502093
45.85547316
45.10268913
44.48092343
47.53246278
46.0513082
47.08706134
44.41158732
45.01590217
46.71288014
54.66372286
52.33665098
52.83431141
49.35121313
49.93607723
51.67772449
46.08878399
47.18233772
46.52575633
47.73420132
48.25862395
48.09012067
47.49655425
47.03457207
47.54869825
50.09304678
50.44631835
49.08316224
48.79739322
49.56522494
49.96648506
44.17990868
44.31547655
44.91420291
44.5656289
43.90691264
44.0443389
46.27927635
46.39173165
46.57858254
46.3004685
46.05018139
46.16581874
39.28666955
39.44438932
40.78209435
40.28158222
38.82659226
39.07761532
41.6549792
41.85413435
42.92873014
42.52282218
41.32205869
41.47965421
42.04851635
36.27982331
36.41351943
38.19488019
37.75979512
36.01372365
36.16159106
43.16508792
43.61801278
44.40640303
44.2580654
43.09604808
44.69089439
44.59162101
44.70148519
44.36579024
44.47965568
44.60830297
45.00545203
45.0179879
45.11917568
44.80927404
44.91518676
44.92917659
44.1308738
44.69728092
44.55141501
43.59175848
43.10527299
43.24384351
42.8185366
42.96614924
43.48755019
39.86538219
42.05155068
41.84868265
45.49955707
45.37340441
45.05462573
45.28607059
45.40463689
45.49512641
45.21648741
45.31200377
45.2202462
40.5172967
42.10400803
41.94384733
42.41607721
42.25754091
40.66919949
44.09189336
43.35180451
43.49215863
43.13816098
42.96209198
41.07809664
43.98746225
43.63976907
43.76719774
43.37795745
43.51011917
43.89172895
44.35170773
44.13272844
44.25010094
43.89171269
44.01334308
44.26332452
42.03045916
43.47330397
43.30827462
39.88558717
40.02484962
41.32592895
38.54948997
38.41394354
36.18218072
39.46974513
37.62132669
37.83670091
42.46710012
42.63578982
43.48157858
39.8576446
41.45447586
41.23628496
41.79147498
41.62106833
40.00157586
36.52888004
38.8356284
38.69479534
39.12617035
38.98185812
36.65775206
41.99325406
40.74222034
40.88529856
36.79187502
36.92128748
38.75331607
36.84729849
34.81801009
35.42012055
49.73587871
47.85832195
46.82076045
46.69237972
48.24318774
50.25560085
52.77497992
50.66968125
54.489478
54.45844231
55.76284565
51.25807362
52.81184341
52.65558516
52.94079656
52.90973717
51.44230332
50.31524602
51.80957069
51.41002076
52.43748671
52.15638596
50.57355025
56.58368897
54.28435348
54.46255612
51.77290298
52.54055496
52.64274114
52.13872582
52.35781237
51.71740273
51.79903716
52.87680503
52.92533863
52.70727366
52.79833969
51.82720242
51.4675829
51.91846341
54.23699309
49.18657672
50.26421352
49.86301585
51.01479482
50.62688514
49.46300596
47.69550529
46.81658531
47.08597559
45.53122207
46.151566
47.40004445
48.52586154
47.91708048
48.13351185
47.44663567
47.64729333
48.32817176
45.70875466
43.82093967
44.04221055
43.39145476
43.60473006
45.51486793
46.53280021
44.75799986
45.0768125
44.26707879
44.50175229
46.31202107
50.69931479
50.76361185
50.99810533
50.28933337
50.52716899
50.5260905
51.35192008
51.6889845
51.91473326
51.23100815
51.46136485
51.19729535
49.26947649
48.85667258
49.09168621
48.38244667
48.61275263
49.0829533
49.99489835
49.80919944
50.04893951
49.33139613
49.56857579
49.81511835
44.95096622
42.9912217
43.18626084
42.59362524
42.78646901
44.76386816
40.92300569
39.60101559
39.74058414
38.13175274
38.49758639
40.06983927
38.00155657
40.29170852
39.99378147
40.97897832
40.64932124
38.64562624
43.05311194
42.0695727
42.28066402
41.02897977
41.17348228
42.39029048
37.03284376
39.42524074
39.2745865
39.767466
39.58629196
37.17462246
38.33347168
36.53567918
36.66652545
35.65580673
35.8857948
37.60616656
46.35666393
46.26695049
46.35049526
45.68786535
46.01544794
46.07023782
45.89178871
45.95607024
45.65111645
45.79399412
46.20926331
46.24825086
46.12079425
46.16702248
45.77340036
46.74240203
46.51835864
46.44036749
45.51632243
45.74681992
45.82185271
45.58306496
45.66702049
45.46374337
45.57695727
45.73958074
45.62137929
44.71819156
44.85334255
45.36298893
42.5257877
43.9813697
43.82042414
44.33158053
44.14974581
42.72592317
43.61651083
44.74077614
44.53138539
45.11705076
44.93959011
43.94444339
45.90608161
45.55478312
45.68688205
47.84705083
48.54316524
48.01659908
49.46758139
48.99945167
48.18368524
52.48353061
50.4816756
51.01819947
41.83176571
43.35229158
43.19705068
43.66311219
43.50723527
41.99866432
45.02451579
44.44968969
44.58419772
43.63039667
43.76969156
44.4515846
41.16884728
42.72957177
42.57162996
43.04195636
42.88549965
41.33265529
45.26132977
45.99208812
45.85488203
46.26321067
46.12864723
45.42658204
46.66433478
46.50216235
46.61178271
45.81218152
45.93269812
46.20862054
44.58542446
45.4286299
45.28122186
45.71476785
45.57476537
44.76745184
36.86453342
36.86521986
36.95486521
36.86638988
36.86847427
36.95555173
36.87033691
36.8737945
36.95761285
36.8787656
36.88562109
36.96139703
36.89474312
36.90639402
36.96811272
36.9205689
36.93660472
36.97799031
36.9537836
36.9703811
36.98854124
36.68452995
36.68512678
36.77413019
36.68644679
36.68860311
36.77633147
36.691666
36.6786012
36.80386723
36.76375982
36.76695462
36.80811239
36.78006669
36.78644074
36.8230676
36.81060591
36.82169466
36.85038348
36.85998721
36.87617292
36.89291944
36.92506251
36.94372843
36.94489698
36.50714493
36.50886017
36.59649647
36.51222695
36.51739777
36.60217916
36.52426461
36.52297252
36.63787909
36.60447182
36.61179453
36.6488689
36.642971
36.65730282
36.68640855
36.7143519
36.73968223
36.75332363
36.83306772
36.86607703
36.85974828
36.95761733
36.98314438
36.96522973
36.33234484
36.33605844
36.42143528
36.34258889
36.3526358
36.43407768
36.36648683
36.38469079
36.48618258
36.46405912
36.47899995
36.50954861
36.54474733
36.57655866
36.58980551
36.70539445
36.75450644
36.7417878
36.90801372
36.95887148
36.92461101
37.09406716
37.13292563
37.08028297
36.16278896
36.16968218
36.25175557
36.18139669
36.19906139
36.2741598
36.22609266
36.27159268
36.35281214
36.3472222
36.37677274
36.39840208
36.51667236
36.57831802
36.57226707
36.79010311
36.86786019
36.82940573
37.11439481
37.19596875
37.1186774
37.41377022
37.47077925
37.35947141
35.99851658
36.01004198
36.08856006
36.02969822
36.05945384
36.12741772
36.10460376
36.19223096
36.24820899
36.27112268
36.32684721
36.33391071
36.5547118
36.64587506
36.62273832
36.9695471
37.09430289
37.02582567
37.5105426
37.66080205
37.51596292
38.11506885
38.24986811
38.00250841
35.84069091
35.85836911
35.93256828
35.88851649
35.93472619
35.9949765
36.00443804
36.14624829
36.17772518
36.23683647
36.32190117
36.32019038
36.63742163
36.76728314
36.73150687
37.24789388
37.44381165
37.3473908
38.1624231
38.45937406
38.22304494
35.69142555
35.71741443
35.78592306
35.76087396
35.8271952
35.87869081
35.92630433
36.12332841
36.13787233
36.22914539
36.33941592
36.33232867
36.74759222
36.92067622
36.87716121
37.58037416
37.85931581
37.75173142
35.55088124
35.5879521
35.65045649
35.64698272
35.73607604
35.77938288
35.86675768
36.11535015
36.12033123
36.23649056
36.36741982
36.35945043
36.86771303
37.08064437
37.04046874
37.89774367
38.24550838
38.15451874
35.41967351
35.47038221
35.52643198
35.54662417
35.65976183
35.69549935
35.82173328
36.11815156
36.11537886
36.25380122
36.40514365
36.3947579
36.99246705
37.24045534
37.20063073
38.181324
38.57627205
38.49771851
35.29913547
35.36416949
35.41351524
35.45874237
35.59607865
35.62464579
35.78765842
36.12750757
36.11984232
36.27845911
36.45029229
36.43903868
37.11753112
37.39638286
37.35888467
38.44008919
38.87180003
38.79999358
35.31024526
35.56350516
36.1307112
36.30621166
36.49962831
36.49017991
37.24325628
37.55089474
37.51405227
38.69065976
39.15785168
39.08660472
41.48743319
41.06077883
40.72525748
39.90573228
40.18027878
43.16249002
42.40383325
42.49588915
41.76842175
41.89143414
42.60897914
43.71548593
43.02813173
43.08403907
42.58346011
42.66877266
43.43329711
43.73896581
43.30987683
43.32658156
43.13243384
43.17574385
43.76625274
42.74160052
43.35408436
43.25087588
43.3401354
43.35131426
43.68975292
38.24845645
39.61014435
39.47339058
41.38399393
41.26663058
40.26084656
47.20451653
46.79161556
46.72669464
47.12484649
47.08047649
47.69605677
47.13649319
47.23938963
47.25661061
47.00892585
46.93000362
47.03371224
40.65197079
41.61280702
41.49634587
43.15219544
43.04784754
42.38678949
39.33636001
39.20128754
37.73239186
43.65072696
42.16879683
41.49344045
41.63767364
40.37655699
40.58389678
41.0497341
45.64783234
44.94766128
45.22614126
42.86767507
43.2196898
43.49557137
47.92929869
47.19280777
47.16292848
46.86123496
46.98348661
48.00064839
47.57124653
46.59518724
46.73258588
45.47747239
45.71128886
46.54591742
43.32290708
42.87849314
42.65933577
40.43073004
40.30293385
39.18042299
49.25122559
48.16097525
48.78257721
44.67798218
45.12465105
45.38335194
47.94341094
48.03190355
47.91258782
47.65846871
47.74633988
47.84642226
45.3270297
44.55005812
44.36913681
43.93916236
43.84376753
43.3385644
43.7568117
44.09321294
44.02547668
39.59648918
40.67573374
40.54818201
42.31529954
42.19829253
41.38365257
41.78685241
42.53320739
42.42284518
36.68721098
36.72659581
36.72245191
36.73694183
36.7310368
36.69283349
36.81111294
36.77049551
36.77509873
36.71784133
36.75127765
36.74313873
36.77053353
36.75965187
36.72841716
36.82885566
36.79318411
36.80174496
36.77229881
36.79546759
36.78146678
36.82661149
36.80919392
36.78980579
36.86011338
36.83285488
36.84656987
36.85846943
36.8635786
36.84322378
36.90622057
36.88278769
36.88276958
36.90627962
36.89124384
36.90881992
36.9527702
36.94589359
36.9254488
36.96218011
36.97131678
36.9585348
36.95857488
36.54197909
36.57608031
36.56716201
36.59920016
36.58658766
36.55458699
36.65590982
36.62043201
36.63095418
36.60821841
36.63098625
36.61375674
36.67465685
36.65091824
36.63298433
36.69954243
36.67343006
36.69266551
36.73549013
36.73438941
36.70161246
36.80544734
36.76916243
36.774671
36.77537266
36.76868019
36.80135324
36.89841103
36.87902015
36.84175719
36.94988526
36.91492737
36.93847162
36.88716426
36.89798047
36.92956869
37.03899729
37.00680706
36.98041915
37.02870524
37.06408973
36.98480378
37.00341645
36.423398
36.45042755
36.43251797
36.49806264
36.4718469
36.44955289
36.52461893
36.49690952
36.51850544
36.56919825
36.56963305
36.53021627
36.66533643
36.61600316
36.62109701
36.62044297
36.61535323
36.65918474
36.7978589
36.77304151
36.71800878
36.88756866
36.82978032
36.86172161
36.78682112
36.80501371
36.85655717
37.05487553
37.00156202
36.94518063
37.10404789
37.05482374
37.11507351
36.96871959
37.0073705
37.05235514
37.26710208
37.19407342
37.15006817
37.23019077
37.31384438
37.10760491
37.1652605
36.34469758
36.35895302
36.32391821
36.45782565
36.40298827
36.39621536
36.42979711
36.41389802
36.46013981
36.60374274
36.58878715
36.52029323
36.74089257
36.66210104
36.68459796
36.63155889
36.6450031
36.71566687
36.96460794
36.91399293
36.82544733
37.09834602
37.00503759
37.0694602
36.90120829
36.94898096
37.03182667
37.39291221
37.28658161
37.19330095
37.45985318
37.37549134
37.50161707
37.1859227
37.27478277
37.34868138
37.78067364
37.61651493
37.54228196
37.66833059
37.8633864
37.40275431
37.52667572
36.3194885
36.32123023
36.25856664
36.48163272
36.39696066
36.40178653
36.39393337
36.39484413
36.47133579
36.70208544
36.67149261
36.5720546
36.90155362
36.78123489
36.8235027
36.71244172
36.74547221
36.85356029
37.25632242
37.1716229
37.03175204
37.47966096
37.32069804
37.42632334
37.14278059
37.22715249
37.36648851
38.01250862
37.82352042
37.64752356
38.18911597
38.00453198
38.24204178
37.64015433
37.81507678
37.97209608
39.00183557
38.59591884
38.39472668
38.74767625
39.39370771
38.0832584
38.38954171
36.32917263
36.3245842
36.23291042
36.53732754
36.42613855
36.43667528
36.40901909
36.4175278
36.5212211
36.842708
36.80297535
36.66254376
37.13383692
36.95960084
37.01240466
36.8634886
36.91162878
37.07149485
37.65068253
37.54263407
37.32723927
38.05278789
37.78335897
37.91706944
37.53829048
37.66028294
37.89781999
38.98453971
38.71133879
38.36041733
39.62824486
39.11512055
39.5058208
38.49151944
38.81087546
39.22357989
40.11453544
39.97660506
40.26733883
36.35184986
36.34484701
36.22946498
36.61335536
36.47033127
36.48390129
36.44483366
36.45876209
36.59409405
36.9999283
36.95919166
36.77579601
37.39842138
37.16572742
37.21813468
37.05907803
37.11525829
37.33399791
38.05914343
37.95997119
37.66132708
38.6953465
38.30143354
38.42146908
38.04557728
38.17721936
38.54298712
36.38500191
36.37598028
36.23995251
36.70155738
36.52772141
36.54315367
36.4981431
36.51264417
36.67894584
37.16066227
37.12093221
36.89872347
37.65322607
37.37117372
37.42060821
37.26983403
37.32066466
37.5914801
38.41668724
38.33299773
37.97182665
39.2174919
38.74475738
38.8413381
38.53542105
38.64286683
39.10002219
36.42707964
36.41598722
36.25939925
36.79567452
36.59317741
36.61030942
36.55933468
36.57605024
36.77155575
37.31904351
37.28021998
37.02415137
37.88800932
37.56692056
37.61398175
37.46987124
37.51859826
37.83067933
38.72675415
38.65253621
38.24800488
39.62786324
39.10883526
39.19267946
38.93378689
39.0229113
39.53210856
45.36820283
44.94834615
44.95097382
44.92953359
44.93884758
45.37334353
36.47560008
36.46429154
36.28680872
36.89448851
36.66550318
36.68244054
36.62843059
36.64537065
36.86768096
37.47445612
37.43747799
37.15135034
38.10982758
37.75575506
37.80049711
37.66182347
37.70721247
38.05368884
39.01477018
38.94371128
38.50399713
39.99502254
39.43651807
39.51767621
39.27469393
39.35615883
39.9056305
44.82684924
44.64681573
44.60575997
44.71883716
44.68153856
44.8803328
36.70215444
36.7186498
36.96613651
37.84746526
37.89215605
38.2707081
39.59905372
39.681086
40.27431991
43.76346271
43.87961303
43.81884913
43.99207234
43.93837698
43.84106738
45.02805499
44.7829093
44.74976075
44.83830596
44.80953003
45.07281321
44.06244283
44.09920804
44.04428645
44.20190598
44.14847912
44.13289861
41.73412793
41.49142768
41.97240244
40.65224288
41.02935788
41.28475003
40.39206271
40.65420458
40.29460096
39.9746707
40.0380541
39.76410092
40.7710713
40.45097755
40.26948236
40.59276489
40.96219823
42.21246992
42.31036481
43.05907598
41.85992996
41.77664931
41.24590515
42.72938522
42.00405534
42.11189552
42.89853677
42.96687594
43.68029427
41.74522698
42.31536212
42.24452547
42.44991377
42.38448281
41.81283765
41.46752808
42.01914647
41.94027263
42.17109489
42.09605357
41.53825913
43.50792894
42.74907436
42.82650289
45.30698303
44.94417074
44.9330479
44.95239403
44.9492758
45.32718875
43.26882362
43.29134341
43.75109488
42.23860364
42.77137716
42.72781986
42.85246569
42.8136581
42.29577186
42.00578001
42.57163969
42.51315442
42.67901164
42.62793941
42.06889579
43.76801313
43.2119687
43.24304368
44.59128352
44.48369427
44.43698922
44.56785625
44.52394688
44.65254479
43.55381649
43.45181312
42.85929593
42.44268257
42.92227241
42.8891317
42.98005544
42.95233956
42.47143494
43.66782516
43.36103825
43.3686242
43.43637807
43.6445929
43.5848844
43.76377389
43.70007021
43.51920468
39.89575891
39.73215438
38.46670331
40.62461955
40.81102826
41.27870276
40.13024729
41.15260129
41.03181977
49.35088442
48.63789473
48.80742798
48.34219814
48.48603551
49.09440176
50.93359415
50.16155688
50.15783291
50.06659601
50.13143845
50.94898985
46.91610222
46.85502807
47.31214329
45.84530642
46.3515483
46.3826299
46.28462056
46.31890701
45.83693966
45.86687346
46.46763737
46.48496077
46.41282859
46.44164592
45.85635962
47.60334695
47.02929799
46.97443676
48.56383899
48.5463347
48.42583306
48.77319114
48.65439907
48.71147726
46.54778008
47.04621531
46.91735756
47.30400096
47.1750843
46.70893626
47.3346604
47.3412236
47.44362931
50.65441032
50.04735431
49.97998867
50.14006217
50.0961413
50.74630652
49.14420995
48.99358605
48.87861557
49.20415214
49.09523696
49.28559305
45.19205521
44.88495643
44.86042211
44.92139037
44.90304283
45.22593167
46.71969221
46.82522166
46.926563
45.91032156
46.52826685
46.39664403
46.78836415
46.65893523
46.07010969
41.84467842
41.72619579
40.78676714
42.26870754
42.94859968
42.84323919
44.3360211
44.30063133
44.24847871
44.39458657
44.34472104
44.40064305
41.07206141
40.32193188
40.46563303
43.52196148
41.16941569
41.33881429
41.98867994
41.31852576
40.79181139
40.98800683
44.32497158
44.65052124
45.28080053
43.68627046
44.06917336
43.76680437
44.59765132
44.33681329
43.8954111
43.45299598
43.09416712
42.93371762
43.93963976
43.60653315
43.97767617
47.20605654
47.20681611
47.98974916
45.72765347
46.45426617
46.39897316
46.49150785
46.48434503
45.79468993
45.40779998
46.12915583
46.02675552
46.31820166
46.22545784
45.48912881
48.06055666
47.09383944
47.16806669
46.28842513
46.45071512
47.39973877
45.01543397
45.6842276
45.54202414
45.923085
45.80556539
45.12008689
44.46457156
45.03671814
44.82194812
45.39439923
45.21900262
44.61433067
46.79160851
45.92039565
46.11532521
41.59093084
41.86715889
41.77264778
41.68039032
41.91263795
43.43783643
43.22797443
43.61509313
42.34511658
42.63450194
42.88220007
42.31082304
42.4780733
42.11594121
39.03506085
40.17617377
40.02913751
50.20255515
49.26450578
49.42071182
48.95732289
49.12044933
50.01765598
50.81595405
49.83580057
49.96181593
49.55844592
49.70585931
50.69541059
46.82584445
47.53982807
48.47989827
47.51379425
46.92655407
46.64650363
45.98313983
45.64205667
46.19513306
47.92066693
48.06574304
47.9439421
48.31076474
48.18384487
48.09604817
47.54468366
47.64647918
47.58164883
47.20051002
47.56134456
47.43270096
47.81771001
47.68965963
47.37092675
50.21635443