/*--------------------------------*- C++ -*----------------------------------*\
| =========                 |                                                 |
| \\      /  F ield         | OpenFOAM: The Open Source CFD Toolbox           |
|  \\    /   O peration     | Version:  v2012                                 |
|   \\  /    A nd           | Website:  www.openfoam.com                      |
|    \\/     M anipulation  |                                                 |
\*---------------------------------------------------------------------------*/
FoamFile
{
    version     2.0;
    format      ascii;
    class       volScalarField;
    location    "3.21";
    object      p;
}
// * * * * * * * * * * * * * * * * * * * * * * * * * * * * * * * * * * * * * //

dimensions      [0 2 -2 0 0 0 0];


internalField   nonuniform List<scalar> 
3019
(
863.7873832
862.590044
859.7171153
853.8810159
845.7329079
828.553179
800.713552
756.6584889
691.0362729
597.3909102
471.101108
312.3425868
864.540698
863.7317847
861.6373667
857.1956015
849.0888953
834.3662239
809.635138
773.9016367
714.7789783
627.7808742
506.3258942
347.8664871
866.3112666
866.3596496
866.0807847
864.6893012
858.8617524
849.7399956
832.4981832
801.6202348
751.9425626
673.0008907
551.3350222
379.1228956
868.4134854
869.6742727
871.9874896
874.6985139
873.3137829
872.0676852
866.3571993
846.603427
814.2646679
749.2402119
629.777269
436.0098965
869.5889377
872.2371186
877.5583226
885.0936196
889.201138
898.2322551
907.1598945
905.6094708
898.5519279
863.3503145
767.0050762
552.2015453
868.4686057
872.5037168
880.8185234
893.5477496
903.474391
923.9800093
949.635955
969.9427902
1000.822866
1024.409386
1003.336282
817.1083427
863.7347498
868.9894732
879.8449832
897.1036129
913.7473223
944.3380449
985.8934404
1029.054446
1102.621383
1206.48255
1350.436121
1464.434518
854.2440163
860.3854125
873.065483
893.4948523
916.0380849
954.2172305
1007.112826
1069.856771
1176.640472
1343.397709
1630.029399
2201.064914
839.1299029
845.7073027
859.2650867
881.1896544
908.1159066
950.0878997
1008.190504
1082.022447
1201.324983
1375.827434
1628.456357
1941.029914
817.9218003
824.4374139
837.8242163
859.4105219
888.8380707
930.4992119
987.4551168
1062.433953
1174.380932
1324.196105
1502.110555
1665.659231
790.6058026
796.597757
808.8276536
828.3071422
858.4724774
896.1926521
946.8116654
1016.024699
1111.198977
1229.501709
1357.915338
1474.241426
757.5915883
762.6757505
773.029654
788.6528155
818.8319557
849.3397135
889.9669199
948.7331261
1022.842785
1110.815611
1206.519559
1317.838477
1987.80117
1693.565033
1495.025714
1338.04238
2155.227299
1536.962804
1675.640848
1902.490997
1394.333616
1482.969011
1648.826183
1587.315594
1625.090377
1726.780709
1245.782944
1323.061708
1462.045227
1415.281266
1459.020262
1521.183029
1302.610808
1243.602391
1310.432171
1385.164251
2478.692522
2072.512702
2949.087318
2558.657897
1740.539982
1841.379388
1785.593003
1846.140228
1744.664555
2035.236266
1863.041742
1531.237849
1611.543365
1562.829795
1619.355117
1533.183052
1737.431513
1626.751676
1390.248224
1455.298094
1396.221412
1459.190261
1395.089451
1527.90545
1462.674689
1305.075995
1231.508365
1311.010108
1389.881708
1316.425965
1648.553485
1941.580839
2083.074601
2175.395737
2508.78294
2799.813238
1820.117504
1858.771665
2034.82797
2071.020192
2440.576707
2134.185519
2188.690238
3829.288956
3363.789197
2062.109266
2900.73675
1345.695564
1312.503626
1279.855948
2529.662648
2224.828446
2269.450476
2233.05419
2549.797722
2031.266285
2199.499538
2212.10344
2880.243681
3297.265945
3676.836246
2613.631575
3201.654968
2807.747759
3248.054299
2605.808427
1797.11708
1859.954098
1790.111909
1945.995884
1927.031863
2018.243854
1864.758557
1917.491164
1922.195313
1575.767973
1569.650364
1686.295414
1678.247758
1430.272429
1425.719667
1494.276447
1489.974113
1268.317558
1354.688356
1350.347836
2764.70253
3771.977195
1487.073205
1464.083315
1436.939539
1502.737188
1473.443092
1491.679888
1353.265796
1322.88527
1350.296352
1562.899782
1545.070451
1512.940905
1541.183295
1554.935942
1548.021968
1421.65746
1391.687591
1363.123428
1428.035505
1400.969405
1426.169093
1448.131566
1463.398568
1470.942776
1409.297299
1429.214375
1409.717921
1513.116546
1519.945944
1536.10645
1473.066976
1481.453051
1473.544591
1373.806543
1383.397621
1404.635602
1351.567504
1331.145451
2113.983495
2090.624533
3770.81333
3691.892844
2377.374895
2334.954489
2345.454354
2366.200764
2255.731012
2548.771637
2407.873615
2389.814166
2095.509944
2115.415627
2053.039567
2223.294314
2139.452132
2119.951551
2837.137256
2776.296655
2605.907741
2941.410666
2844.455879
1827.995998
1826.540148
1808.502635
1856.444948
1833.874777
1837.080651
1782.792012
1766.740787
1803.933538
1787.91991
1960.609841
1974.623313
1937.888889
2035.584469
1988.487648
1972.689201
1888.292952
1889.302357
1864.042188
1927.060824
1898.326343
1897.659783
1601.34997
1584.000137
1628.559026
1606.412442
1556.760858
1544.092442
1577.411875
1560.809065
1727.949359
1702.214148
1760.451596
1736.488769
1659.258884
1635.149656
1693.629755
1667.978196
1441.855344
1458.900469
1443.969807
1464.854119
1444.793795
1474.396335
1469.874687
1440.625835
1413.395514
1430.604139
1437.244072
1503.076441
1514.764198
1507.967804
1518.17878
1506.088494
1538.908665
1522.659007
1482.871474
1475.687769
1498.974432
1486.09343
1477.43219
1484.883319
1498.012939
1365.623978
1377.702416
1368.645208
1336.390274
1357.315838
1363.14221
1668.407251
1643.994741
1604.553147
1699.44059
1657.68383
1683.241267
1592.001651
1556.342199
1574.312349
1599.929699
1605.469085
1626.640819
1633.539463
1656.78028
1647.992937
2157.479809
2471.565862
2540.808149
2261.065767
2268.390317
2277.827827
2242.629828
2045.152585
2058.754054
2041.139178
2209.75507
2179.646957
2169.323055
3028.432415
2840.833321
2924.664975
3138.364781
3150.907205
3295.133568
2603.02688
2668.756113
2676.607146
1814.684671
1812.738189
1813.849528
1858.416804
1851.591747
1853.551489
1784.611159
1780.9469
1811.119547
1805.048472
1938.955129
1942.567879
1931.326108
2024.89947
2008.936455
2003.346259
1869.982538
1871.148691
1864.535356
1921.325432
1913.1149
1911.113231
1582.039501
1599.631404
1593.259934
1553.525335
1559.540129
1575.943318
1698.306857
1723.087897
1708.55257
1718.411402
1709.255569
1776.12121
1767.83227
1644.307058
1700.187516
1691.204024
1655.949009
1665.08951
1689.990588
1466.470154
1461.254961
1457.746128
1414.397468
1410.449368
1404.974259
1421.5976
1416.605509
1421.545456
1319.354647
1313.014671
1390.454659
1387.377873
1381.085296
1399.795693
1393.92961
1398.21387
1331.242448
1327.600658
1343.856515
1327.404124
1335.076825
2134.345067
2063.657257
4210.154398
4110.291573
3606.409096
3466.095894
3957.989236
3764.239579
3897.878696
2423.117642
2296.435129
2103.205549
2078.919365
2065.034827
2143.506901
2152.577744
2127.595177
2934.338207
3031.851422
3041.391679
3328.173025
3199.012225
2754.476718
2745.951129
2836.649423
1827.985763
1821.384877
1821.49847
1845.840575
1844.012947
1836.030003
1791.472133
1787.944216
1799.499516
1795.231422
1965.647388
1953.936162
1950.051032
1987.314144
1993.200329
1978.593523
1888.3902
1879.26718
1878.101757
1905.052225
1905.515448
1897.302549
1596.141628
1598.128068
1602.402589
1585.880124
1592.644483
1590.347352
1620.272693
1619.114343
1629.298664
1605.964208
1610.910954
1612.487853
1552.882054
1555.22141
1558.260044
1547.285332
1551.645295
1548.718042
1571.140389
1571.620847
1578.516064
1561.406532
1565.747404
1565.56549
1736.994274
1727.742891
1719.424236
1723.854831
1732.683692
1706.009399
1714.918829
1710.828889
1756.763916
1746.298458
1664.927893
1656.968743
1650.726332
1653.814658
1662.119482
1636.389244
1638.80086
1641.265738
1685.072143
1688.3863
1697.170054
1671.021517
1679.682188
1676.534318
1682.435968
1673.752681
1446.947331
1443.114795
1438.082085
1453.468694
1448.420159
1452.98106
1457.263373
1450.070863
1473.341819
1472.013125
1437.949325
1428.719442
1423.441617
1423.477938
1422.84009
1433.202843
1428.989609
1434.132616
1506.174423
1510.735629
1521.314273
1509.251278
1533.377215
1535.843131
1541.816019
1525.514681
1530.459329
1528.018355
1479.902936
1477.47113
1493.229662
1489.367309
1369.007868
1366.582989
1362.770703
1375.60254
1370.836927
1373.018869
1360.077896
1353.387051
1349.0711
1359.438834
1356.467513
1361.574564
792.8351309
755.8194358
732.5299711
740.0937732
682.3213036
653.2287573
658.3854232
572.3080918
540.6279834
537.3198904
415.890502
390.7673891
369.3462976
833.901984
808.0411697
766.786679
796.4542021
748.6747473
696.2421775
727.1668809
642.0874935
586.7076412
605.9226995
471.6220455
426.9099669
418.1519145
889.9514502
881.0478369
824.5493907
875.4257334
846.0712609
769.7661344
830.654744
759.5559722
665.9995532
725.1715913
579.141626
491.9666869
514.1688926
953.9824316
970.0089515
902.2340499
974.5121456
981.6035953
876.1747624
980.0596013
953.1924029
799.6001314
932.5686301
803.607399
620.46895
727.9405603
1015.438532
1061.08063
993.2095072
1078.598032
1139.067985
1020.372813
1162.003303
1235.732813
1016.851993
1258.60838
1280.486627
892.4534103
1245.766122
1062.137465
1133.354723
1081.790761
1162.40133
1271.746658
1177.043849
1317.88869
1501.389965
1311.104977
1584.513612
2044.502409
1453.795222
1761.776363
1821.923321
1301.855324
1081.66851
1165.44209
1145.630856
1199.461694
1325.682519
1293.827573
1377.426593
1570.15666
1540.604355
1653.804987
1760.374399
1735.780089
2216.25316
2350.676289
2341.246376
1070.004077
1152.3885
1167.23582
1184.83598
1298.799048
1325.683263
1342.345121
1486.540627
1557.612877
1601.575762
1667.723805
1704.783866
1897.528233
1924.678027
1974.367423
1029.843072
1102.151891
1142.950746
1129.744892
1222.291225
1283.255646
1255.84228
1360.067969
1456.843274
1466.525051
1506.280346
1546.498715
1638.735626
1650.270805
1691.933173
967.1794625
1025.208128
1085.038896
1046.818526
1117.347211
1198.212733
1142.332173
1219.623075
1326.144571
1321.169172
1350.347627
1388.842166
1454.119209
1466.570123
1495.985098
1002.813399
1087.861777
1182.065392
1165.87296
1185.251081
1231.850846
1297.075893
1313.807883
1344.435692
2029.753464
2090.456307
2036.998003
1706.16145
1750.60794
1722.846362
1506.204352
1538.263761
1516.65548
1354.373695
1383.249953
1357.770602
2758.1832
2041.813269
1873.800982
1210.62599
1781.765228
1587.122326
1627.84207
1570.478639
1762.943272
1681.362428
1613.355298
1775.278207
1708.028533
1795.014262
1427.500861
1466.603527
1430.542407
1549.667138
1502.067604
1441.769579
1588.881005
1524.770115
1573.328337
1597.445931
1636.63012
1612.618608
1639.170549
1632.449725
1618.882948
1717.228833
1703.187268
1712.600172
1272.312914
1311.657942
1283.885441
1382.36789
1341.63204
1282.924254
1420.444162
1362.479247
1401.90458
1429.403804
1457.089029
1434.520358
1470.422123
1460.11328
1451.815742
1515.386805
1505.463412
1511.244853
1261.391786
1197.036131
1237.659437
1270.190633
1303.292722
1275.589225
1326.079599
1310.784334
1294.479867
1371.210058
1361.196066
1369.646731
2402.570141
2404.850599
2537.975796
2056.677219
2119.867354
2114.197057
2959.928736
3131.192306
3124.607001
2600.436673
2702.858165
2642.236343
1781.14004
1757.45984
1713.607345
1823.728337
1772.835362
1794.995264
1753.478175
1766.568603
1803.488952
1830.312904
1832.329641
1855.244493
1760.52468
1777.981775
1763.888592
2002.146444
1990.964218
2038.871884
1863.162923
1889.091841
1881.180603
1541.429147
1535.852958
1525.510301
1605.709431
1592.980598
1598.552407
1539.261621
1549.477442
1584.883803
1613.032846
1615.122387
1621.994338
1535.724923
1540.69703
1537.932209
1716.380966
1731.244545
1754.018763
1628.978265
1636.192641
1633.357958
1404.567748
1390.55105
1381.058837
1443.597914
1435.281536
1443.728895
1377.124064
1392.677102
1420.258974
1455.666583
1459.898899
1463.114699
1400.141151
1405.666576
1400.332382
1523.126952
1525.610508
1530.7173
1466.287056
1469.529443
1466.19362
1288.719412
1258.644448
1304.949106
1309.933891
1316.180783
1384.597454
1389.250466
1394.792233
1322.27617
1325.531687
1320.690911
1736.323351
1757.449613
1658.399229
2054.666398
1845.798393
1800.112838
1819.855257
1855.445584
2082.125849
2280.491689
2329.284132
2205.107178
2706.312558
2442.936939
2348.354387
2521.509617
2462.599633
2759.259123
1840.09267
1880.189121
1857.312654
1920.454303
1905.327827
1844.269966
2009.763278
1930.774692
1945.008053
2203.536067
2144.895111
2042.031451
2304.79643
2185.852671
2256.639642
2086.815854
2154.700337
2219.318085
3842.113785
4030.243861
4003.005109
3431.999596
3567.6077
3481.278106
1766.05872
2435.072247
2434.081911
2503.777714
1863.098106
3509.35196
2760.698544
2569.201676
1331.364746
1321.247044
1331.257618
1301.938849
1311.466475
1321.856449
1289.657637
1300.735571
1291.074541
2258.272938
2364.762553
2332.654048
2557.648359
2500.850916
2492.83637
2160.480271
2143.69736
2227.037234
3010.673509
3087.113212
2934.178538
3566.635443
3268.135832
3085.329866
3335.472974
3337.947112
3627.48058
2682.154859
2681.297564
2617.404906
3144.204808
3063.774498
3109.347709
2726.591643
2810.650192
2917.185429
1805.878429
1825.031059
1815.40281
1770.747881
1783.576553
1800.481284
1939.375573
1977.087244
1972.567911
1900.782922
1898.30862
1928.396793
1577.813332
1583.700252
1581.252038
1564.369257
1566.354233
1572.023108
1690.175265
1698.004849
1693.472474
1671.076828
1674.509877
1682.356092
1434.235664
1439.059297
1434.904668
1421.408767
1425.272561
1429.537062
1497.270748
1501.387306
1498.855663
1485.721903
1488.51399
1492.977783
1278.435679
1358.86491
1363.043769
1359.13621
1345.987614
1351.065189
1354.923649
3118.438781
3359.460497
1477.545992
1468.674906
1474.424265
1454.916831
1461.884652
1470.885528
1444.415222
1453.069956
1445.870238
1492.765027
1499.261501
1509.201516
1480.104003
1489.543892
1482.991688
1501.611904
1495.781168
1486.457796
1343.263434
1352.216587
1362.18979
1332.054193
1342.153098
1333.123557
1364.583999
1351.184204
1341.270597
1557.527969
1546.509066
1551.936548
1534.087107
1540.475012
1551.490452
1519.369422
1529.769933
1523.36889
1545.960553
1543.31723
1538.433725
1552.844989
1548.084733
1550.49874
1543.230472
1545.598596
1550.561954
1408.790091
1399.715809
1408.750415
1382.310774
1390.95446
1400.199418
1372.00829
1381.580768
1372.789747
1419.124018
1427.153636
1435.805686
1409.353724
1418.344767
1410.105903
1439.544269
1426.705232
1417.832863
1452.762407
1456.494518
1452.007077
1467.035603
1464.270722
1468.856076
1405.379092
1411.161489
1415.456324
1515.431851
1520.519374
1517.834647
1525.438968
1522.983737
1517.725539
1533.394205
1528.215293
1530.801335
1475.463548
1472.648831
1469.77163
1479.150458
1475.770902
1478.266847
1469.808573
1472.921298
1476.482551
1377.691276
1383.426651
1379.188652
1325.427241
1328.173163
1336.310824
3922.455537
4001.704082
3821.685914
4207.311238
4243.137802
3593.25569
3694.004783
3814.475275
2355.658607
2315.351785
2305.391123
2327.027136
2322.753221
2363.056254
2250.121917
2285.218917
2290.348888
2497.714064
2501.750085
2555.508022
2406.347414
2452.553461
2451.681292
2439.132661
2447.60816
2399.433397
2092.824967
2087.62583
2110.17804
2047.941198
2066.739823
2071.997347
2193.059298
2187.07035
2217.36414
2133.963393
2159.400954
2165.266575
2823.365958
2749.95942
2756.728427
2718.822441
2735.154029
2802.144679
2612.205712
2672.04527
2657.716307
1819.749239
1820.612049
1827.515679
1810.758029
1814.071999
1813.526438
1848.933365
1850.297306
1857.529586
1835.112071
1842.772432
1841.386177
1777.67593
1782.975189
1787.392483
1773.542936
1778.462844
1772.392201
1798.788084
1802.267574
1807.402566
1791.878004
1796.763641
1793.268195
1961.661429
1958.506922
1970.983061
1935.399132
1946.685644
1949.457511
2019.068234
2014.630102
2030.809646
1984.473417
1999.098458
2003.3468
1880.448529
1880.299445
1889.082564
1864.628023
1872.075406
1871.984908
1916.992077
1915.558864
1924.953722
1897.984184
1906.758235
1907.511011
1753.220211
1760.170781
1767.718174
1741.600611
1750.988416
1745.055303
1439.526816
1443.936388
1448.576327
1418.121431
1421.118608
1417.227895
1505.831415
1503.824677
1500.276376
1512.73159
1507.717307
1508.189409
1503.513476
1505.780995
1510.556392
1480.227319
1484.214012
1481.499677
1488.520102
1486.651494
1482.755197
1495.86391
1491.051872
1492.767347
1363.767006
1367.525547
1372.376552
1341.916545
1346.942633
1341.41883
1660.476636
1646.348651
1653.667789
1630.550291
1638.52526
1652.201441
1611.945412
1625.080338
1617.365524
1685.428358
1693.93438
1707.92148
1666.034927
1679.949941
1671.48556
1698.027232
1688.990504
1674.725598
1579.78269
1586.625627
1599.101988
1562.841872
1574.531602
1567.88026
1586.161063
1580.722924
1568.926377
1601.877788
1608.380501
1605.948852
1611.978396
1610.434147
1603.89694
1624.369487
1617.359895
1619.267688
1640.674824
1638.673933
1631.367166
1654.120658
1646.333861
1648.703044
1641.097528
1643.629804
1651.213604
2970.421529
3014.140162
3083.573177
2871.622291
2943.562023
2903.015589
3017.068245
2982.449181
2901.250114
1588.086738
1585.961695
1580.027577
1597.782003
1591.864737
1593.943878
1587.584115
1589.628047
1595.662048
1555.621055
1560.88965
1558.531079
1564.556396
1562.91644
1557.745282
1574.133991
1568.393343
1570.049711
1706.614032
1702.322525
1694.280159
1718.246687
1710.31945
1714.884095
1701.443665
1705.754209
1713.475983
1658.920559
1666.704842
1663.035125
1673.38128
1670.105294
1662.089715
1686.216683
1678.155439
1681.683018
830.1615891
818.32443
816.315938
803.1922076
783.6655933
780.951477
759.8125374
730.5936156
726.9628243
695.1331366
652.5801199
648.0774795
602.1913264
543.3992939
538.4695592
475.9136349
399.8960264
395.4906691
315.9284274
225.1049259
222.7301098
853.2039049
848.100262
842.7085261
841.0516647
831.7574732
823.5250756
819.548368
802.6735262
785.7924753
778.960831
766.8308477
761.9262309
721.5866888
703.032337
696.6146259
635.8579371
608.9246878
601.4711574
514.6167131
477.8113944
470.3422344
353.8572318
307.2874721
302.2241061
865.7153015
863.6061527
855.1042315
860.1860639
855.2060202
842.4021455
848.2360456
840.1573262
810.6939924
811.3743551
802.0262576
791.46405
765.238004
749.6397476
735.4887821
689.289972
663.7843712
647.3569641
567.0956987
528.1284197
513.1234009
390.1951425
337.9979532
329.0222539
881.4304077
883.2363736
873.0448419
884.92988
885.9755351
869.9076018
886.2121529
891.3132433
851.7090713
860.1819742
855.3683735
840.4775781
833.3648509
822.389729
801.9402404
773.7331321
751.0360142
725.3691254
657.2113643
615.8939466
588.8445839
457.3325226
393.0120707
375.4045585
897.1237579
903.755199
893.51232
911.4688127
919.8549726
902.8388169
928.492868
948.3337325
905.202321
921.7073149
923.3780592
905.6728837
923.0917138
920.3689906
893.2746257
898.9939309
885.7479239
846.8466441
815.0140947
776.9624167
726.9958478
598.8941161
514.354268
473.523964
910.3355735
921.5951938
913.1494492
935.1610708
951.0456596
936.2314808
969.262918
1002.520572
962.3377078
985.6859333
995.4854664
977.6045081
1027.185383
1038.194478
1008.056283
1069.971453
1078.41431
1025.826021
1081.809117
1069.497317
980.6271691
929.1161527
822.5699384
714.3666212
917.1440083
932.3535646
928.0195651
950.8658149
972.778011
963.4623208
998.7780925
1042.78262
1014.062539
1041.558344
1059.627668
1045.21441
1124.861787
1151.109796
1125.300252
1248.297467
1288.23754
1238.643624
1438.861824
1501.733656
1390.521263
914.5730116
932.3551064
933.7114499
954.0537773
979.7797598
978.3810614
1010.36539
1058.991982
1049.183944
1075.686997
1099.484314
1092.601669
1187.521647
1223.795462
1211.251564
1361.709227
1420.243065
1399.911746
900.9983317
919.5877618
927.5416077
942.2212041
968.917842
976.668565
1000.491745
1047.07534
1058.49621
1079.824427
1105.45538
1107.809273
1198.336823
1235.454316
1238.947972
1368.880562
1421.326281
1431.077436
875.9307452
893.6515829
908.1851704
915.0676801
940.0446966
956.6337892
969.4146904
1009.179745
1039.729709
1053.154436
1077.158136
1087.087681
1161.533092
1193.956804
1208.244687
1303.474774
1343.366836
1367.107105
840.3810705
855.7205254
876.086174
874.1536233
895.3664343
919.4908751
920.146873
950.2069131
996.1272708
1000.906024
1021.300536
1037.445761
1091.098821
1117.107385
1138.864433
1201.731782
1231.458706
1261.506708
832.975211
868.1230607
932.8561512
929.3600916
945.1379866
965.7096005
997.8424538
1017.015297
1043.761474
1078.16643
1099.474418
1134.222539
2289.632688
2198.379816
2081.011026
917.5336147
1048.632832
1703.484616
1682.310207
1655.954272
1861.366163
1829.180701
1864.785699
1504.5111
1491.065553
1469.890565
1630.410824
1605.588958
1622.88449
1343.095219
1329.507423
1309.304298
1449.184987
1428.870276
1441.634235
1462.743839
1459.076427
1455.518713
1288.741845
1267.735138
1281.663845
1315.423012
1310.34987
1304.675525
1380.342419
1375.670688
1380.026914
1754.04101
1744.939487
1731.110625
1835.644328
1818.605669
1825.056549
1749.489726
1756.00649
1750.867025
1730.887863
1735.78396
1742.779018
1395.277486
1390.260978
1385.721188
1451.264783
1447.715593
1451.559997
1299.227383
1293.649576
1299.283331
1239.996189
1981.287065
1925.353394
1893.710994
1986.859816
2000.68504
2099.80833
2578.058108
2512.091787
2455.289797
2671.02515
2693.986346
2814.625835
1877.557776
1873.476025
1853.887923
2030.12828
1998.434204
2001.948871
2110.949988
2102.396837
2064.656696
2397.747982
2341.593929
2375.37123
3067.909625
2958.493364
2816.910782
1340.805423
1336.396693
1341.060766
3394.200044
3311.590949
3226.514617
3513.472059
3531.988189
3682.051632
1800.055056
1807.175663
1802.471655
1783.884564
1787.265881
1793.496647
3920.167903
3780.626336
3644.337301
1484.244138
1480.085023
1482.788288
1496.817005
1492.169956
1488.731759
1354.937008
1350.364838
1345.966776
1417.277388
1413.208767
1417.266982
1430.690784
1426.266141
1422.155226
782.0207104
773.7305521
785.1152682
746.2277185
760.5122958
769.5038317
747.3510135
753.3382888
738.2317961
722.9823191
712.0925041
729.7767239
670.2544705
691.8751802
703.4600607
675.2238175
682.7524905
660.2465078
632.5777373
619.6524232
645.728322
559.331439
590.3309134
603.5533868
571.6616973
580.0263474
548.2914568
500.0108735
488.2985311
524.7322695
406.0900323
447.9628789
458.9631889
431.6655963
439.2000586
397.2159025
321.2078175
314.1235537
360.6549268
264.4767735
270.0279293
256.0889478
260.2315101
826.575719
813.7411637
822.1384015
792.878686
804.0072506
817.9933778
779.7896024
791.2705228
779.1235105
782.9784095
765.4977996
780.0749532
729.4610794
748.7076195
767.1380114
716.8306842
731.903157
711.9849829
702.443755
682.0211342
707.279575
621.1218514
653.2925646
674.1362552
618.4770044
634.8925437
602.7892217
565.5639434
545.4773214
585.1595526
454.3348841
501.7783967
520.7499675
471.3782724
485.476399
439.5771867
360.7807253
348.4731985
403.0555633
290.8374932
299.9032685
276.1183222
282.9835968
888.0790248
871.2103217
874.622801
861.1289738
866.8206635
885.1553906
833.1763276
849.4839298
842.2969143
868.0097312
844.399762
853.7390584
818.3432334
832.7187306
858.3507332
787.204876
809.0255025
792.9380226
811.5469083
779.6813892
800.8215477
724.2650137
754.3468508
788.0804731
697.7228889
724.3465701
693.2408877
684.1372634
647.3966947
688.7989511
544.7656531
599.4974171
635.6642622
542.9047694
568.8902172
516.0591469
440.8267326
414.4537044
483.0127688
339.5393842
359.4975183
310.6373834
323.6209177
959.521428
941.3954657
937.8539594
946.9981056
944.4923912
964.9570824
904.4561739
924.1849019
924.4397766
978.2048473
948.9610554
948.4339147
944.0385967
947.4846445
980.6871716
885.9401477
915.6423472
908.7455631
975.5423233
928.4847184
937.8417796
895.8921333
914.894951
966.8465502
825.8844219
868.0505171
844.8623223
902.7140676
835.1034459
869.9008103
730.5591075
789.361722
860.6790992
678.4853846
729.2200114
670.3040052
630.9025622
565.722166
656.4963192
458.073092
511.3420782
384.8130047
416.9333741
1029.570788
1012.960762
1000.916078
1039.040302
1025.659929
1044.770239
985.445729
1005.744369
1016.321237
1097.342418
1068.138489
1053.235331
1099.734031
1083.698527
1117.523089
1014.736939
1049.209932
1059.899831
1186.061639
1132.181406
1116.110067
1159.785007
1147.181744
1210.889673
1023.613907
1084.26127
1086.128507
1277.621044
1169.734468
1167.324655
1128.868753
1158.762274
1287.823196
945.1572146
1044.207339
999.9630737
1147.695011
963.8867719
1069.567401
796.6381724
1082.468543
580.9839299
673.5416328
1083.546552
1072.522933
1052.658474
1118.433407
1094.358157
1107.189334
1062.726349
1079.381453
1101.048706
1194.767593
1174.569418
1145.038404
1244.353309
1207.51303
1231.011982
1150.063877
1180.173372
1212.433396
1370.491593
1332.769656
1285.827023
1447.577819
1386.07665
1430.870658
1273.515314
1332.762739
1382.873618
1683.831717
1602.525202
1518.771763
1822.061159
1704.725177
1811.316051
1428.237657
1572.188445
1643.286945
1621.62956
1645.555533
1815.003483
1106.848224
1104.345356
1079.682647
1161.810867
1131.607866
1134.681109
1117.751982
1125.811902
1155.014401
1237.20016
1232.61862
1195.324005
1320.797094
1274.236812
1279.095763
1250.081689
1264.433038
1310.120302
1434.939192
1431.739964
1373.012514
1573.227185
1498.100092
1498.965813
1464.894908
1487.145455
1564.12559
1095.126657
1101.196149
1075.769692
1159.473215
1129.02654
1122.536364
1136.103693
1133.588255
1164.471213
1220.01048
1229.041017
1192.748353
1311.334058
1268.528597
1257.991866
1280.277167
1276.100602
1320.504748
1388.440152
1406.778304
1357.446085
1514.00075
1459.068277
1436.666389
1491.597539
1477.790083
1538.19885
1052.214526
1065.48961
1042.248715
1117.614675
1090.592722
1076.307786
1113.886144
1103.171545
1131.277302
1159.042308
1177.471541
1146.579954
1244.662348
1210.213946
1189.944959
1244.554349
1228.510819
1265.085564
1290.284408
1317.649413
1280.582238
1393.262778
1355.393717
1325.19178
1411.514581
1384.272395
1425.60722
1664.016526
1656.43007
1643.960022
1684.0963
1671.260822
1677.937775
985.3481955
1003.899145
984.59304
1046.434857
1024.520226
1004.700766
1060.447566
1043.140203
1066.418443
1069.452824
1093.928165
1069.596773
1145.617088
1119.31685
1093.005468
1167.924219
1144.329749
1172.606824
1167.806266
1200.216711
1172.650778
1256.035181
1228.091441
1193.619021
1293.860708
1261.490326
1291.495003
1476.180637
1468.772987
1459.85971
1488.703419
1479.424264
1485.99602
983.7504563
961.8463147
979.4274349
1065.471513
1036.85591
1057.269185
1157.994922
1121.156123
1143.275079
1324.151709
1314.838559
1305.247248
1335.268289
1326.010654
1334.387319
1516.625634
1509.452056
1499.788872
1531.231349
1521.141888
1527.344044
1364.115915
1355.1096
1346.134456
1374.454413
1365.717097
1373.773847
2499.920772
2339.984025
2458.56651
1999.05355
2178.631249
2277.552214
1985.020295
2075.798968
1936.556226
1370.139563
1238.63801
1086.121315
1666.886235
1427.743843
1556.191567
1219.041317
1444.010468
1737.877858
1709.577702
1732.547353
1634.793412
1659.43193
1634.385703
1828.925347
1797.678368
1767.234187
1535.059262
1512.776712
1526.739958
1482.629295
1497.787217
1519.388534
1455.869657
1476.63778
1460.696504
1568.326514
1587.07295
1610.61853
1541.460531
1563.997255
1544.771308
1597.726061
1581.446427
1557.944476
1610.191485
1603.343209
1591.721511
1629.47505
1617.410294
1623.301957
1369.227621
1349.453071
1362.829166
1323.047633
1335.999731
1355.857069
1295.775608
1316.059959
1301.99738
1401.876151
1415.33169
1435.479122
1375.590906
1395.424807
1380.91957
1421.613321
1408.826886
1388.982847
1438.532472
1430.661751
1422.17312
1449.496701
1440.85018
1447.781207
1467.061626
1463.359895
1466.541449
1241.653468
1254.245481
1275.284905
1210.403425
1232.795282
1219.870478
1260.040649
1246.146414
1223.797742
1281.607717
1272.532735
1260.671113
1293.740057
1283.961844
1292.640886
1320.783291
1315.87793
1320.66541
1299.696491
1306.163106
1298.504738
1374.83046
1370.220014
1365.508179
2447.062099
2441.256977
2403.271562
2521.455229
2485.374395
2491.620485
2076.262331
2079.053805
2059.703304
2122.631057
2100.29553
2097.055297
1772.936211
1758.850139
1767.514436
1742.587256
1750.334128
1764.891417
1721.925725
1736.022259
1727.943746
1807.606319
1812.475712
1830.010372
1779.871914
1795.721278
1789.470795
1809.594639
1802.573412
1787.402227
1839.832991
1838.02492
1830.999037
1853.771755
1846.436727
1847.498039
1766.589851
1761.145175
1754.818897
1773.237917
1767.259129
1772.368241
1757.842285
1762.348273
1768.608343
2006.089739
2007.588108
1992.335664
2041.188051
2023.878638
2021.824134
1871.43005
1870.436051
1862.445153
1888.451721
1879.631675
1880.039979
1560.894247
1554.021798
1543.548029
1578.067369
1567.011668
1572.746385
1721.063941
1728.547707
1723.300075
1739.272763
1733.773117
1726.088822
1748.186419
1741.174792
1746.93876
1399.585454
1395.433683
1400.119808
1447.707899
1443.352638
1439.646055
1401.940211
1393.397072
1384.840241
1412.041394
1403.596447
1411.157831
1283.377256
1288.167626
1293.777152
1249.138321
1980.066863
1954.945476
2019.864277
2098.293564
2003.742763
1997.230178
2609.657932
2564.387262
2644.976677
2421.188106
2487.551067
2520.435097
2400.522201
2446.561906
2383.285661
2553.287646
2579.909074
2462.886702
2798.090055
2681.207186
2649.278139
1917.606661
1894.657196
1898.070936
1885.00167
1890.134002
1912.801988
1848.869963
1868.803961
1862.309271
1982.784898
1991.340295
2021.745666
1937.125115
1963.21642
1954.094866
1972.069709
1969.298648
1942.429473
2188.122034
2143.459567
2154.989215
2109.645291
2127.777856
2168.638715
2054.428134
2089.893009
2073.207708
2266.830859
2304.401138
2352.233901
2211.881235
2257.18759
2222.902072
2314.026053
2287.581465
2236.22852
1952.48108
2167.495263
2261.329667
2299.989548
2500.70893
3299.534222
3119.618798
3265.880701
2721.106028
2932.561968
3043.689054
2702.935401
2812.006691
2646.659528
1336.278468
1331.071868
1326.396805
2291.899443
2290.76142
2259.067368
2361.205791
2326.370712
2327.024768
2169.78032
2172.023137
2146.66929
2227.91745
2199.02694
2197.082441
3449.546629
3390.836082
3486.114429
3156.402226
3229.662106
3127.777674
3661.100768
3520.524869
3503.273397
1811.713609
1809.365721
1802.862924
1823.008226
1816.514319
1818.181211
1774.808758
1781.04872
1776.851045
1789.25962
1785.158643
1779.184907
1796.953104
1791.117037
1794.972218
1951.378881
1952.222793
1939.90941
1978.231803
1964.650764