/*--------------------------------*- C++ -*----------------------------------*\
| =========                 |                                                 |
| \\      /  F ield         | OpenFOAM: The Open Source CFD Toolbox           |
|  \\    /   O peration     | Version:  v2012                                 |
|   \\  /    A nd           | Website:  www.openfoam.com                      |
|    \\/     M anipulation  |                                                 |
\*---------------------------------------------------------------------------*/
FoamFile
{
    version     2.0;
    format      ascii;
    class       volScalarField;
    location    "1.68";
    object      omega;
}
// * * * * * * * * * * * * * * * * * * * * * * * * * * * * * * * * * * * * * //

dimensions      [0 0 -1 0 0 0 0];


internalField   nonuniform List<scalar> 
3259
(
31.98794444
31.98968916
31.98761402
31.98268635
31.97736664
31.97255703
31.97029535
31.96820947
31.93481143
31.93345206
31.93231373
31.93125118
31.95079299
31.9608758
31.95341959
31.93142178
31.90574196
31.88441034
31.85455407
31.84413778
31.80636087
31.80258501
31.79929212
31.79629991
31.94837383
31.96898106
31.95128806
31.90450261
31.84782967
31.79963028
31.74905384
31.72646842
31.68237721
31.67513176
31.66925006
31.66420316
32.08731164
32.10545409
32.04277424
31.94667235
31.84093969
31.74720138
31.66358739
31.62053421
31.56356563
31.5514951
31.54251299
31.5352448
32.65900865
32.62157485
32.39209248
32.14694109
31.93137993
31.74964277
31.60892993
31.53086042
31.45232895
31.43195126
31.41846267
31.40873288
34.86756369
34.4323099
33.40384617
32.67908172
32.19930522
31.83972287
31.59092565
31.4608725
31.34950702
31.31540718
31.29599145
31.28301242
45.92934817
42.94356801
36.13099151
33.83835253
32.74130365
32.05978546
31.61325813
31.41234022
31.25460343
31.20244629
31.17472414
31.1578424
70.6815792
42.4598225
35.91904875
33.63287867
32.43247248
31.69291417
31.38197011
31.16797631
31.0926781
31.05446112
31.03300078
132.3224984
51.86392185
38.81008668
34.81268834
32.92653606
31.81745419
31.36808901
31.08926973
30.98790117
30.9368933
30.91024343
165.5766879
60.17471914
41.83891274
36.11914561
33.47288067
31.96617536
31.3681462
31.01830859
30.88894058
30.82406828
30.79163883
166.1354657
65.15361243
44.41203955
37.32603949
33.99830502
32.11146384
31.37408016
30.95425339
30.79838566
30.71897069
30.68024362
154.0922215
67.27342352
46.21464978
38.25884565
34.41389609
32.23023654
31.38178545
30.89669071
30.71512705
30.62226527
30.57722188
155.2725269
79.46145454
198.5629515
161.1781468
196.6543567
200.1569846
178.2320471
194.4288675
175.580095
45.48858848
72.54784066
42.74876231
447.6448379
159.273663
125.3401497
56.36086854
46.10407565
1504.8751
1060.318909
163.6728207
68.6436479
59.80663278
868.0212359
1184.330443
167.1978541
75.51036753
70.9128439
499.1573544
656.2290262
1895.795542
326.3574348
379.5064747
1031.046726
471.2792473
122.0625357
381.755468
726.454787
1197.350406
1507.084744
182.3601612
1058.260619
926.2655042
751.2511064
1054.994347
179.875899
685.0430896
849.6991239
200.6118616
652.5970943
518.2008736
917.089437
675.203822
201.3137073
390.6631624
481.403173
2793.978135
3228.45793
320.81187
1668.954358
2595.535184
450.5110885
5257.039667
156.0171484
77.74729448
76.43638658
5528.057731
718.4164338
796.8904789
134.3016419
338.8590112
112.8644085
814.0140164
1033.926747
185.1647676
398.694846
339.65706
501.6374769
409.6561117
187.7924476
70.1741771
139.5598077
69.31459796
73.00333198
3531.497024
315.5121063
2513.368424
341.4287093
1851.950888
284.6889175
1223.791965
1207.445528
996.7022046
1018.746368
1947.745783
4410.358842
558.3926058
2331.404203
1289.479234
4938.737812
2765.599754
581.3270176
604.8419789
685.3694488
4923.038771
724.7248314
687.1357677
1265.826062
1278.180475
979.944983
341.0933487
332.028692
343.3894063
342.4583398
973.2063102
893.1304357
302.746113
277.662186
327.7085063
310.1121051
910.2033139
725.5068376
5117.983866
738.6380375
1219.350982
899.4867136
436.8323653
1094.059619
1806.216899
5758.650169
580.6727019
3212.236989
1827.10546
2493.425398
1042.871231
2879.094687
4100.630402
137.9600598
361.1778199
124.5332917
145.2069781
1414.547413
3421.759334
3584.663826
1134.576366
924.5472522
2545.57882
1874.795474
4280.956579
4219.004654
1132.197677
894.2711978
3080.354834
3409.258074
507.5095374
224.0769757
188.8819419
267.5323719
236.1106565
530.5277115
1229.272703
4227.648305
4288.570683
1435.944825
1774.629684
1634.50569
802.2147613
591.2019235
309.9029439
321.2484069
823.3318069
337.3408314
342.6298398
325.2111977
334.4895306
808.7816423
423.3334243
867.4922658
703.6709396
4794.291919
1574.629142
1921.163237
1416.57167
5205.212561
5275.4609
1248.455777
1626.345834
5739.564287
1220.380916
499.745921
1219.773364
4025.213356
2752.033006
915.9080085
4767.377172
5574.971632
3588.459409
1051.978226
651.1522621
1703.838427
1157.150414
587.8255172
373.7537971
1047.427208
3762.706358
4745.162904
1345.439979
1152.149066
3627.376414
3770.698655
2787.62441
2642.5519
946.0944222
4592.932044
4508.275151
3297.866673
4468.7069
4471.080817
1102.837795
4367.747381
2867.527493
2904.566995
3270.429405
1756.234613
833.5282181
899.0799722
3697.653548
1046.05648
1181.426819
925.8534368
1006.737652
3463.18118
3532.888613
976.3615623
1150.638787
2208.499178
2306.697418
847.3773228
3270.556079
3292.858001
4174.560193
2257.113064
1888.804147
3177.159482
2232.019197
580.2923637
1593.000745
2109.647142
4122.235151
4186.951973
1239.046621
1379.483757
4343.405702
4101.908192
1538.153197
1795.096614
1229.7362
1432.329707
5355.596867
2825.081025
3084.749701
1916.022921
2714.490895
5650.285187
1296.727664
5504.861563
4725.547254
5482.862142
1387.709363
5696.388558
65.42217524
43.20927574
37.07063569
5635.005591
5610.711783
77.84457176
5874.45284
331.1599426
277.3556633
169.0322736
308.0327525
221.5350029
471.2025226
1701.705354
303.6577372
331.884504
54.43998924
63.94826273
122.6417897
391.2162247
754.1243571
1105.583416
839.7030883
932.5620258
3033.266527
672.2073569
592.1033797
354.8476733
1201.008878
1530.726143
547.3707697
4454.64473
3730.365114
5681.384114
5062.926435
818.9301305
2772.609879
5080.415468
3485.31631
3913.874478
5457.29586
1497.677338
1209.657902
727.3613277
176.3333062
140.3865752
244.4610285
885.582376
2334.311856
1654.48307
95.05170348
119.3556803
290.0081074
2884.772727
1894.474307
1464.866796
3689.657877
2927.060453
2134.950448
3919.612368
3573.765423
5586.124221
5290.900328
3813.380243
757.5245554
814.6032117
1617.130756
5098.287793
2686.782152
3014.529564
4264.643686
2534.996355
2961.015432
5011.561214
4955.040995
3145.072723
3344.374717
5083.6417
4999.182613
5199.418576
786.8847622
1576.572092
1319.444948
5704.296227
5535.171659
5441.772902
4204.295621
3895.736646
2232.447158
1260.074518
1421.615644
1406.713703
3344.394063
5552.1689
4720.863427
5609.702285
5365.653345
3808.088954
196.0536293
275.2151967
890.2805164
3631.820647
3547.915303
3721.665755
3702.49866
3504.927437
2272.236865
2250.625782
2293.932658
2275.597038
3511.673078
4316.313968
2444.215151
2462.432945
2347.219429
2415.645745
4389.542558
3221.386171
2059.724051
1857.72711
2234.120882
2172.955733
3306.733543
4208.97333
2503.539106
2520.329075
2481.27963
2490.787252
4252.180998
3816.816818
3745.930178
3916.398764
3732.78545
5824.034096
6038.461141
5624.695966
4241.121699
5873.50812
2398.674347
3363.331003
2365.013583
3173.808638
2372.967
942.5955422
3271.105661
2396.161024
5260.122095
5461.436949
5687.755486
4255.048523
4875.809727
1056.329313
5415.751033
5685.55445
5325.064227
2710.394361
1959.531639
2750.731112
1450.710573
2100.637889
2793.827166
3070.142336
2844.572853
3913.269285
2460.950646
2329.929512
3348.468242
2428.579524
3668.239809
3675.09962
2315.767434
2297.741759
2343.532429
2314.381743
3698.340033
2740.359122
1652.313914
1679.742711
4540.318868
4533.225786
3857.463521
4967.635511
4786.668298
4610.380807
4552.454799
4766.857212
3604.587061
1968.320004
2193.132521
1723.073789
1807.380586
3075.422604
5323.423346
4494.137847
2442.991559
5669.738233
5426.471133
5406.11192
3468.115785
5312.725932
5143.7753
2037.203877
2293.448133
4342.819547
2209.402898
1522.706865
1498.220349
1672.950711
1619.176313
2334.71947
3461.950004
3238.471473
2114.688155
3096.040996
3244.93192
2915.820395
3067.909319
2077.872045
3108.110768
3043.435203
3914.415676
2907.186137
4160.565693
2560.057134
2573.994396
2529.496889
2542.620803
4146.415638
4133.162876
2823.974155
3266.631576
2603.675353
2666.40747
4118.405789
4965.511984
4827.752818
5163.291349
3569.211912
4204.35769
2912.153026
4786.195867
4848.978795
4773.571577
4784.670098
2975.276756
2133.717057
4067.217523
3440.357209
4696.781729
4833.33629
2461.905214
5290.566223
3418.982686
3660.900369
2551.325397
3063.626854
5380.867064
5414.001988
5241.716923
3988.991866
4584.593926
5762.911946
5485.963092
31.9356105
31.94517069
31.9421499
31.95913669
31.95969857
31.96055325
31.95264496
31.95768462
31.94664638
31.91624134
31.93838921
31.90514415
31.86962506
31.91268625
31.85881458
31.82667584
31.88963173
32.00887518
31.94008877
32.0269462
32.04982001
31.96805852
32.04464543
32.02280551
31.95844923
32.00704785
31.94948656
31.91748772
31.92785322
31.85894018
31.86078097
31.83651279
31.77404934
31.80950904
32.38452629
32.07288721
32.40716089
32.44367509
32.10494717
32.39641649
32.32006815
32.06040624
32.27128084
32.13349762
31.97207747
32.08494654
31.9398501
31.86735921
31.89514119
31.77629986
31.76659074
33.76432325
32.61821376
33.86171503
33.88325474
32.60872442
33.62737859
33.22851362
32.44265606
33.05685704
32.64877177
32.20780754
32.52643722
32.20195056
31.98274045
32.1091125
31.87891709
31.78985309
43.21048645
34.67657032
43.37467844
40.82323002
34.51244032
38.69628561
35.8967298
33.60273289
35.19829171
33.84052069
32.83383071
33.5164681
32.7703435
32.30340487
32.57593509
32.11889778
31.92159685
62.44563163
60.43502915
46.0318994
48.8238094
43.03414343
40.34399014
40.47046843
36.19152988
34.24854947
35.39214237
33.74890725
32.96273207
33.37088658
32.53747848
32.20265388
94.07089149
67.08654318
56.14285317
49.43232768
39.78295229
36.9110627
38.19580114
35.17222049
34.05718096
34.51833481
33.12539979
32.66620434
149.6471936
92.94168578
83.65234511
58.34344637
43.71576824
40.65688296
41.31202217
36.77751213
35.51819525
35.81654551
33.80707002
33.28643013
168.5578214
107.0822559
103.3537164
64.13787482
46.95463752
44.47741224
43.96777601
38.294265
37.12381083
37.05515793
34.47364613
33.97115108
162.4606697
109.5750338
109.6294379
66.81606215
49.24477922
47.53768383
45.93768917
39.47480859
38.57608358
38.05732585
35.03581788
34.62563633
149.3389932
112.3089718
113.4647639
49.57811299
39.71392837
35.13964585
143.0567418
193.8552662
218.5518276
90.32196052
105.6764001
89.65956422
195.8140769
280.1569599
282.6788758
226.2147497
246.2841824
172.1031037
197.9344597
262.6761006
260.3406989
282.5988048
280.8095063
201.3771496
180.3338481
210.9101051
207.0301574
237.9850825
233.3087132
192.4484001
202.8794589
199.3610634
173.5189406
1380.034548
1420.835934
1351.517721
62.94862586
1850.68621
1293.535943
64.5741426
69.64876751
80.71798047
44.7070161
58.35935694
51.60101192
426.7717589
489.84793
523.6605179
201.2864197
237.6746099
194.6405593
80.91081728
69.62392891
101.775299
52.82835775
61.96505353
67.14778914
51.96362612
56.86390501
49.37669387
1493.374662
2297.891352
2304.240705
1512.772475
1541.585046
1088.959916
101.7543634
95.25514964
153.9677752
66.02501846
80.49223131
83.92039829
72.0245238
76.5624894
63.05233847
886.8229289
1085.883074
1053.173114
1598.884451
1584.598315
1171.025232
109.4031168
107.9000944
168.5347214
74.33005118
90.44379165
91.62484718
86.64284594
88.86346052
72.78493198
517.1674029
666.7136377
637.2955598
957.1877924
886.189675
630.2940041
1260.670376
1369.794819
2188.729308
347.1371162
567.5891018
505.6839986
447.5614424
433.85882
371.8970508
991.3049932
1430.051153
1483.314368
574.6133119
611.0869696
493.3682253
157.3539134
184.693162
135.2421108
404.4102473
309.7305136
284.8429936
441.6140053
421.1865907
637.9766801
1208.248541
1622.921827
1613.484842
2298.255532
2287.785143
1500.287884
270.1431903
278.4992997
184.2948544
1038.218401
530.2240335
542.6689164
570.2626336
575.156272
949.3116263
819.3924689
478.0053288
459.6644876
541.8835363
539.5714962
1007.806937
173.4933581
251.938426
266.5316889
714.1365577
1083.436114
984.4718684
1025.187038
1002.290943
833.4905462
272.2203071
265.7154993
199.7217067
632.180669
477.1671077
487.964585
293.5349125
305.2683659
570.9336152
883.8251639
557.2465129
564.8828477
499.0006656
509.9864762
756.0136581
201.5441681
279.3258942
274.5448849
399.9139208
479.6502868
463.4164731
610.7860909
585.3208269
465.7248764
486.8027639
1160.103207
617.7637574
1217.794684
722.345555
114.802054
109.3408861
160.7450665
77.49871789
92.68052535
92.51443436
92.26949649
92.68378061
77.06593494
751.8098085
1132.210216
966.7214359
893.9221007
874.7937362
774.289158
208.0991166
128.2233232
100.6196065
261.5037394
238.719761
314.2093552
99.61095448
120.0839577
147.2971911
836.9850565
966.322328
932.4839955
1383.721452
1284.726426
992.4414123
219.839387
215.4815947
183.029583
370.7561711
266.8750342
260.8213767
251.4468949
258.4238449
361.8433511
458.0114122
278.2684421
289.6477871
263.3774126
274.8273959
444.4331362
189.9093171
228.8360032
224.0783909
108.0853328
119.6552242
135.6837599
156.7051322
70.23051073
98.23239876
84.20330205
111.2414386
106.5437337
71.52129666
455.3495433
691.5265105
380.8874449
848.3915993
343.3696784
254.1185029
1263.572482
1077.638538
1787.367992
223.6604912
320.8432169
418.6175033
1653.636924
1714.348198
1251.480585
1187.507726
1621.618199
1651.988518
1251.523689
1228.559743
980.6908173
1041.992829
1324.696762
1281.808883
729.3759032
696.8625786
537.5394558
2053.277486
1347.727496
1450.156269
1002.510698
1037.430502
1369.72793
1576.029811
1693.610195
3115.870452
603.8187144
860.6632318
823.7470278
629.9457721
760.6504117
725.3519473
919.9760149
849.7081531
657.7397249
1013.315346
1059.072488
763.4001016
649.0064154
897.4830169
951.0701545
1671.905557
1664.728432
1256.90627
1297.030358
1716.794735
1686.200532
579.8769148
580.0550383
1019.503467
338.635429
430.4010084
432.2158205
422.8966266
427.0817976
335.8676993
343.6636611
432.7289454
431.3327544
433.4763911
433.3478759
343.6348909
956.1277005
577.8755567
579.2460105
510.3561416
493.9629288
838.8712218
295.1794303
371.8634792
380.5533887
347.7185515
358.6034567
286.3600833
322.4180794
409.4928852
416.6611347
392.5313143
399.0150795
316.5955769
980.3097213
539.8597117
524.2197395
1258.602591
1128.287906
660.7872926
755.4524844
892.4466689
873.3794486
1043.274031
742.7480885
745.45143
678.1579399
708.9399377
999.2133481
450.2464544
560.9819472
538.5590678
1154.89618
1672.729438
1515.989608
3369.895188
2992.457485
1656.192337
691.6301445
2033.652314
3688.688897
3309.163597
123.4341075
172.173873
236.3659191
165.3515033
113.8812831
346.741789
187.4587713
274.9286384
324.1647235
451.5727099
136.1797268
205.0441447
170.1870301
241.9331715
230.4069768
143.2684983
2142.896193
2253.132119
1465.65654
1110.597967
1557.51434
1581.579824
1155.283028
1121.464129
906.8296637
2336.996109
1481.756786
1551.416837
1327.92677
1398.90033
2060.497546
1153.451658
1560.039912
1524.205999
1260.946106
1358.048744
946.7655328
357.042135
329.9450571
451.0725576
212.9490092
257.6669418
273.2958291
224.5838531
241.3634334
200.4861498
257.8266159
320.2326173
333.1326065
289.9312353
304.4047803
246.5930377
608.8909863
401.0215611
379.0610718
1642.394833
1633.652715
1219.393558
1479.94462
2238.255086
2122.010243
1719.257928
1241.563526
1276.758976
1182.396875
1210.343687
1676.077756
817.6502213
980.4535364
960.5277458
455.6466811
466.2606541
611.0291002
313.4649009
377.2834023
371.085707
389.7964533
383.7446985
317.7806533
539.062242
549.0956358
868.2797443
339.392163
421.9140034
417.4844715
428.9617576
425.8224158
341.4449433
328.3493893
401.7170603
395.9903308
412.5263097
407.4167488
331.8443581
775.3891135
519.5629027
530.0026831
517.3635478
498.0741373
412.0941416
818.3774099
620.6458099
647.9510335
569.6990336
594.533601
735.9014317
895.2277202
1433.126921
2490.909669
1341.706811
2120.463004
1889.310335
2816.702236
2405.405938
1469.471096
600.4760601
3687.034805
1960.854169
2195.689581
1582.172073
1760.813463
3241.832021
945.2772217
1198.552443
1124.46868
872.2110757
1301.622647
1615.150003
943.088864
1182.894675
790.5040118
1793.725191
2095.440212
1360.840585
485.5034304
671.5056663
837.1131088
474.3779937
578.0046957
438.6351644
1303.73975
833.1623231
712.1493486
1290.729656
1762.609997
1937.688987
1592.407483
1615.866932
1173.184975
1595.98524
1626.820429
2699.428504
961.2526364
1206.337862
1183.173322
1459.795891
1387.303409
1072.65511
1207.614558
1268.148276
1880.801419
853.8147595
993.1776501
962.0559342
1077.60777
1032.468454
876.3510337
1084.960621
1450.124639
1356.952629
1672.335675
1566.700189
1135.865745
948.3120075
1180.43873
1129.555279
1285.055538
1232.669127
981.3014187
3256.20302
1790.192847
1891.091798
1953.803713
2223.640782
3995.702149
1017.696204
1372.467029
1263.004774
1667.464728
1503.320689
1089.076567
801.4208175
1117.236334
1182.402815
773.4940501
823.0403382
609.7915889
1770.928743
1201.745645
1127.596089
1402.645582
1336.322732
2009.93082
1247.697124
1657.089135
1650.491663
1931.741608
1786.789066
1330.187575
1635.796111
2918.00611
2605.354387
3224.117316
3040.985988
1713.41725
1278.599317
1854.866797
1762.706357
2235.517584
1993.010695
1344.205448
1987.573135
1834.97697
1226.028561
1507.298156
2518.340024
2190.549989
54.15742629
48.6564435
51.1033573
40.71426701
43.41457344
47.55632813
38.2868482
40.76565094
38.73124661
92.21378297
91.68616385
77.79312568
318.6879857
237.7827705
243.8217542
225.625736
231.3467934
286.7399991
266.974694
388.1257304
466.0614166
265.892101
333.6137679
233.7118278
922.9541919
439.6224176
396.1066938
743.1479114
1326.532076
2720.524865
325.4484834
493.1786205
419.3196863
540.322233
538.9488374
335.5893533
77.2295599
68.9340633
61.04698659
93.7087931
79.00051774
85.44388228
420.914312
451.3760225
407.8236214
882.3579158
617.3908621
544.9336803
747.3101512
665.452994
952.9997172
868.3619609
1028.213163
978.4397683
1169.619977
1092.493763
898.932682
2572.992672
1521.852107
1711.646757
644.6950355
525.2569313
546.5644341
486.7169185
504.7475313
617.1698635
1353.969869
894.4073192
816.3480093
1031.584248
968.1607544
1403.218193
521.3598529
668.9804585
707.0263911
929.7883981
1389.11165
1040.585583
1085.809315
951.7443894
985.1564777
1296.261693
762.0108755
835.3896383
837.2637267
164.3991962
191.604034
208.3964998
269.6469024
213.5394236
194.4464727
1061.703335
1012.233044
859.7916624
2073.985384
1328.558371
1434.690347
1159.114598
1232.235949
1844.363603
100.3783506
112.0424114
105.5536186
141.2425144
130.9605878
107.0270217
204.8145761
154.3201512
196.4291385
778.537559
875.1295659
859.2996986
929.7045232
905.1569559
794.4420288
1485.09677
1092.371121
1144.561177
938.1598629
917.2200691
770.5981321
1495.929193
1111.444945
1147.738768
1036.594501
1069.141686
1398.603326
208.7331194
265.1572108
236.0539423
353.694304
311.3775837
237.3496034
612.5098355
405.7551574
520.8636034
31.96492189
31.96887365
31.98943253
31.97061521
31.96849361
31.98930618
31.96420804
31.95768738
31.98522025
31.94946906
31.94123295
31.97995172
31.93336413
31.92656166
31.97495902
31.92168935
31.91553311
31.97152338
31.91146367
31.90859522
31.96923046
31.94402982
31.94925216
31.95472534
31.95632466
31.95639648
31.96110319
31.94743038
31.94173277
31.94919352
31.92042698
31.9120372
31.92566599
31.8882042
31.88037105
31.90052996
31.81933519
31.80962748
31.8608348
31.7994701
31.79154415
31.8488968
31.78587526
31.78317315
31.84059554
31.96336764
31.97514593
31.95740544
31.98415075
31.98282473
31.96760783
31.96152776
31.94920311
31.94106523
31.90707328
31.88993092
31.88873694
31.83928781
31.82363686
31.83386903
31.75791606
31.72387313
31.76438943
31.70197221
31.68572946
31.73666714
31.67372143
31.66666425
31.71918961
32.15708908
32.18373851
32.09230593
32.16618851
32.15835939
32.09363232
32.10062333
32.07366682
32.02043852
31.98267738
31.94950116
31.92039631
31.85078094
31.820459
31.81461306
31.74327607
31.67148369
31.69464379
31.62996828
31.59879239
31.63968441
31.57539655
31.56001946
31.60672624
32.89568002
32.94096199
32.6502308
32.82363571
32.76454691
32.57803145
32.56284229
32.48488579
32.33034361
32.25596097
32.18226396
32.08959793
31.97768149
31.9186107
31.88166323
31.81361045
31.66879354
31.6633458
31.59086946
31.53642033
31.56496356
31.49500173
31.46594691
31.50694821
36.07692008
36.20741021
34.83548968
35.22964557
34.8359153
34.19906587
33.87351111
33.59396618
33.19710722
32.93137641
32.75402544
32.54168262
32.30180116
32.18387308
32.09961566
32.00254982
31.7260883
31.68674967
31.59703538
31.50150516
31.51630994
31.43513139
31.38589461
31.42045387
49.6635087
49.85646062
46.86731811
37.30718857
36.27744745
35.36490867
34.33722557
33.90084169
33.50154207
32.92810196
32.69159049
32.54352737
32.33555494
31.86729822
31.78505661
31.64696594
31.50103298
31.49810759
31.39561172
31.32079071
31.34890926
78.14903217
70.71759457
65.36462197
44.67761293
41.57931229
39.97550555
36.71962897
35.79373911
35.16199648
33.91523887
33.48873151
33.26736937
32.79839569
32.0889051
31.96596874
31.7513984
31.5258791
31.50913319
31.37348681
31.26820177
31.29182788
138.3140628
116.0727745
111.1540179
54.15659929
48.38790558
46.68450784
39.74658376
38.18745039
37.4368225
35.15467263
34.48912012
34.21899784
33.3396969
32.36541466
32.22042069
31.89096927
31.57574248
31.54766741
31.36718888
31.22620563
31.24652323
167.0654859
140.3444378
138.7951111
61.68586208
54.25834137
52.99625741
42.75061783
40.61322414
39.87451261
36.43899378
35.530102
35.27720726
33.87829515
32.64713416
32.50617257
32.04095092
31.63813972
31.60525867
31.37132362
31.19276886
31.21070509
165.1367607
142.0245919
142.4889261
65.81484109
57.99741638
57.29268701
45.09473698
42.58432257
41.99767861
37.58253198
36.47462301
36.26655906
34.33274891
32.89000257
32.77578802
32.17533761
31.69837277
31.66804381
31.37971449
31.16573801
31.18166519
152.6360101
134.3521189
135.5893863
67.3675773
59.77785108
59.61581361
46.61259714
43.94786708
43.57236989
38.4730327
37.22727192
37.03259286
32.98799357
31.72199783
31.15610285
50.05795343
105.8181789
100.2361968
117.9111366
136.8236212
134.4746919
161.1263506
142.9150704
143.1106117
167.8862604
333.3620198
377.2552679
369.3354019
575.8182575
558.206963
698.2299882
1058.357014
793.0024621
791.0828221
750.9113341
756.1662412
934.3533757
775.6610339
605.8259265
588.7716708
786.5808575
780.1919692
1045.647009
415.4256404
424.7649967
535.2454003
907.6348686
739.1604599
745.4438561
359.4490675
136.5505143
137.6712874
157.5000967
157.9064225
133.9343071
122.6007682
389.0421455
333.8492527
339.6705686
298.1316839
303.7796813
345.9358079
486.3942146
396.8860215
405.59358
348.2098318
354.5695125
420.2366818
69.52268951
77.6341978
80.06761352
80.71933275
80.4757848
73.33364191
485.7726135
346.3617014
287.7818874
778.0843477
779.965274
988.4433818
967.9745128
774.1849439
775.6619029
689.1069644
674.5698603
875.5887393
929.8173934
715.5645599
701.1101158
848.9684998
835.6118792
708.354068
1155.111107
934.3427434
960.2773845
793.1731543
813.8836926
927.185253
466.9957458
456.2693772
484.4541445
555.4689315
489.8798911
474.9223164
689.4856123
698.4632017
836.5117238
798.551233
672.2270172
681.1982188
850.281245
755.7567156
777.1197583
60.85056381
56.46161774
59.32170084
326.486755
287.3328228
293.3827256
170.9846173
195.6689758
192.5242933
56.86678844
64.21423308
60.39610774
108.8987363
99.30869325
104.839341
361.6432171
420.4529696
408.6351459
159.9796645
175.5269974
152.0164758
258.4503934
219.0270955
233.4105411
31.93474574
31.93792787
31.94968986
31.94748141
31.940844
31.9554235
31.95186029
31.95496217
31.95882655
31.95212655
31.95478059
31.9600859
31.95693925
31.95703902
31.95055594
31.95504613
31.95773003
31.95954071
31.95468497
31.95139583
31.93762858
31.9368534
31.94514062
31.92013502
31.92935252
31.9284522
31.943188
31.93565407
31.92797711
31.89303302
31.9011913
31.91201149
31.88132617
31.89203255
31.88240712
31.91831311
31.90428093
31.89574599
31.84684005
31.862346
31.87246384
31.84535265
31.85424594
31.83689905
31.89436505
31.87359679
31.86678054
31.97724855
31.9515614
32.04476654
31.9979115
31.98905104
32.01194049
32.00709266
32.05146296
31.9634633
31.98122252
31.98422784
32.04176102
32.00655904
32.01179444
31.98885953
31.99834582
32.0364595
31.96451642
31.97922593
31.97112659
31.98946741
31.96293441
31.97765234
31.93093732
31.94807589
31.97062863
31.9306942
31.93662184
31.92178274
31.90450664
31.89443568
31.91372194
31.85519715
31.87540853
31.88187094
31.87477556
31.87308333
31.8546697
31.81319112
31.81610396
31.83516917
31.78296222
31.7995946
31.79202697
31.82178304
31.80932187
31.79557499
32.26419713
32.13568087
32.44439859
32.28299587
32.28223049
32.27964433
32.28049385
32.45940023
32.10014015
32.19228453
32.1841622
32.37309799
32.26374319
32.28654432
32.19720134
32.22277539
32.36205669
32.07500111
32.15124171
32.1277043
32.22691767
32.13225601
32.16837092
32.05772128
32.09546009
32.18098788
31.99716713
32.04491963
32.01411069
32.03514436
31.98228079
32.01983632
31.90592883
31.94445024
31.98664643
31.89418528
31.91642496
31.88299851
31.85288532
31.83291885
31.8688915
31.76901176
31.79948321
31.81327392
31.7902859
31.79262659
31.76646186
33.25495753
32.84655321
33.95737326
33.37039563
33.36914984
33.24293028
33.29492826
33.9689671
32.62509533
32.96636565
32.93366262
33.48186763
33.14306917
33.24196232
32.86445246
32.97176886
33.39059012
32.49285595
32.73447543
32.65348364
32.91355374
32.65754218
32.76717817
32.45108941
32.55176578
32.77961843
32.26892364
32.40878369
32.33163865
32.4133897
32.26877764
32.35562057
32.11036551
32.18794004
32.30526162
32.03589626
32.11143229
32.04169785
32.02552617
31.96745006
32.03756173
31.84006497
31.90137965
31.94924439
31.83443032
31.8637198
31.81273327
38.15194737
35.90141682
43.31227515
38.35024465
38.57578243
37.3231082
37.89518085
41.79742796
34.67547273
36.13909859
35.85314927
37.52892814
36.21164542
36.88548979
34.88232513
35.39662269
36.75505663
33.83439444
34.57350515
34.21313949
34.65680047
34.04883464
34.44789642
33.40937182
33.70245581
34.21718526
33.00492508
33.35125352
33.13054021
33.23934143
32.93929071
33.15654166
32.58073563
32.74849651
32.99324891
32.41725126
32.5907797
32.43769396
32.40608136
32.2909644
32.43081996
32.0416154
32.16027607
32.25418481
32.0065352
32.07741438
31.97967324
62.61514132
55.86393519
55.56308949
53.9711682
54.98132176
62.4353718
46.55023225
50.0363696
49.55876973
38.57974514
37.32294262
38.7582309
35.40897432
36.24017407
37.2108598
34.7464999
35.48486599
34.85589747
34.74290121
34.23169215
34.74814109
33.44883357
33.80903075
34.20104448
33.21511168
33.52481946
33.20209294
33.04993412
32.86706968
33.13873311
32.41084487
32.62448812
32.77585764
32.36371239
32.48518628
32.30325069
82.39142167
76.36049121
85.1342962
62.55656296
68.04822132
72.71468863
44.95072557
43.21068229
47.03175471
38.6914098
40.5756231
41.92267258
38.20655889
39.43154005
37.88852044
36.95925536
36.22925769
37.28435676
34.73629336
35.40606671
35.97042497
34.5587165
35.04059104
34.42432659
33.97508399
33.70935978
34.1803754
32.95973823
33.30584083
33.51573779
32.94585149
33.12495095
32.81276521
124.7537204
120.581975
144.3106868
89.86037801
102.6314786
106.0931472
95.00719776
99.01036722
87.27802738
51.5744592
50.02689377
56.37592105
42.6057651
45.68902315
46.97330894
43.15793555
44.49986786
41.76069171
39.43834357
38.65432815
40.33383429
36.31892916
37.36093375
37.95577454
36.37514038
36.95101392
35.96121786
35.02410283
34.74692961
35.46433544
33.63075235
34.14173316
34.36224349
33.71497297
33.93039108
33.45887621
142.3984024
141.5484026
167.9472715
106.0356597
121.1278149
122.2179778
118.3241613
119.9448324
104.822653
56.37477718
55.42867896
63.09104974
46.15755598
50.04089895
50.93583533
48.03133056
49.13577895
45.46980188
41.65434851
41.01935486
43.24622311
37.88532777
39.27700233
39.80299617
38.35291327
38.90792351
37.54804601
36.03883131
35.79041862
36.74730774
34.30901408
34.98532873
35.18730208
34.56767533
34.7706306
34.1359006
140.5291135
141.1225789
163.6682111
59.07330474
58.63668856
66.48109779
48.63804156
52.89801371
53.48449124
51.6584567
52.43499246
48.28712016
43.30248916
42.8936826
45.40120726
39.21889436
40.87572893
41.19126067
40.09782459
40.58146442
38.93854069
36.87533601
36.69202304
37.84574328
34.90817708
35.72290563
35.87599879
35.37529668
35.54417815
34.76457301
53.88831012
54.20528389
49.93334507
41.46109963
41.75677521
39.96356347
36.00344764
36.16613323
35.26278551
202.2227926
175.2572304
167.593961
187.2579242
180.5117443
210.7019269
281.4852583
237.786742
236.0190001
240.0089064
238.8858942
282.2307663
233.333891
198.4007034
192.3819129
208.3150402
203.2613037
240.0638702
260.90073
230.9130627
232.6842004
282.3126305
241.0687626
240.551661
241.0553962
241.114121
281.546346
54.15562559
48.62920815
47.74257717
44.32814009
55.67430919
50.67114797
51.73969981
47.44446494
48.52340517
53.33129952
76.80795451
86.4301808
90.8643849
77.26494897
81.95112286
74.07444479
110.3226486
94.37790693
88.37209867
99.76627333
114.3245633
116.5565245
109.097593
111.9468905
97.78727019
158.0557689
131.7048092
128.4523638
109.0643073
123.7549746
123.9250003
122.8732769
123.4863548
108.573217
168.3473695
143.1747811
142.9104176
933.2017836
808.0304419
826.5670519
771.53829
790.4364711
906.4150001
397.240647
387.3116504
339.9423477
545.9289406
453.8079639
468.8562923
426.239488
438.3313412
524.2393165
166.2644129
148.96114
139.9854868
162.3070925
154.0997402
175.9331023
669.0679848
545.0623452
527.5385439
273.5024088
230.0113939
227.1010875
234.3391081
232.0638142
276.0879491
789.9155565
792.5979693
1051.323997
544.1658029
607.3795074
627.6904023
596.0703084
603.8091522
544.0343549
942.2306388
760.6916991
764.804415
634.8883494
618.3870283
797.5175852
540.6183379
579.9361113
589.4731272
558.7323213
570.5347085
539.8619399