/*--------------------------------*- C++ -*----------------------------------*\
| =========                 |                                                 |
| \\      /  F ield         | OpenFOAM: The Open Source CFD Toolbox           |
|  \\    /   O peration     | Version:  v2012                                 |
|   \\  /    A nd           | Website:  www.openfoam.com                      |
|    \\/     M anipulation  |                                                 |
\*---------------------------------------------------------------------------*/
FoamFile
{
    version     2.0;
    format      ascii;
    class       surfaceVectorField;
    location    "0.76";
    object      Uf;
}
// * * * * * * * * * * * * * * * * * * * * * * * * * * * * * * * * * * * * * //

dimensions      [0 1 -1 0 0 0 0];


internalField   nonuniform List<vector> 
5999
(
(99.99905753 0.003692581596 -2.081179969e-21)
(99.9965419 0.003145162206 6.16114103e-21)
(99.99834491 0.009798457617 -2.056892936e-21)
(99.99428471 0.01160093326 2.073945493e-21)
(99.99690778 0.02098741549 -4.105094162e-21)
(99.98952907 0.02698733832 1.237749079e-20)
(99.99844165 0.0258690935 1.28114038e-21)
(99.98042669 0.05539718288 -8.18003472e-21)
(99.99138714 0.05794799581 -1.365545274e-21)
(99.99721511 0.04773696124 1.985163077e-21)
(99.99913375 0.0288425575 9.863590114e-22)
(99.98967476 0.08330151326 1.975739903e-21)
(99.99762466 0.04778409194 9.68876383e-22)
(99.99824525 0.03674106304 -9.949044619e-22)
(99.99702354 0.06174655882 9.688368112e-22)
(99.98369913 0.1400257749 1.930134426e-21)
(99.99668819 0.07917913691 0)
(99.99645357 0.09862482778 -3.573708177e-21)
(99.97826829 0.2192700184 -3.573689578e-21)
(99.99591864 0.1218710045 -9.300676999e-22)
(99.99528897 0.1489940246 3.115699959e-21)
(99.97100427 0.3277282495 3.413508359e-21)
(99.99467494 0.1800382548 4.217431453e-22)
(99.99414107 0.2147258506 -2.843939484e-21)
(99.96475626 0.4662921729 4.036262105e-22)
(99.99375617 0.2524435745 -2.938721284e-21)
(99.99362773 0.2921020817 2.446531865e-22)
(99.96285935 0.6241169502 -1.98105899e-21)
(99.99388968 0.3318480745 2.60444429e-21)
(99.99459917 0.3693314382 2.258190141e-21)
(99.96941897 0.7734187606 -1.008640437e-21)
(99.99549014 0.4021250716 0)
(99.99120247 0.009957180902 1.029132785e-20)
(99.98718566 0.004455413399 2.551229707e-22)
(99.9842768 0.0267972928 1.646098374e-20)
(99.97850602 0.0175556668 -1.437875382e-20)
(99.97143269 0.05802372312 8.628832179e-21)
(99.96031125 0.04350935462 -2.23482105e-20)
(99.96406371 0.1014538698 -1.444668405e-21)
(99.93024618 0.09237383478 4.300822116e-20)
(99.93763858 0.1219480459 -9.490877744e-21)
(99.94588487 0.1314308718 -2.034989523e-21)
(99.95802609 0.1324058747 4.024094385e-21)
(99.97484786 0.09315091556 1.99808043e-21)
(99.95826674 0.1626304611 1.957956141e-21)
(99.94491374 0.1758745793 1.98926862e-21)
(99.9069342 0.2340877928 -4.013050103e-21)
(99.9304073 0.2307524451 -1.667675339e-23)
(99.93430135 0.2726857281 1.930437337e-21)
(99.9131292 0.2990486656 -1.580851396e-23)
(99.85688512 0.3932861215 0)
(99.90420205 0.35631812 0)
(99.87767532 0.4073374836 -2.415865228e-21)
(99.90804235 0.4177148807 -4.758358227e-21)
(99.89724117 0.4385846716 -5.645101988e-23)
(99.86706415 0.5081284503 -1.070553056e-20)
(99.88829671 0.4823443829 -3.67948478e-21)
(99.85847573 0.6645827662 2.773202483e-23)
(99.87595259 0.6291123717 -2.440757511e-21)
(99.81897554 0.7697517779 -1.335393022e-20)
(99.85017736 0.7254365526 -3.250633143e-21)
(99.82290877 0.96230018 -6.170499246e-21)
(99.84731888 0.9029625849 -5.801050793e-21)
(99.77574223 1.111065278 5.263871623e-22)
(99.81729664 1.038738646 -7.409363641e-21)
(99.80414438 1.315853386 -9.360772793e-23)
(99.83567399 1.221461967 -4.923775446e-21)
(99.7561969 1.512568799 -1.331871604e-21)
(99.80613348 1.400714752 -3.711629644e-21)
(99.82634741 1.671467892 -4.52416579e-21)
(99.86192046 1.530853579 -6.195022007e-21)
(99.79091136 1.90783098 5.79709357e-20)
(99.8415696 1.747206715 -5.037507819e-21)
(99.97705978 0.01081983756 -2.469022248e-20)
(99.9769796 0.002188365308 -1.23397737e-20)
(99.95779448 0.03204733703 -5.351914773e-20)
(99.95854381 0.01228057199 1.15765487e-20)
(99.92313342 0.07535444324 1.175334405e-20)
(99.91970542 0.04011205843 -4.531341655e-20)
(99.8831585 0.1484212678 2.737365932e-20)
(99.85690424 0.09592905175 4.930826202e-20)
(99.84395174 0.1593297639 -4.448233313e-20)
(99.89753456 0.1615580668 -8.201876302e-21)
(99.8443868 0.1794995254 -6.035993099e-20)
(99.85681794 0.2052959626 -4.079284434e-21)
(99.83737509 0.2936451032 -8.014730239e-21)
(99.81909176 0.2785560637 -3.995451749e-21)
(99.75169222 0.3374652744 2.800000774e-20)
(99.77408227 0.3703366453 7.896620089e-21)
(99.75171736 0.4993034807 -6.949528068e-21)
(99.7211293 0.4840760997 5.110409774e-21)
(99.62059446 0.5851789114 -3.951198567e-20)
(99.68797938 0.6032363238 2.814371188e-21)
(99.63739412 0.6453915329 -1.72586932e-20)
(99.66800331 0.7660363684 -7.192003604e-21)
(99.64327441 0.7609802067 0)
(99.58162845 0.8408732768 7.41519146e-21)
(99.61170286 0.8533109035 -7.176897161e-21)
(99.54695979 1.181536346 3.52779539e-21)
(99.50933065 1.184342705 1.384950864e-20)
(99.42753645 1.306231947 6.870616526e-21)
(99.47462653 1.31202827 1.722050745e-20)
(99.43186274 1.735631994 -9.876715099e-20)
(99.37669284 1.755630637 -9.21680318e-20)
(99.2782888 1.935693234 -9.251530817e-20)
(99.34884981 1.921405906 1.917252445e-19)
(99.37755227 2.414483221 3.404656003e-19)
(99.30046031 2.470517474 -3.477750031e-21)
(99.20836704 2.722257557 -2.890924904e-19)
(99.30156651 2.661791145 3.502491423e-19)
(99.46489965 3.118776279 4.534422381e-19)
(99.37157403 3.24272129 3.776039155e-21)
(99.31610869 3.558461222 3.49921917e-20)
(99.42039542 3.419397718 3.750410264e-21)
(99.96303818 0.002758151266 2.478292654e-20)
(99.97439583 -0.005038682108 -4.131553371e-21)
(99.92639101 0.01839966826 2.083532912e-20)
(99.94384581 -0.008737104588 2.893824925e-20)
(99.86076036 0.0607302826 -8.284602975e-21)
(99.87989446 0.00845528865 -4.115189059e-21)
(99.77484127 0.1554175667 0)
(99.77389595 0.05690538422 6.308409944e-21)
(99.73084548 0.1429252685 1.925532955e-20)
(99.78344424 0.1848296111 -5.639739922e-20)
(99.71794121 0.1751982992 1.44769159e-20)
(99.71803889 0.225184023 0)
(99.65286602 0.3617881101 3.45653573e-22)
(99.64256735 0.3165859829 -3.210455512e-20)
(99.54379992 0.3636870211 -3.208295749e-20)
(99.55240269 0.4333501144 6.515131541e-20)
(99.46919751 0.643956886 -9.694308326e-20)
(99.4464132 0.5802818045 3.438998243e-20)
(99.29994569 0.6677434641 -6.477636411e-20)
(99.35625121 0.7566929518 -3.219959818e-20)
(99.28748409 0.7700125173 -5.300631715e-20)
(99.26736836 1.016902939 7.69837105e-21)
(99.24261348 0.977614506 1.531363204e-20)
(99.14620026 1.0565226 3.864996394e-20)
(99.17270152 1.107172491 7.635525816e-21)
(98.98422815 1.624064006 -3.019641742e-20)
(98.94119172 1.577817245 3.700871401e-20)
(98.80887434 1.709463925 2.623827118e-19)
(98.85890245 1.768732908 2.521347282e-19)
(98.69974899 2.50737546 3.023278589e-19)
(98.62349653 2.46511927 -2.145797604e-19)
(98.46417111 2.686801674 -1.06488355e-19)
(98.55553786 2.740109473 1.013924437e-19)
(98.53920138 3.697460054 3.926352882e-20)
(98.41625063 3.692716443 -6.599343809e-19)
(98.25359898 4.042005831 3.933442723e-20)
(98.40530402 4.041231078 6.987176454e-19)
(98.75359705 5.016241558 -6.199147616e-19)
(98.52964205 5.095156373 -3.025480374e-20)
(98.50830172 5.564436363 -5.821437441e-19)
(98.64863408 5.41874626 3.7360801e-19)
(99.96028264 -0.01682643162 0)
(99.99028529 -0.01795896563 0)
(99.90378046 -0.01969184089 4.15785326e-21)
(99.94662 -0.04764507413 0)
(99.80204868 0.005304508971 1.046307154e-20)
(99.85644353 -0.05598844458 -3.590034321e-21)
(99.65879396 0.09367999329 1.854860821e-20)
(99.70545229 -0.03172637218 2.32368863e-20)
(99.61486444 0.06272112896 -7.014582112e-21)
(99.65449851 0.149086497 2.493914231e-20)
(99.5812326 0.1057685396 2.031146553e-21)
(99.56260094 0.171888692 -9.907016159e-21)
(99.42915589 0.3405411482 0)
(99.43912249 0.2682288008 -2.085452354e-20)
(99.31336898 0.2904763469 -1.710110927e-20)
(99.29185802 0.391950859 4.255560634e-21)
(99.11677262 0.6532294521 0)
(99.11798396 0.5514134772 4.25510502e-21)
(98.9274928 0.5998830194 -4.379874653e-21)
(98.94751481 0.7634644881 2.140330386e-20)
(98.8712874 0.7433107004 5.505037175e-21)
(98.74737531 1.096775159 3.10402699e-19)
(98.73707568 1.020680885 6.336289585e-20)
(98.60383224 1.08339485 -3.182935581e-21)
(98.61286564 1.173475639 1.241841181e-19)
(98.21222582 1.884806285 4.730243126e-19)
(98.18256918 1.777887043 0)
(97.99473826 1.904755399 0)
(98.02584675 2.0361636 4.590472737e-19)
(97.59983348 3.17126768 -6.680233756e-19)
(97.52050778 3.040894117 6.811618477e-19)
(97.2554496 3.301139719 0)
(97.3529831 3.462598829 0)
(97.14635839 5.110419924 -1.293935268e-19)
(96.9634596 4.999281441 7.53679507e-19)
(96.67238248 5.459249317 -8.982183154e-19)
(96.91062462 5.59088666 -1.04161808e-18)
(97.49046316 7.420675782 0)
(97.1812798 7.469064931 0)
(97.0325176 8.13498325 0)
(97.44839736 8.069244303 -5.133401809e-19)
(99.9814516 -0.04860117456 0)
(100.0361539 -0.03657072024 2.033093134e-21)
(99.90512624 -0.08380731979 -8.341985201e-21)
(99.97992237 -0.1042728291 -2.047874763e-21)
(99.76716617 -0.09259166644 8.594133723e-21)
(99.86491186 -0.1531831561 -4.16422877e-21)
(99.5573274 -0.02534866066 1.129208531e-20)
(99.67032073 -0.1721276653 3.122294713e-21)
(99.52631412 -0.08439192798 -6.770613096e-24)
(99.5280237 0.04310786521 -8.416599006e-21)
(99.46678085 -0.03699293991 -8.463303799e-21)
(99.41726837 0.03980463737 0)
(99.20234372 0.2121133274 -1.710068711e-20)
(99.24420949 0.1200939055 0)
(99.10133042 0.1052882388 -9.426918018e-23)
(99.0351035 0.2280959831 -6.084772433e-23)
(98.73766441 0.5064098373 8.785939068e-21)
(98.78381381 0.3715066306 1.321885957e-20)
(98.56070005 0.3715058266 1.777433931e-20)
(98.52101765 0.585666492 2.036254897e-20)
(98.44789374 0.5354267831 -3.719193016e-20)
(98.1676986 0.9587721814 -6.672059292e-20)
(98.19139692 0.8506910781 4.734854422e-20)
(98.02419416 0.88604688 6.584580689e-20)
(97.99455395 1.012022597 -1.895002371e-19)
(97.28204226 1.840362648 -2.48340507e-19)
(97.29553893 1.672788512 -7.636583102e-19)
(97.03560964 1.771335045 -5.133554754e-19)
(97.01245148 1.974211695 -2.525807755e-19)
(96.0533033 3.477525311 -2.333309047e-19)
(96.01697421 3.215302916 2.487361312e-19)
(95.60736908 3.449812473 2.467161564e-19)
(95.65558349 3.760958273 9.993590358e-19)
(94.8376721 6.305559609 0)
(94.62091222 5.9660391 0)
(94.0704817 6.452379439 6.859063463e-20)
(94.36154932 6.890501228 -2.814397428e-19)
(94.9264417 10.4775405 0)
(94.30714474 10.2528293 -2.366286444e-19)
(93.8378786 11.25528363 0)
(94.69738807 11.50077619 0)
(100.0387991 -0.09168355275 -1.413409709e-23)
(100.1226535 -0.06014722897 6.476788581e-23)
(99.94489287 -0.1722172334 2.126738681e-21)
(100.0559539 -0.1762843246 -7.863872098e-23)
(99.7749233 -0.2313440712 -1.116249125e-20)
(99.9208417 -0.2787251841 1.677325194e-21)
(99.50146798 -0.2123854487 -1.01233962e-20)
(99.69116037 -0.3577617723 -1.695667531e-20)
(99.49232228 -0.2937729338 -1.441185801e-20)
(99.43920064 -0.1366801131 -7.933100615e-21)
(99.40407101 -0.2514437934 -3.13708975e-21)
(99.31856445 -0.1749400828 4.181188542e-23)
(99.01612312 -0.02901150873 1.283817296e-20)
(99.09887524 -0.1298378399 1.303807697e-20)
(98.95177145 -0.1889028289 6.447586278e-21)
(98.83326254 -0.06144924869 2.215770711e-20)
(98.40472899 0.194297213 -2.68891404e-20)
(98.51070964 0.03722636908 -2.245463153e-20)
(98.27696975 -0.02312810613 -3.154291513e-20)
(98.14839754 0.2151740631 -9.051532339e-20)
(98.09472629 0.1340027075 -2.521930589e-19)
(97.6325464 0.5673060144 6.832083163e-20)
(97.7010295 0.4404418344 2.75629501e-19)
(97.52102675 0.429687362 6.65097622e-20)
(97.43780017 0.5737747985 0)
(96.31850785 1.380167462 0)
(96.41502335 1.162294615 -5.362276758e-19)
(96.10232891 1.187514983 -6.931502223e-19)
(95.97494863 1.443416768 0)
(94.23328705 3.005600506 0)
(94.32639117 2.631677931 2.11875514e-19)
(93.80228912 2.715378278 -8.210507744e-20)
(93.66207088 3.172179379 0)
(91.36613262 6.095388494 -4.742457276e-19)
(91.32635062 5.434665815 -5.705433686e-19)
(90.43214216 5.624206234 1.747775459e-19)
(90.4468165 6.49538043 -2.031786792e-19)
(88.54216945 12.73038462 3.891743029e-19)
(87.78634898 11.51904322 -4.255027399e-19)
(85.88882195 12.93424181 -2.488583152e-19)
(86.14428375 12.08938145 -2.473118506e-19)
(87.63989992 14.26954105 -2.436568845e-19)
(86.62181168 14.3379877 -2.461185352e-19)
(100.1429304 -0.1438946003 1.487185733e-23)
(100.2583939 -0.08732144799 -3.011459947e-21)
(100.0358016 -0.2802218397 -5.481981535e-22)
(100.1845752 -0.2594285271 1.313015728e-21)
(99.84212944 -0.4028209628 -4.323425333e-21)
(100.0365562 -0.4245089524 -2.847900909e-21)
(99.51542566 -0.450980457 8.91762923e-21)
(99.78422538 -0.5751773074 -9.814664357e-22)
(99.53644828 -0.5517824733 9.207804766e-22)
(99.41526143 -0.3819367324 4.337266214e-21)
(99.42158161 -0.5214073613 9.006410962e-21)
(99.29771485 -0.4575733323 6.342720776e-21)
(98.91405692 -0.3697294094 -2.173503749e-21)
(99.04254397 -0.4638631694 3.347220944e-21)
(98.9062838 -0.5675626905 2.213298879e-21)
(98.73327617 -0.4554668317 6.700990439e-21)
(98.18621518 -0.2744636181 -3.934863538e-20)
(98.35807902 -0.4275306863 -3.696659366e-20)
(98.13909716 -0.5519678978 -2.503030739e-21)
(97.92003898 -0.3213103581 1.574686724e-19)
(97.89975441 -0.431292784 -2.581812728e-19)
(97.26845489 -0.07321313008 -8.440575204e-21)
(97.38909073 -0.1985342981 -2.792902093e-19)
(97.2166279 -0.263158935 -8.436661072e-21)
(97.06982704 -0.1257309099 -1.118918367e-18)
(95.58457243 0.4417416279 0)
(95.78336598 0.222824941 1.118369885e-18)
(95.47230029 0.1494986001 0)
(95.22503255 0.3906110351 -5.90782991e-19)
(92.77608009 1.453432062 3.396712175e-19)
(93.07379421 1.071990326 1.764944033e-19)
(92.56477641 0.9422067888 1.748643934e-19)
(92.17149179 1.360708068 -3.904472372e-19)
(88.27605505 3.092061305 -4.445134233e-19)
(88.72694033 2.389106942 -4.745178519e-19)
(87.9450803 2.022640161 -4.502027999e-19)
(87.25879144 2.76616077 -4.620852309e-19)
(79.92526667 5.640550247 -1.379759885e-20)
(80.54721336 4.715902483 5.866035729e-19)
(79.6607985 4.052823079 -6.015985902e-19)
(78.73298987 5.01749621 -6.0502085e-19)
(100.3016694 -0.201835609 -1.713277995e-21)
(100.4487867 -0.1162554595 9.496930773e-22)
(100.1872658 -0.4004281461 -9.975848444e-22)
(100.3719342 -0.3479973363 -7.033639932e-22)
(99.98103454 -0.5943354938 5.090428262e-22)
(100.21951 -0.5799346727 -2.51783665e-22)
(99.61820764 -0.7240399618 5.811314561e-22)
(99.95944949 -0.8078913692 8.53085318e-22)
(99.67348135 -0.8360149314 5.072693144e-22)
(99.48007812 -0.6717151678 1.487879926e-21)
(99.53628956 -0.8247551094 -1.419203433e-23)
(99.37757299 -0.7835317502 -1.419405287e-23)
(98.93151931 -0.777745583 -2.206157659e-21)
(99.10301754 -0.8514648239 0)
(98.99122329 -0.9951212189 -1.079784052e-21)
(98.7710339 -0.9146167981 -1.141953801e-21)
(98.14064671 -0.8480353083 3.696260413e-20)
(98.3720544 -0.971874977 -1.169250244e-21)
(98.19266939 -1.153737775 -3.443050559e-23)
(97.89683434 -0.9638161142 1.164163311e-20)
(97.91505341 -1.088748148 -2.562314084e-23)
(97.1584047 -0.8728856953 -6.336727728e-21)
(97.32524459 -0.9727966419 5.591321323e-19)
(97.1752417 -1.083844335 1.071900465e-20)
(96.97671873 -0.9793973768 -8.673520855e-21)
(95.31296759 -0.7892112237 -2.395383e-19)
(95.58376758 -0.9561825627 -1.97888583e-19)
(95.32274377 -1.108327248 -8.116856255e-19)
(94.98998918 -0.9390644303 -1.198374419e-18)
(92.33783022 -0.6574929038 -8.441591925e-19)
(92.770527 -0.911767442 -1.278425717e-19)
(92.38728728 -1.170615762 -6.696866673e-19)
(91.87507895 -0.936573701 -8.254858095e-19)
(88.05194315 -0.9669188645 -9.423450198e-19)
(88.72921936 -1.284915128 8.280231279e-19)
(88.32361939 -1.7808863 4.808433793e-19)
(87.55366355 -1.558079341 -4.672931054e-19)
(82.81300623 -3.237464212 -5.705298158e-19)
(83.4317826 -3.234805099 -2.633644175e-20)
(83.37471157 -3.711192696 -5.4419569e-19)
(82.81411851 -3.820491381 2.650169273e-19)
(100.5189451 -0.2613869572 1.957192398e-21)
(100.6953576 -0.1449588482 9.615578549e-22)
(100.4038592 -0.5239302069 2.95373431e-23)
(100.6196012 -0.4357563063 1.008626508e-21)
(100.1973943 -0.7908540717 9.888518527e-23)
(100.4713227 -0.733386013 9.32798674e-22)
(99.81830215 -1.009109281 -1.426034828e-21)
(100.2192118 -1.038347782 -8.088989154e-22)
(99.90794748 -1.123255945 6.652411135e-22)
(99.64608779 -0.9822071826 -1.017273554e-21)
(99.75494749 -1.135883224 -5.137467433e-22)
(99.56856234 -1.124444387 -1.017209533e-21)
(99.08570875 -1.214210687 2.6462051e-24)
(99.29235467 -1.256059054 1.079728803e-21)
(99.21440517 -1.430133952 1.079738372e-21)
(98.9606016 -1.392418004 1.079718355e-21)
(98.29443029 -1.460092068 3.085419453e-24)
(98.56902494 -1.536104662 0)
(98.44361696 -1.759461495 2.254661274e-21)
(98.09404863 -1.631542155 -3.605648235e-19)
(98.1481043 -1.7564249 3.601985451e-19)
(97.32763229 -1.709674306 -5.613025178e-19)
(97.52597685 -1.77066823 -7.975462072e-19)
(97.40999417 -1.912382096 -5.518511533e-19)
(97.1826354 -1.853458527 -1.074530378e-18)
(95.51739201 -2.034530881 4.350265471e-19)
(95.83439045 -2.130326882 4.335804122e-19)
(95.6299481 -2.325632135 4.260735432e-19)
(95.27322254 -2.240763674 8.860087346e-19)
(92.79623966 -2.566993699 2.212508088e-20)
(93.25922243 -2.686417903 -1.629815976e-19)
(92.99588036 -2.978023653 3.502114632e-19)
(92.48983345 -2.892680376 -1.914417814e-19)
(89.39934139 -3.692615209 4.596059891e-19)
(90.0089476 -3.773784832 4.807629398e-20)
(89.78998838 -4.191759406 4.467810159e-19)
(89.17825886 -4.174549006 4.4580316e-19)
(86.31768157 -5.753345409 4.535422715e-19)
(86.65466291 -5.68743183 3.484874466e-19)
(86.640084 -5.95800188 -3.19709841e-19)
(86.26357206 -5.988310067 1.050787078e-18)
(86.37344869 -6.055622108 1.039987209e-18)
(100.7943416 -0.3184659091 7.734819307e-24)
(100.9957925 -0.1715692965 2.5355587e-21)
(100.6846686 -0.6420114115 1.889902826e-21)
(100.9248633 -0.5167950867 9.575722941e-22)
(100.4900942 -0.9771313486 6.196552571e-23)
(100.7875524 -0.8732571863 -4.742551612e-23)
(100.1135175 -1.284031644 -1.916837444e-21)
(100.5594148 -1.252592061 -8.714953889e-22)
(100.2337958 -1.391263109 -4.836400513e-22)
(99.91357952 -1.287823111 -4.987876442e-22)
(100.0715404 -1.430515539 -9.959787722e-22)
(99.86748546 -1.451439544 8.400278681e-23)
(99.37548226 -1.638259444 0)
(99.60609817 -1.641636115 1.00148001e-21)
(99.56694827 -1.834578832 1.986906764e-21)
(99.2950739 -1.84456099 1.072752534e-21)
(98.63652643 -2.04531242 1.192005072e-21)
(98.93544076 -2.065372399 -2.372622247e-24)
(98.86876109 -2.312011082 6.487319235e-20)
(98.48745986 -2.2552576 -7.254077631e-22)
(98.57151807 -2.369238576 3.452793901e-19)
(97.74260628 -2.487059334 -1.889506573e-20)
(97.95645426 -2.506403591 6.691611046e-23)
(97.87896933 -2.664417337 -2.039508747e-21)
(97.63928582 -2.651935782 5.551558291e-19)
(96.08459837 -3.127771979 1.404878895e-19)
(96.41203839 -3.156820267 -5.677341981e-19)
(96.26914552 -3.368743579 -8.576922118e-20)
(95.91166403 -3.355421843 -5.681397842e-19)
(93.71913542 -4.055169472 1.39948855e-20)
(94.16612806 -4.079076822 1.767966983e-19)
(93.99142559 -4.366347079 1.717907209e-20)
(93.51870897 -4.370636913 -3.271713506e-19)
(90.96168138 -5.417574375 -8.118491854e-19)
(91.4906719 -5.406091363 1.340969021e-21)
(91.34783501 -5.761753984 9.368012391e-21)
(90.8235531 -5.801070902 6.983437462e-19)
(88.56934897 -7.094309409 7.89144158e-19)
(88.8239097 -7.041085071 8.567450728e-22)
(88.80077073 -7.231924928 4.870583308e-19)
(88.51986917 -7.254622758 2.607469151e-19)
(88.59750164 -7.303227248 6.961469018e-19)
(101.1234558 -0.3692224976 3.486187486e-21)
(101.0241825 -0.7467399884 -9.309776289e-22)
(100.8501782 -1.140456711 -9.309472736e-22)
(100.4899671 -1.531116829 0)
(100.2713553 -1.566232955 6.263831355e-24)
(100.2596862 -1.738686098 1.894908445e-21)
(99.78557454 -2.015650054 -1.000273937e-21)
(100.0280955 -1.978450418 -1.081326939e-21)
(99.75317549 -2.236144355 1.063527212e-21)
(99.13529978 -2.555152035 6.681651449e-22)
(99.44160181 -2.518473419 -6.040158825e-20)
(99.03922621 -2.78631876 -3.805311664e-19)
(99.14609147 -2.88178763 2.745319058e-19)
(98.3517444 -3.144548927 5.297299842e-19)
(98.56757749 -3.12409957 4.791055308e-19)
(98.52757013 -3.285300366 4.8813256e-19)
(98.28941039 -3.315768386 9.994289981e-19)
(96.90070891 -4.00675573 -5.896575091e-19)
(97.22079043 -3.978905814 -6.549943952e-19)
(97.13293944 -4.190128107 -6.432782674e-20)
(96.78962481 -4.235099056 -4.488586396e-19)
(94.87827147 -5.172912112 -2.539102676e-21)
(95.30105818 -5.128527063 -1.733013975e-20)
(95.19460163 -5.401759387 -2.485732952e-20)
(94.75127595 -5.469605405 -1.435381676e-19)
(92.51366204 -6.670569045 -3.527604978e-19)
(93.00768934 -6.607386489 -2.490522078e-20)
(92.91565642 -6.9394365 -3.527583139e-19)
(92.41066867 -7.018545184 -2.724491232e-19)
(90.30076933 -8.269899361 -3.586576246e-19)
(90.53949652 -8.238705223 -8.867891302e-20)
(90.51812216 -8.430413794 -1.364271825e-21)
(90.23384123 -8.430626019 3.437602995e-19)
(90.30542734 -8.494337214 3.384654263e-19)
(82.90026341 -2.7057668 -5.556384509e-19)
(82.1730425 -3.325667024 -5.602790158e-19)
(82.21748456 -2.665623711 -1.135194359e-18)
(86.33185064 -5.469092246 -3.447816326e-19)
(85.97991866 -5.533834546 -4.640498087e-19)
(85.92750187 -5.784755149 -7.612315553e-19)
(86.04222276 -5.855709288 -7.540380336e-19)
(88.59006664 -6.895498882 -3.503803469e-21)
(88.32783529 -6.954632525 3.97962185e-19)
(88.28039852 -7.120380519 7.110240271e-19)
(88.36153452 -7.167589653 2.650346435e-19)
(90.32472591 -8.080912917 -2.702806451e-19)
(90.08677442 -8.111731903 8.900096222e-20)
(90.02026619 -8.269903691 -1.798569142e-19)
(90.09058351 -8.332499557 -9.858972068e-19)
(80.96426948 6.164747206 5.66711753e-19)
(79.20816457 6.81313397 5.914721303e-19)
(80.52250916 7.172958399 5.891701159e-19)
(89.65093999 -3.254122295 1.088975353e-20)
(88.7538147 -3.645842729 -4.660632255e-19)
(89.01728772 -3.13231227 -9.098157658e-19)
(86.66786859 -5.40792054 -4.506071572e-19)
(86.34387285 -5.173359927 0)
(86.70784681 -5.132950681 0)
(83.52396799 -2.693175955 -1.073971833e-20)
(84.10198595 -2.746753791 -5.465028056e-19)
(83.99377452 -3.195588132 5.213111476e-19)
(91.1182913 -5.050310564 -1.211223965e-18)
(90.42319392 -5.447780348 -8.237386743e-19)
(90.57333053 -5.045705175 -8.130370001e-19)
(88.84412205 -6.848165958 -7.974167932e-19)
(88.60789737 -6.69509304 8.095278476e-19)
(88.87846012 -6.652548123 -8.0175629e-19)
(87.01575562 -5.365955441 -4.50727337e-19)
(86.97813069 -5.626641399 -1.706965625e-21)
(87.5362262 -6.499770396 -4.346059964e-19)
(87.55014148 -6.263590764 3.093079743e-19)
(87.24865399 -6.329972654 8.718050235e-19)
(87.20106849 -6.534895607 4.040225808e-19)
(87.30065205 -6.586552468 3.96967454e-19)
(86.61005522 -7.499083496 1.118483273e-21)
(86.46322912 -7.554578355 4.016351231e-19)
(86.44899226 -7.443859088 9.903454279e-20)
(86.61166857 -7.38507409 0)
(86.40828054 -7.544234327 1.925561885e-21)
(85.23187943 -6.891800567 4.130520137e-19)
(85.17454822 -7.005797601 6.973076943e-19)
(85.41405714 -6.847940915 4.165249691e-19)
(85.40432343 -6.983646247 2.032929854e-19)
(85.23176097 -7.042253537 -5.66588985e-19)
(92.62022843 -6.335232117 0)
(92.00796542 -6.736679183 3.626879563e-19)
(92.12100621 -6.38548362 0)
(90.56346508 -8.049459925 0)
(90.35066503 -7.89433775 0)
(90.59365415 -7.861580764 3.502891849e-19)
(89.10772904 -6.806716143 -3.931538583e-19)
(89.07218379 -6.998026368 3.757652278e-19)
(89.45420123 -7.655624909 2.793472249e-19)
(89.48243762 -7.473285431 3.768018217e-19)
(89.24130476 -7.511073349 -3.853286076e-19)
(89.18385997 -7.664171374 6.75452613e-19)
(89.25335719 -7.719752637 -5.956780468e-19)
(88.3732186 -8.316493118 6.675392896e-22)
(88.2823141 -8.315307189 7.457531123e-22)
(88.33510116 -8.283244707 -2.730620686e-19)
(88.41444922 -8.280520097 2.727063803e-19)
(87.67087548 -7.873567524 3.722488917e-19)
(87.60117752 -7.940652685 2.473849262e-19)
(87.81195167 -7.838261863 1.014634553e-20)
(87.78258124 -7.923254346 3.724410852e-19)
(87.63761398 -7.954769635 6.461230985e-19)
(90.80630992 -8.015871468 0)
(90.77950132 -8.205806999 0)
(91.26530149 -8.867074236 0)
(91.24877936 -8.753693687 0)
(91.13498921 -8.889490084 2.695093014e-21)
(91.13474207 -8.789094313 0)
(89.69549342 -9.683245928 -2.54232238e-19)
(89.50385249 -9.67187944 2.493078259e-19)
(89.65621436 -9.630707155 2.572412782e-19)
(89.79632589 -9.635259844 -5.035063103e-19)
(89.03625936 -8.971378822 -2.662438121e-19)
(88.95218843 -9.012793532 -1.259451472e-21)
(89.14357669 -8.96975808 -2.632008982e-19)
(89.08440437 -9.013563223 -2.658046534e-19)
(74.75931881 -4.554571083 0)
(75.64770835 -4.377763608 0)
(75.81242051 -5.127943185 0)
(74.80825433 -5.411667913 7.711881352e-19)
(75.19486809 -5.547954618 7.301220083e-19)
(81.02484203 -6.42474219 5.254992865e-19)
(80.83051512 -6.127171524 -2.01346822e-20)
(80.49124084 -6.376912414 1.171232322e-18)
(80.66123257 -6.690656152 6.953183822e-19)
(80.83012845 -6.68768385 1.20561001e-18)
(69.7495964 6.88610658 0)
(68.83943612 8.158726507 9.239966012e-19)
(68.63085093 5.844820267 0)
(67.28084342 7.183178786 0)
(74.65736714 -3.73064539 0)
(73.83973809 -4.868688421 -1.703115218e-19)
(73.66564152 -3.830635576 0)
(85.0612431 -6.947759983 4.235951551e-19)
(85.06218925 -6.801394013 0)
(85.24340189 -6.756557643 -4.063646571e-19)
(85.0062286 -6.912099803 -8.45068829e-19)
(83.77959514 -6.452302861 -4.531445321e-19)
(83.75590358 -6.315454496 -1.03490393e-21)
(83.95035242 -6.231873829 4.334628939e-19)
(83.97101501 -6.367501319 8.768249e-19)
(84.82349006 -4.760569103 5.141403018e-19)
(85.24947502 -4.70679995 0)
(85.23410452 -5.037487243 2.444687045e-19)
(84.85784154 -5.135309382 -1.25257603e-19)
(83.58347503 -6.55005817 1.183750951e-19)
(83.79352348 -6.588647375 -4.500486695e-19)
(83.55985334 -6.663893223 -3.005126578e-19)
(83.62839673 -6.666627183 6.6059966e-19)
(85.06273057 -7.020734914 6.34514392e-19)
(84.95499897 -7.038437485 6.405132611e-19)
(84.97461237 -6.973090644 -3.1613888e-19)
(81.32291454 -6.19027113 1.713773783e-22)
(81.49095838 -6.450193242 -1.001882888e-18)
(81.15327095 -6.684906366 -3.433538423e-19)
(81.29645601 -6.675841415 -3.433193023e-19)
(83.56027227 -6.410727531 5.716490395e-19)
(83.35866171 -6.517565501 1.087632388e-19)
(83.34498974 -6.638170196 8.590229736e-19)
(83.41799761 -6.640049687 -5.823341007e-19)
(87.52728706 -7.906312201 4.003923905e-19)
(87.55631735 -7.824660901 3.772571922e-19)
(87.69767513 -7.786685815 0)
(87.49070251 -7.892407168 0)
(86.56874502 -7.593750256 -3.97584114e-19)
(86.76838577 -7.440521504 -3.793399652e-19)
(86.76471466 -7.549581036 3.878219385e-19)
(86.62111733 -7.602038411 -3.959340059e-19)
(87.8268389 -6.4333883 -1.159580169e-18)
(87.81210664 -6.659865646 -3.190266937e-19)
(87.49144141 -6.694040406 -2.126934836e-19)
(87.58610111 -6.742088399 -6.74827507e-19)
(86.47111219 -7.618732463 3.096961543e-21)
(86.54371233 -7.641194723 -5.991019374e-19)
(86.45242238 -7.667518689 2.888477275e-19)
(87.51311726 -7.952166538 2.997876231e-19)
(87.41842585 -7.963168739 -1.074243087e-20)
(87.45405779 -7.928081033 2.998786561e-19)
(85.14346529 -7.068398479 -3.152476592e-19)
(85.03887065 -7.086990951 3.178267202e-19)
(86.37311822 -7.644818641 3.055085214e-19)
(86.38417996 -7.594411338 3.02912231e-19)
(88.90525111 -8.970181762 5.326230608e-19)
(88.98900296 -8.928323621 2.638476613e-19)
(89.09547688 -8.927345101 0)
(88.31795749 -8.349444534 0)
(88.45385709 -8.315037928 0)
(88.41115329 -8.351955134 0)
(89.69313999 -7.62093749 -9.910377958e-20)
(89.6647032 -7.80399834 -4.682844209e-19)
(89.39328753 -7.808643173 7.745542349e-19)
(89.46190008 -7.866215262 -4.860279243e-19)
(88.2262253 -8.348379618 7.453104379e-23)
(88.25984123 -8.383761998 -2.873510366e-19)
(88.14549009 -8.376680176 -2.933894095e-19)
(88.81828065 -9.012500472 8.103332042e-19)
(88.63545287 -9.005584568 5.441423955e-19)
(88.7727127 -8.969313178 -7.942112233e-19)
(87.56335544 -7.975912208 2.986001927e-19)
(87.47220263 -7.987069389 0)
(88.11498519 -8.343233673 2.908431883e-19)
(88.19231103 -8.315966924 -2.81979149e-19)
(89.53920808 -9.724098243 -5.118535421e-19)
(89.84028116 -9.687655353 2.508422784e-19)
(89.73973932 -9.734865844 0)
(91.25376987 -8.96854187 2.609228041e-21)
(89.34459355 -9.711530349 -5.960203539e-21)
(89.38006493 -9.760171471 -5.159522953e-19)
(89.05225447 -9.738584174 2.496094764e-20)
(88.86524779 -9.054531216 2.704952637e-19)
(88.68042728 -9.048216106 2.725475052e-19)
(89.03270133 -9.69241356 1.042652632e-18)
(89.3192454 -9.659680397 5.111626625e-19)
(88.53500357 -0.4650318415 -4.967111154e-20)
(87.24847406 -0.6403697674 -4.712288703e-19)
(87.87145025 -0.05286286566 -1.494791935e-20)
(83.04199355 -2.104538513 5.595010215e-19)
(83.66438099 -2.205987066 8.76384701e-22)
(81.58709015 5.234074381 1.164401415e-18)
(82.08490752 4.41881099 1.191697431e-18)
(81.32157494 3.915937044 1.181523653e-18)
(80.44338496 -0.102360664 0)
(80.85053768 0.6581305544 0)
(79.41760207 0.1953127053 0)
(79.98961032 1.117559908 0)
(75.55339596 -3.542769557 0)
(74.65113975 -2.795738029 0)
(75.52951094 -2.794371119 0)
(71.0759057 7.719858686 -3.451217993e-20)
(71.83789486 6.587881516 0)
(70.83086884 5.795715387 0)
(84.84243954 -4.403929452 5.14457742e-19)
(84.41648193 -4.868393998 1.267081754e-19)
(84.37832513 -4.456074405 5.143118649e-19)
(83.52547065 -6.269354492 -1.036000098e-21)
(83.72734047 -6.174468058 -1.308068664e-18)
(81.12784054 -5.893842146 -5.435230775e-19)
(81.44567005 -5.70495045 5.077277e-19)
(81.58966655 -5.978832723 5.040344463e-19)
(80.61871624 -5.789147863 -5.135208712e-19)
(80.97456617 -5.592851146 -5.246610708e-19)
(76.35228299 -3.466576403 0)
(76.42771267 -4.138634644 0)
(81.28824064 -0.4111918421 0)
(80.9980861 -1.123563459 0)
(80.06451026 -0.9852955749 0)
(78.02370413 -9.276495509 1.71487332e-18)
(78.3173225 -9.046553623 2.359392698e-19)
(78.45106065 -9.060706842 1.70179625e-18)
(78.071574 -9.405330302 8.44137376e-20)
(55.23487961 9.824183844 -1.685782387e-18)
(54.15182263 11.48017249 -1.664268541e-18)