/*--------------------------------*- C++ -*----------------------------------*\
| =========                 |                                                 |
| \\      /  F ield         | OpenFOAM: The Open Source CFD Toolbox           |
|  \\    /   O peration     | Version:  v2012                                 |
|   \\  /    A nd           | Website:  www.openfoam.com                      |
|    \\/     M anipulation  |                                                 |
\*---------------------------------------------------------------------------*/
FoamFile
{
    version     2.0;
    format      ascii;
    class       volVectorField;
    location    "2.28";
    object      U;
}
// * * * * * * * * * * * * * * * * * * * * * * * * * * * * * * * * * * * * * //

dimensions      [0 1 -1 0 0 0 0];


internalField   nonuniform List<vector> 
3019
(
(99.9989354 0.002571551918 -3.95841243e-21)
(99.99853821 0.008762219935 8.092500053e-26)
(99.99748919 0.01878858366 -3.953094061e-21)
(99.99574292 0.03518048237 -3.931015139e-21)
(99.99972881 0.0279670543 3.797777587e-21)
(99.99781819 0.04649682604 0)
(99.99662973 0.07549108084 0)
(99.99622224 0.1157838444 -6.725735584e-21)
(99.99507228 0.1698336576 7.875262452e-22)
(99.99418075 0.2370828818 -5.194475523e-21)
(99.99406993 0.3111303183 6.390762813e-22)
(99.99535595 0.3785563615 0)
(99.99054294 0.006645059846 1.585116803e-20)
(99.98615408 0.02306923418 3.960861998e-21)
(99.9764073 0.05028827788 2.767842327e-20)
(99.95981857 0.09522177577 -1.185493623e-20)
(99.96163363 0.1311823608 3.82522801e-21)
(99.93601158 0.2207527122 -4.155510649e-23)
(99.90182628 0.3587901373 0)
(99.88267445 0.4858430494 -6.749744671e-21)
(99.84230393 0.72088453 -6.281971822e-21)
(99.80732511 1.021089069 -1.102261969e-20)
(99.79381117 1.362760025 -4.594419687e-21)
(99.82183581 1.686314731 -6.003557403e-21)
(99.97523846 0.007858432618 -1.581586393e-20)
(99.96291658 0.02844029233 -3.174967749e-20)
(99.93633262 0.06514224011 -7.124666948e-20)
(99.89210382 0.1276973908 9.481023034e-20)
(99.86842665 0.2026228774 -7.832786007e-21)
(99.79174947 0.353051144 -7.639050075e-21)
(99.68691756 0.586697281 -1.326715623e-20)
(99.62460395 0.8462074655 0)
(99.49531616 1.287572751 2.600755389e-20)
(99.37982732 1.869321485 1.035473484e-19)
(99.34024509 2.561808095 -1.955402641e-20)
(99.45187921 3.250614283 -6.008109842e-20)
(99.95930704 0.004506011453 -7.967133854e-21)
(99.9357968 0.01950871373 5.578737249e-20)
(99.88579235 0.05464420213 -1.595953536e-20)
(99.80385427 0.1193239333 0)
(99.73767085 0.2225655933 0)
(99.58738785 0.4126275656 -6.167697763e-20)
(99.37661982 0.7181922372 -1.234607028e-19)
(99.20199467 1.09590736 2.913394851e-20)
(98.90546958 1.728755341 -5.638546902e-20)
(98.62166592 2.623042594 9.916691077e-20)
(98.48317859 3.79147752 -2.106494756e-20)
(98.70977544 5.055376937 -4.920161866e-19)
(99.95357493 -0.004460228333 0)
(99.91711974 -0.00716663187 0)
(99.84037566 0.01243866439 8.042695133e-21)
(99.71375358 0.06266131166 1.215844317e-20)
(99.59491611 0.1779714487 2.011650437e-20)
(99.34991028 0.3760224665 0)
(99.00461064 0.699729908 0)
(98.66245745 1.161622396 0)
(98.11384679 1.953172347 0)
(97.50159589 3.186361445 -6.696057719e-19)
(97.04520892 5.015934157 -8.125969513e-19)
(97.35262415 7.268242846 3.170868319e-19)
(99.97011965 -0.01937347611 0)
(99.92053121 -0.05260031933 0)
(99.81748371 -0.0644050737 -1.611795407e-20)
(99.64470394 -0.04641879384 3.27919751e-20)
(99.4642825 0.05910027349 0)
(99.11897739 0.2259506752 0)
(98.61980154 0.5179037428 2.563920196e-20)
(98.07542442 0.9978980233 0)
(97.19200531 1.823886163 5.20447436e-19)
(95.98958245 3.283774115 -2.559194971e-19)
(94.71932014 5.833815795 0)
(94.51288299 9.8827296 0)
(100.0205292 -0.03983259441 3.938372676e-21)
(99.95921354 -0.115210427 -3.966970654e-21)
(99.83356634 -0.1734167144 8.090234689e-21)
(99.62043926 -0.2064358138 -2.960177073e-20)
(99.37541999 -0.1342693322 6.992501191e-23)
(98.93963152 -0.03747529749 2.526737371e-20)
(98.29955179 0.1673676919 -5.228714672e-20)
(97.55667585 0.5672045529 0)
(96.29126948 1.260976201 -1.420531073e-19)
(94.32541939 2.577928156 7.573172799e-20)
(91.47968994 5.111974147 3.76724712e-19)
(87.90558646 11.1237903 -6.396992063e-21)
(100.1147149 -0.06471469039 -3.938790983e-21)
(100.0445335 -0.1914167131 3.968399921e-21)
(99.90254686 -0.3074298665 -5.033917778e-21)
(99.66062095 -0.4061881593 -3.381972098e-21)
(99.36025755 -0.3892030913 1.441400085e-20)
(98.85631059 -0.3937317719 8.573264073e-21)
(98.1148891 -0.3314141612 -4.443381766e-21)
(97.23046492 -0.1039070422 -3.516745877e-20)
(95.67099594 0.2605058414 6.011131963e-19)
(93.15210913 0.924939417 0)
(89.07538163 1.90908542 -4.546046531e-19)
(81.45209521 3.497778283 0)
(100.2598741 -0.09231287884 -1.899709598e-21)
(100.1847548 -0.2759350653 -1.427478032e-21)
(100.0346056 -0.4564055633 -4.889854371e-22)
(99.77854082 -0.6294469568 1.480328016e-21)
(99.43820489 -0.6831029084 -2.713464812e-23)
(98.89961919 -0.8070972348 0)
(98.11495049 -0.9157839091 2.115569171e-20)
(97.16788757 -0.9087477852 0)
(95.51187807 -0.9561505919 7.582343121e-20)
(92.96421867 -1.062801745 -1.778697617e-19)
(89.35031014 -1.641848607 0)
(85.03698152 -3.67301984 0)
(100.4595228 -0.120575711 3.74434666e-21)
(100.3838389 -0.3624564764 5.58494214e-23)
(100.2344876 -0.6086085615 0)
(99.98014029 -0.8580628558 1.944721358e-22)
(99.61846736 -0.9898778461 -1.980684671e-21)
(99.08104161 -1.235706893 2.106096077e-21)
(98.31423204 -1.516075112 2.006052166e-23)
(97.38221891 -1.724837419 5.591389369e-19)
(95.80434772 -2.133672447 -5.353548393e-19)
(93.52180701 -2.765390487 3.139468369e-19)
(90.68104157 -3.883282205 4.284691861e-19)
(87.9918559 -5.576484725 -4.287381378e-19)
(100.7131389 -0.1475192799 -1.844476439e-21)
(100.641013 -0.4447417558 1.860291263e-21)
(100.500651 -0.7525159839 1.815773623e-21)
(100.2643557 -1.074496582 -1.695710262e-21)
(99.89771008 -1.283990849 -1.954644986e-21)
(99.3935147 -1.639740704 0)
(98.69229445 -2.071373577 -3.55096036e-20)
(97.83049476 -2.465463474 5.313050232e-19)
(96.41475276 -3.143170533 9.765267822e-21)
(94.43964531 -4.080786119 -3.337217318e-19)
(92.07882358 -5.358558244 3.860220654e-19)
(89.87565328 -6.747569474 5.711636298e-19)
(101.0163154 -0.1713889894 6.778767445e-21)
(100.9513807 -0.5171911771 0)
(100.8262247 -0.8763888761 -1.812227154e-21)
(100.6190612 -1.269151853 0)
(100.2585485 -1.544561481 0)
(99.81775451 -1.98764032 -5.817063574e-21)
(99.21401132 -2.539165115 6.054933501e-20)
(98.45756475 -3.078314921 1.633492804e-20)
(97.24256243 -3.943848355 0)
(95.55427401 -5.082309091 -2.940697689e-19)
(93.48169653 -6.506159199 0)
(91.37475509 -7.915997758 -3.42486511e-19)
(84.50002284 -3.264053256 0)
(87.71264869 -5.398082855 0)
(89.67339585 -6.616876068 -3.812468362e-19)
(91.18340812 -7.755990554 0)
(81.74646202 4.96328905 0)
(90.32859149 -3.419664986 2.212822645e-21)
(88.0111107 -5.096221729 0)
(85.57100437 -3.180514267 -1.002176675e-22)
(91.73328857 -5.031870736 3.873678957e-19)
(89.91550055 -6.402062958 3.807455093e-19)
(88.28369221 -5.289166641 -4.27876334e-19)
(88.76888048 -6.063078886 6.048187875e-21)
(87.98181159 -6.975896071 2.819082556e-19)
(86.9537186 -6.488610903 0)
(93.12187397 -6.238597755 7.034358097e-19)
(91.41891365 -7.559325653 0)
(90.11482528 -6.542586878 0)
(90.44495715 -7.15356364 0)
(89.48665039 -7.781747189 -2.657130686e-19)
(88.98536494 -7.378436389 -7.210829447e-19)
(91.60959686 -7.715152295 3.408951914e-19)
(92.08997363 -8.400886305 2.135751446e-21)
(90.58937171 -9.174607464 5.004144538e-19)
(90.07261094 -8.492089679 -2.601568813e-19)
(78.32246354 -5.539548131 0)
(83.29429273 -6.335075318 -2.371615643e-19)
(71.24025871 4.626738546 1.450501122e-18)
(77.2942479 -5.056063421 0)
(86.81384597 -6.405576459 0)
(85.79784987 -5.99916483 4.110127086e-19)
(86.755946 -4.78885142 4.650779014e-19)
(85.64484127 -6.178073433 -1.061439054e-19)
(86.68438569 -6.530240985 -2.959408437e-19)
(83.71836016 -6.310585058 1.146657799e-19)
(85.4767674 -6.161295903 4.27241165e-19)
(88.89141588 -7.329891945 7.235497378e-19)
(88.1159763 -7.023938914 5.546985256e-19)
(89.0098223 -6.21062066 8.038253726e-19)
(87.94309421 -7.118261674 -1.052549055e-21)
(88.75546073 -7.408338028 2.879933938e-19)
(86.75309085 -6.579338145 2.94770382e-19)
(87.87598991 -7.090960109 2.846867155e-19)
(90.03129057 -8.447475011 0)
(89.5167928 -7.817878112 -1.56650376e-22)
(90.62797488 -7.297365175 3.59903074e-19)
(89.36461036 -7.843911194 -9.700261234e-23)
(89.80750838 -8.486182144 5.311636252e-19)
(88.80027479 -7.436696153 8.595193466e-22)
(89.33890921 -7.808820308 5.523054351e-19)
(90.62405129 -9.229075557 -5.022538657e-19)
(92.19669381 -8.490060164 -2.59408745e-19)
(90.24861287 -9.256260003 -5.124620286e-19)
(89.84719657 -8.530041726 -5.332021006e-19)
(90.226162 -9.20417824 -1.084870603e-18)
(89.10589759 -0.8807568591 -9.268665445e-19)
(85.12307271 -2.737615455 0)
(82.9814726 3.372245039 -5.532083715e-19)
(82.18414459 -0.4051393659 0)
(77.97373842 -4.06457056 -6.139706362e-19)
(73.30378621 4.596824146 -1.444683931e-18)
(86.38491999 -4.558864745 -4.843887493e-19)
(85.62218351 -5.969867051 0)
(83.74994865 -5.887803967 4.69357448e-19)
(83.32574747 -5.853267046 -4.779793368e-19)
(78.83692477 -4.577255344 1.205883929e-18)
(82.73062068 -1.358919991 0)
(81.28369271 -8.949963465 0)
(57.34061908 6.152712285 0)
(66.12029201 -8.747579781 0)
(79.26691209 16.64673465 0)
(71.47736009 6.79715486 0)
(90.37534477 -8.822825486 5.411175358e-19)
(91.22368321 -8.567818734 2.181953983e-21)
(91.52422766 -8.841663806 5.944253326e-19)
(77.37008081 -10.85740389 -1.669867571e-18)
(80.88655134 -9.188893996 0)
(80.92110136 -6.233346143 1.357193953e-19)
(81.04295186 -8.885666185 0)
(77.39741962 -9.950946229 1.934026784e-18)
(82.95462588 -7.660432799 8.431766351e-19)
(81.40990983 -8.692378763 0)
(81.61993593 -6.302107761 0)
(72.91942888 -1.081291468 0)
(67.12959024 -7.163428709 0)
(60.05631398 5.940899543 0)
(76.59037156 -9.943927055 5.371155894e-19)
(68.52461967 -8.044067106 0)
(73.97389819 -2.493700812 6.960512734e-19)
(67.78388252 -9.6197633 0)
(76.60573319 -10.80034704 0)
(86.1617843 -6.249682652 -2.973148944e-19)
(84.51995802 -6.585184165 0)
(86.22805488 -6.27969243 7.219950197e-22)
(84.64513743 -6.193447212 4.342536976e-19)
(83.95347751 -6.875464338 4.500964388e-19)
(83.07529102 -7.544871776 -1.771836235e-18)
(84.48235424 -6.581322337 -4.510307093e-19)
(84.03309157 -6.792749883 1.343187934e-18)
(84.88419437 -6.167942804 -6.521762315e-19)
(88.36591179 -7.244750343 -5.688423297e-19)
(88.41981477 -7.268569749 0)
(87.28001424 -6.862433903 5.87466281e-19)
(87.35694645 -6.903587439 -2.926873596e-19)
(89.58452473 -8.133806928 -2.843048535e-19)
(89.61560767 -8.172945667 -1.404061201e-19)
(89.08707038 -7.595109819 -2.690418249e-19)
(89.12237985 -7.621129959 5.36308729e-19)
(91.62974592 -8.936636258 -2.967215469e-19)
(90.09838979 -8.800437855 -5.639563869e-19)
(90.12435247 -8.84422245 -5.686186343e-19)
(67.50474823 23.06372597 0)
(57.56089314 9.059063362 0)
(89.24967482 -7.585932368 1.908922196e-22)
(89.79397465 -7.317751031 3.216875738e-19)
(90.05494597 -7.514471206 0)
(89.41698283 -7.080048871 0)
(89.70333956 -7.256133094 -3.261343257e-19)
(89.2115643 -7.561408143 -5.221041696e-19)
(90.84568937 -8.22234537 0)
(91.12795746 -8.479090223 -3.026411382e-19)
(90.34289321 -8.777034397 8.082242748e-19)
(88.59075071 -7.195494446 -3.636201565e-19)
(88.99817448 -6.852707515 -1.414404654e-21)
(89.3166429 -7.022498749 0)
(88.2016607 -7.52106462 0)
(88.0978079 -7.455302909 -3.20654978e-19)
(88.61930786 -7.345341093 2.854817849e-19)
(89.79112283 -8.141024445 1.335842432e-19)
(90.484648 -7.892183765 0)
(90.75349696 -8.138055479 2.061638042e-21)
(90.1398446 -7.5856942 -6.345430899e-19)
(90.39707441 -7.812647529 0)
(89.75575913 -8.099996857 5.397050797e-19)
(89.4472794 -7.965551241 2.816969252e-19)
(88.38356186 -7.996786813 0)
(88.36574609 -7.844706673 1.258752326e-18)
(87.79758757 -8.472546253 -2.741999235e-18)
(87.75388999 -8.338708964 0)
(89.70262168 -8.343532352 -5.250177053e-19)
(88.93219958 -7.50256232 0)
(88.3450755 -7.617353601 0)
(88.24083056 -7.546384739 0)
(88.36454484 -7.812555782 0)
(88.33907692 -7.751657556 -1.217980353e-18)
(89.25604619 -7.720041696 2.72080412e-19)
(89.96893887 -8.650196631 -2.717269813e-19)
(87.99621892 -8.637934764 3.441367287e-19)
(87.83058245 -8.529782035 0)
(88.04138892 -9.023721647 -2.583372912e-18)
(90.21581977 -9.059901598 0)
(82.08046759 -8.336667538 0)
(82.32631351 -8.193629603 1.19981272e-18)
(59.57512482 -2.253100746 0)
(61.01794478 -4.396875226 0)
(79.13444239 -10.12121632 -1.05313183e-18)
(79.62145297 -9.847053902 0)
(79.78659594 -9.425955422 0)
(79.73901384 -7.763135793 -8.975976065e-19)
(81.09432569 -7.675780851 -8.431382796e-19)
(77.46643752 -7.574337157 -5.112584108e-19)
(79.2223606 -7.759635974 -9.252067811e-19)
(79.28583766 -9.608788119 8.932375333e-19)
(82.50424808 -8.046435082 2.03421657e-18)
(82.67029054 -7.318269371 0)
(83.30445744 -7.088622469 -6.922231291e-19)
(81.48194071 -7.620977901 4.103660056e-19)
(82.41936477 -7.396892604 0)
(82.25317458 -8.16634712 1.154809291e-19)
(73.6100457 -9.796884399 0)
(74.46553142 -6.79781942 0)
(76.76364489 -7.447197418 5.259994605e-19)
(72.18539757 -10.99354845 0)
(73.50607789 -11.05367684 0)
(84.78274423 -6.588052907 9.33272976e-19)
(85.52382274 -6.458698597 -7.206143564e-19)
(85.64720418 -6.491832246 -6.514412688e-19)
(85.24836049 -6.440486301 0)
(85.46013088 -6.453022471 3.643380539e-19)
(84.7181859 -6.610611701 -4.585068479e-19)
(85.85740367 -6.645277855 -6.581523085e-19)
(86.00321351 -6.795792646 6.729969965e-19)
(85.67916256 -6.518219337 0)
(85.8123453 -6.607864653 6.521195479e-19)
(83.63528387 -7.111578386 0)
(84.10154888 -6.762179467 -6.921859758e-19)
(84.46595453 -6.614647526 -3.492501293e-19)
(83.48340138 -7.017660743 0)
(83.96225012 -6.821371682 1.380391103e-18)
(83.52062411 -7.210186374 -1.793536511e-18)
(84.28812822 -6.683038141 -1.350569928e-18)
(84.93669361 -6.477446506 -3.56179895e-19)
(85.17642022 -6.442393361 0)
(84.57140781 -6.574069765 7.013668723e-19)
(84.84938058 -6.494082722 -7.118438032e-19)
(84.20108627 -6.701460631 4.496598334e-19)
(87.36760074 -7.392624276 1.227838172e-21)
(87.50584948 -7.439688581 -3.257883855e-19)
(87.17078246 -7.406405863 3.072981178e-19)
(87.32929378 -7.388384277 -1.268607352e-18)
(87.7125293 -7.466313826 6.697625239e-19)
(87.79690447 -7.536465568 1.371282677e-18)
(87.55966774 -7.449583014 0)
(87.68610179 -7.456735562 -6.649748565e-19)
(86.38486593 -7.069046806 1.382073307e-18)
(86.63906813 -7.182792683 3.527814675e-19)
(86.06372971 -6.857767157 -6.774992532e-19)
(86.30024875 -7.02466724 1.373966234e-18)
(87.03990111 -7.326272687 3.576132712e-19)
(87.13718023 -7.389841333 6.175973672e-19)
(86.72322832 -7.214973384 1.416680899e-18)
(86.9682687 -7.300330516 3.614593147e-19)
(88.52211068 -8.181219487 -3.359006325e-19)
(88.41234768 -8.058521744 0)
(89.47954509 -8.009369234 -5.66140527e-19)
(87.46117808 -8.031684916 0)
(87.60264269 -8.139083746 7.475222143e-19)
(87.44797471 -7.779657824 -1.08785751e-18)
(87.42602382 -7.955983564 1.478666863e-18)
(87.59042302 -8.165049642 0)
(89.68223371 -8.294600331 2.55427735e-19)
(87.86778221 -8.295328409 0)
(88.51123566 -8.217887055 0)
(88.25012114 -7.697460196 2.87870171e-19)
(88.37108174 -7.650486957 0)
(88.97289739 -7.530057755 1.410154522e-19)
(87.94056941 -7.664329893 0)
(87.39042715 -7.680562425 -6.63950523e-19)
(87.83472854 -7.564161417 0)
(87.91718825 -7.637094596 1.788982035e-19)
(87.45225991 -7.708089972 1.432109002e-18)
(87.45911656 -7.75136385 1.086210895e-18)
(87.38825306 -7.681845481 -6.926061835e-19)
(87.4393587 -7.698704903 0)
(89.22514263 -7.694250253 -5.411461409e-19)
(88.32331628 -7.737644642 -6.035220565e-19)
(88.26134593 -7.711619815 5.832978658e-19)
(88.09424525 -8.71643463 3.488338014e-19)
(88.03630728 -8.656668053 -1.177882267e-21)
(90.00609915 -8.686421389 -1.101161049e-18)
(90.19589007 -9.00038494 1.426908438e-19)
(88.03168951 -8.953157162 1.87470731e-19)
(88.09210102 -8.744738343 0)
(87.54759587 -6.799805878 0)
(87.99313946 -6.353988884 0)
(88.39572276 -6.557530776 3.432935227e-19)
(87.43247758 -6.044304944 -7.180577792e-19)
(87.8541268 -6.279924168 0)
(87.39720289 -6.728899102 -3.830834403e-19)
(88.52359845 -6.62032111 0)
(88.88518055 -6.79572785 0)
(88.4806435 -7.15326124 5.502332113e-19)
(88.13595592 -7.169975481 3.318881946e-22)
(87.67509177 -7.352848755 -5.982609198e-19)
(87.49399028 -7.331428768 2.952382361e-19)
(87.43864354 -7.312438952 2.988749716e-19)
(87.25855221 -7.250916478 0)
(87.66170105 -7.024960279 5.813513251e-19)
(81.61175301 -8.693405434 0)
(78.0421092 -10.68514876 1.840880694e-18)
(77.05083084 -11.10466292 4.134174544e-18)
(80.47370699 -9.3943328 0)
(80.65086081 -9.062224684 0)
(80.71910357 -8.631132631 -4.255373617e-19)
(81.10895372 -8.485873789 -4.269425633e-19)
(82.8396901 -7.797132228 0)
(82.98426216 -7.594214644 -1.48202192e-18)
(83.1475246 -7.489236177 1.839346206e-19)
(81.46892366 -8.329583992 0)
(81.79327028 -8.174181473 4.267077581e-19)
(81.73350838 -8.489804473 0)
(71.04406157 -4.695190779 0)
(73.64331285 -6.322552046 0)
(72.42042497 -9.607417923 0)
(69.33794361 -10.3367173 0)
(68.98335897 -12.47611418 0)
(67.04731419 -11.24436827 0)
(76.41462652 -11.31750501 -2.910708032e-18)
(75.57866405 -11.61451146 0)
(75.71453905 -10.90477679 0)
(84.66801825 -6.538076764 0)
(85.03018022 -6.545323095 2.524489277e-18)
(84.96977866 -6.561302113 2.862948055e-18)
(84.87824775 -6.56241058 0)
(84.94016468 -6.567161907 -8.108557214e-19)
(84.57218536 -6.596333975 0)
(85.06965025 -6.773818561 4.19819899e-19)
(85.09045237 -6.849617416 -1.262429317e-18)
(84.94054126 -6.580697157 -3.879374239e-19)
(84.95699784 -6.597472963 1.217001691e-18)
(83.84572112 -6.964703268 1.346778083e-18)
(84.10711407 -6.900010539 -2.687477299e-18)
(84.21313566 -6.830903118 -1.153086774e-18)
(83.30371932 -7.396643472 7.413977945e-19)
(83.46096042 -7.309704338 0)
(83.2220685 -7.438151338 4.472528574e-19)
(84.44306183 -6.599904097 1.347857272e-18)
(84.76478327 -6.583916172 7.08447636e-22)
(84.82286792 -6.565589806 0)
(84.30388947 -6.764528735 7.736974951e-19)
(84.37835556 -6.714165307 -1.555226085e-18)
(84.08489814 -6.73980205 2.244554448e-18)
(87.87689221 -7.404620454 6.180754287e-19)
(87.72537321 -7.361900765 1.208654199e-18)
(88.19563548 -7.193698751 0)
(88.57221421 -7.320344262 2.856446066e-19)
(88.06283454 -7.44201758 6.351071882e-19)
(87.92899732 -7.416151791 -3.100133237e-19)
(86.85906728 -7.105322574 0)
(86.6117707 -6.989824714 -6.601860031e-19)
(87.04811734 -6.752687556 5.883245749e-19)
(85.67218633 -7.273535345 -2.093428995e-18)
(85.7562661 -7.304723262 4.172998679e-19)
(85.13252427 -6.949711899 0)
(85.21136869 -7.041298975 2.112240424e-18)
(85.98002158 -7.448167812 4.472425769e-18)
(85.83883149 -7.332580851 -4.192166199e-19)
(85.91932479 -7.35719073 -1.670843569e-18)
(87.58741757 -6.991247095 5.277444529e-22)
(87.18364267 -7.225846515 -3.366832438e-19)
(86.94150498 -7.138601223 -1.007676236e-18)
(88.37043887 -7.936396021 0)
(88.88983852 -7.952596231 0)
(88.90958928 -8.003486147 -3.088088506e-19)
(87.77139747 -8.425956581 0)
(88.85573485 -8.480040697 0)
(88.8853294 -8.520375406 1.73228405e-18)
(88.82831828 -8.389242765 0)
(88.82972729 -8.439643365 0)
(87.74361819 -8.383286837 0)
(88.39040243 -9.198037432 6.330002064e-19)
(88.40429765 -9.225455442 0)
(87.94204736 -8.61497598 -1.376840321e-18)
(89.00532111 -8.646182598 2.070259846e-18)
(89.04894377 -8.67453421 5.947392849e-19)
(88.91798549 -8.565568396 -1.16559769e-18)
(88.95880303 -8.610059194 2.953921911e-19)
(87.88098121 -8.581013493 0)
(88.50956916 -9.158160329 -4.97857131e-18)
(88.40266253 -9.17640274 2.34565888e-18)
(89.15352535 -9.099557499 -1.532792119e-19)
(88.67870082 -9.128324496 -3.907317432e-18)
(87.66787281 -9.063930001 2.148940697e-17)
(81.85821921 -8.486822108 0)
(82.47027267 -7.988338029 -1.745588194e-18)
(51.5607015 -1.791654567 0)
(53.72904334 -5.081508889 0)
(61.889513 -12.42139024 0)
(64.19664425 -12.86264298 0)
(56.4084348 -7.870726621 0)
(59.22933624 -11.19802898 0)
(56.99540433 -12.18765413 0)
(78.60557492 -10.41337101 9.946471117e-19)
(80.06130559 -9.601989601 0)
(82.58849823 -7.81327385 -2.045879339e-18)
(82.80032388 -7.70677387 0)
(82.67384504 -7.934924071 -1.735765767e-19)
(82.00706804 -8.309435355 0)
(82.08048871 -8.03282557 -1.729534668e-21)
(82.34078733 -7.912419286 3.182478373e-19)
(72.04823169 -12.62475024 0)
(70.65181457 -12.73479826 0)
(70.77981281 -10.76886134 0)
(66.36511811 -13.04165991 0)
(68.21470975 -13.22154336 0)
(74.68583816 -11.01248208 0)
(74.5737022 -11.976487 0)
(73.37757912 -12.34715249 0)
(85.13897518 -6.570908317 1.303702345e-20)
(85.18739966 -6.560289279 3.287764862e-18)
(84.82037418 -6.552034201 -2.198662347e-18)
(84.63920676 -6.610176627 4.532860076e-19)
(85.00896284 -6.573943809 0)
(85.08097202 -6.57644881 0)
(85.03356016 -6.675135242 8.345732058e-19)
(85.05217351 -6.716917708 0)
(84.98640148 -6.617094635 -1.239944737e-18)
(85.01191581 -6.642824468 4.166083626e-19)
(83.88291291 -7.041302125 -7.605269123e-19)
(83.99650905 -6.966901681 2.678458171e-18)
(83.73708131 -7.035602954 -1.351798402e-18)
(83.37952165 -7.324583866 -4.512985058e-19)
(83.61570211 -7.219587057 -7.574406901e-19)
(83.75785728 -7.127390235 7.608504766e-19)
(84.60843529 -6.640478677 7.888014784e-19)
(84.69278857 -6.6132782 0)
(84.37769037 -6.642317138 -8.963504277e-19)
(84.13461519 -6.712998749 -1.350859134e-18)
(84.44842192 -6.681660442 1.370404161e-21)
(84.52432505 -6.660544974 3.938979336e-19)
(87.4076739 -7.406004123 -6.430026652e-19)
(86.70077934 -7.408918897 7.614397939e-19)
(86.67359163 -7.394106 3.786431667e-19)
(86.79750269 -7.448039036 -3.813226457e-19)
(86.74242607 -7.431054403 7.586908256e-19)
(87.45390198 -7.423664846 -9.723730667e-19)
(87.22670579 -7.406049607 6.194169868e-19)
(86.5695668 -7.438620915 -1.105307679e-18)
(86.52247594 -7.462212076 0)
(86.65238558 -7.392234366 1.509940815e-18)
(86.62062758 -7.40921182 3.755200507e-19)
(87.28377957 -7.395398874 6.266288724e-19)
(87.73722898 -7.484073656 -7.522994769e-22)
(87.00398338 -7.457908899 1.152117068e-18)
(86.99309086 -7.440154581 0)
(87.04654794 -7.518920057 -1.540390606e-18)
(87.02004035 -7.485121601 1.922403207e-18)
(87.76452723 -7.508193858 -1.701626995e-18)
(87.60976884 -7.453674655 3.278781402e-19)
(86.91277867 -7.450394192 -3.809958936e-19)
(86.85747676 -7.453242225 3.795637265e-19)
(86.98038309 -7.433949668 0)
(86.95505193 -7.440227961 -1.521799732e-18)
(87.65244509 -7.45429373 1.319938889e-18)
(85.4997388 -7.199693987 -4.185781791e-19)
(85.58633954 -7.239245965 -8.366153845e-19)
(86.46946094 -7.11019423 1.863287088e-21)
(86.14008037 -7.183267399 2.763489594e-21)
(86.05318627 -7.143568204 -3.636192422e-19)
(86.31361557 -7.251870634 3.694151553e-19)
(86.22719451 -7.219070945 1.470961959e-18)
(86.55436742 -7.148037031 -3.489264756e-19)
(85.31344874 -7.104372281 1.263740532e-18)
(85.41107152 -7.154051922 0)
(86.12797426 -7.423670466 0)
(86.18101151 -7.431764569 1.009899455e-18)
(87.10863804 -7.360515929 2.739843099e-18)
(86.78080519 -7.421956209 -1.32011847e-18)
(86.70613212 -7.391634601 3.84777738e-19)
(86.52726671 -7.469974962 -1.302601838e-18)
(86.56907681 -7.453366808 -2.444880511e-18)
(87.11852592 -7.371046255 2.573044702e-18)
(86.8064624 -7.244745488 0)
(86.48298617 -7.310048747 1.490700788e-18)
(86.3990166 -7.282211193 -7.398570352e-19)
(86.64420273 -7.363374037 -3.769205211e-19)
(86.56445693 -7.337038782 -1.875406848e-18)
(86.88837918 -7.272908475 3.601344591e-19)
(85.99624128 -7.381790229 8.374773103e-19)
(86.07215831 -7.403161133 0)
(88.49281795 -8.147359318 -9.92363735e-19)
(89.00756287 -8.143677613 6.356088807e-19)
(89.0373502 -8.182409041 0)
(88.93760577 -8.055588643 6.239470191e-19)
(88.97242229 -8.102738545 -3.151404512e-19)
(88.45373316 -8.108774754 0)
(87.51888332 -8.082027842 0)
(87.56997001 -8.114543159 1.481378008e-18)
(87.43439373 -7.820787998 -3.648338851e-19)
(87.42165697 -7.87716484 3.66999666e-19)
(87.56840895 -8.177185389 0)
(87.17792771 -8.204539713 0)
(88.05425252 -8.258486273 0)
(88.96066114 -8.283692678 0)
(88.87767351 -8.328256703 -1.102921598e-18)
(89.04854919 -8.219961198 3.170013859e-19)
(89.05531551 -8.269916596 9.183771143e-19)
(88.50978354 -8.257106061 -1.342063322e-18)
(87.59019371 -7.663706635 -2.143233845e-18)
(86.85257396 -7.626900832 -6.979964356e-18)
(87.1630326 -7.616860981 9.408750909e-19)
(87.46572318 -7.676667619 6.083547495e-19)
(87.87329791 -7.588597407 0)
(87.12360986 -7.569873588 0)
(87.08420384 -7.548200085 0)
(87.16040196 -7.608601959 -2.037123449e-19)
(87.1574259 -7.587339623 0)
(87.90917073 -7.611176555 -3.522246622e-19)
(87.46154063 -7.718678739 0)
(87.46407918 -7.73197365 0)
(87.40815207 -7.684744756 0)
(87.42524338 -7.690647117 0)
(88.0840458 -8.694878441 1.041062025e-18)
(89.1346132 -8.75232963 -1.223076749e-18)
(89.15023948 -8.783695711 -3.081527235e-19)
(89.08460541 -8.699544723 -5.994238517e-19)
(89.11277208 -8.72481748 0)
(88.06449512 -8.675211294 -3.467445052e-19)
(88.05957809 -8.856651037 -1.795374128e-19)
(89.16290226 -8.934721578 1.607789767e-19)
(89.14048875 -9.015424286 -5.090184771e-22)
(89.15950669 -8.821563505 9.348641562e-19)
(89.16170411 -8.871329048 6.31375547e-19)
(88.0777557 -8.791154004 0)
(99.70710476 0.7635993941 -1.360365352e-20)
(99.63590567 1.045428852 6.463404218e-21)
(99.87608116 0.6477757085 6.479956653e-21)
(99.60717815 1.154122424 -1.936235819e-20)
(99.54367417 1.525594319 -6.006649744e-21)
(99.84832406 0.9307644142 -3.575385327e-22)
(99.52010808 1.663113248 1.436854467e-20)
(99.49505914 2.108282854 -9.823049304e-21)
(99.83837632 1.26467405 4.593572501e-21)
(99.49043195 2.26146613 0)
(99.55202919 2.706703952 0)
(99.86464718 1.601328137 -1.746043327e-21)
(99.57831256 2.843326657 0)
(99.32075371 1.047368396 -1.446015086e-20)
(99.1382031 1.468503459 -1.411787173e-20)
(99.53000855 1.164370304 0)
(99.07416715 1.634615228 -3.454749934e-21)
(98.89149302 2.224173564 0)
(99.40770397 1.711142848 0)
(98.84089562 2.448774631 -4.866142284e-19)
(98.74782963 3.205400969 0)
(99.34145051 2.384415624 3.144231511e-19)
(98.74239137 3.479503692 7.579656308e-22)
(98.85271463 4.311891893 5.549294119e-19)
(99.41250043 3.088485802 4.540531343e-19)
(98.93662503 4.572230707 -4.125259816e-19)
(98.80547314 1.166359306 4.735054345e-19)
(98.45106251 1.706268884 0)
(98.98306092 1.548209234 1.405672188e-20)
(98.32527298 1.926903264 2.297954062e-19)
(97.94461395 2.739806547 0)
(98.68434872 2.374130113 -1.049972087e-19)
(97.81994165 3.072295489 -2.157737935e-19)
(97.52311371 4.265276251 0)
(98.49416236 3.478069115 7.843610976e-19)
(97.47480176 4.722011281 0)
(97.61222992 6.188123201 1.402246669e-20)
(98.60726225 4.752522774 0)
(97.78074435 6.669715652 -1.391321833e-18)
(98.22118252 1.063049351 2.566698488e-19)
(97.64857082 1.641281488 -2.559150261e-19)
(98.25806811 1.720558699 4.723053407e-19)
(97.42916273 1.891203219 1.003991036e-18)
(96.6749847 2.887476234 4.802727072e-19)
(97.65548177 2.825582825 -2.340958949e-19)
(96.40180629 3.323859512 2.508819939e-19)
(95.60960517 5.014329941 2.510673736e-19)
(97.11749408 4.502540838 0)
(95.40091334 5.716271026 -5.03949519e-19)
(95.24092355 8.267836149 -2.172893133e-19)
(97.16201797 6.701829418 1.818929131e-19)
(95.45388227 9.220404119 0)
(97.6724912 0.699353385 0)
(96.8450936 1.213149474 -5.384495409e-19)
(97.44151436 1.57201153 2.552608778e-19)
(96.50044375 1.44708095 0)
(95.23088995 2.411900063 2.923027243e-19)
(96.31523958 2.835922634 2.664348353e-19)
(94.72529417 2.847763302 -4.639787928e-21)
(92.96898865 4.664099914 -1.675000179e-19)
(95.00664556 5.064555722 0)
(92.32318628 5.516501908 -1.750399549e-19)
(90.47815136 9.347831857 -7.058737359e-19)
(94.33613829 8.733016895 0)
(90.10248421 11.34879455 5.221276985e-19)
(97.28834706 0.08181507362 2.838422619e-19)
(96.23335825 0.396173497 -5.80334197e-19)
(96.6657853 1.042898838 0)
(95.78428151 0.5425204036 0)
(94.07403118 1.140072484 0)
(94.89302797 2.165840389 -1.535184409e-19)
(93.35941368 1.402918128 1.699020269e-19)
(90.61692105 2.440461786 4.009684244e-19)
(92.28038404 4.298417034 -1.831137197e-19)
(89.42955325 2.884694969 -4.301463695e-19)
(83.2435662 4.574033991 5.519985738e-19)
(88.81382344 8.998676438 0)
(85.2675817 9.392780515 3.525540362e-19)
(82.83206728 14.70128149 0)
(88.40127475 14.74996658 -1.719804553e-19)
(97.15720229 -0.7006460405 1.780657241e-20)
(95.99611513 -0.6676264379 1.838262262e-20)
(96.13705367 0.1442072161 -5.301277915e-21)
(95.50600895 -0.6473997992 -7.788129364e-20)
(93.67171098 -0.5862342858 0)
(93.89468276 0.7271622502 -3.324972157e-19)
(92.92275582 -0.5787444927 -4.525117319e-20)
(90.19069508 -0.7185425328 4.516497109e-19)
(90.30525097 1.637557447 9.50953986e-21)
(88.92575235 0.9176826308 -4.72087775e-19)
(87.52483558 0.988013353 4.92598823e-19)
(87.64871034 2.177852135 1.085340868e-19)
(81.46651418 2.065820173 0)
(79.77113006 1.899309208 0)
(79.66405781 3.601313105 0)
(97.30483732 -1.524862527 -5.498191185e-19)
(96.16782733 -1.759797298 5.924099019e-19)
(96.00164698 -0.9458249766 -1.127451343e-19)
(95.69736052 -1.852183303 6.090227893e-19)
(93.99831212 -2.214025111 0)
(93.69653499 -1.016430401 3.457747369e-19)
(93.33752698 -2.37797244 -3.627507744e-19)
(91.118487 -3.084064103 -8.211766716e-19)
(90.35336071 -1.402493504 -4.321142642e-19)
(89.65050657 -2.311297927 8.872127373e-19)
(88.70158347 -2.67449948 2.395409046e-19)
(88.2908249 -1.956835458 0)
(85.52892512 -4.01286381 1.269373197e-21)
(85.14563227 -4.565998488 6.300837248e-19)
(84.58547129 -4.276742168 0)
(97.69932579 -2.290500489 4.189627687e-21)
(96.66099005 -2.736028523 0)
(96.26448059 -2.018065228 -6.685001321e-19)
(96.2383697 -2.909545998 -5.833184207e-19)
(94.75084481 -3.534141967 1.595744841e-19)
(94.15649086 -2.574093773 0)
(94.1885033 -3.784273493 -1.059083848e-20)
(92.3613963 -4.681695839 -9.560111443e-21)
(91.41820835 -3.539006804 0)
(91.03414708 -4.300944932 1.107153367e-20)
(90.35488846 -4.690499061 -7.297634451e-19)
(89.95618726 -4.278105027 -3.194336103e-19)
(88.25955888 -5.746320055 8.482287427e-19)
(87.98639715 -6.135399205 0)
(87.56793322 -5.899074057 -3.537667642e-19)