/*--------------------------------*- C++ -*----------------------------------*\
| =========                 |                                                 |
| \\      /  F ield         | OpenFOAM: The Open Source CFD Toolbox           |
|  \\    /   O peration     | Version:  v2012                                 |
|   \\  /    A nd           | Website:  www.openfoam.com                      |
|    \\/     M anipulation  |                                                 |
\*---------------------------------------------------------------------------*/
FoamFile
{
    version     2.0;
    format      ascii;
    class       volVectorField;
    location    "1.75";
    object      U;
}
// * * * * * * * * * * * * * * * * * * * * * * * * * * * * * * * * * * * * * //

dimensions      [0 1 -1 0 0 0 0];


internalField   nonuniform List<vector> 
3019
(
(99.99944023 0.001398880865 -3.710183608e-21)
(99.99908902 0.005084909729 -1.996923093e-25)
(99.99826262 0.01180234688 -3.709507673e-21)
(99.9967148 0.02388098637 -3.695751615e-21)
(99.99970481 0.01983942562 3.580495074e-21)
(99.99827257 0.03426581067 0)
(99.99726428 0.05751467898 0)
(99.99685594 0.09061252765 -6.479428653e-21)
(99.9957492 0.1362307868 7.666925738e-22)
(99.99474055 0.1952927623 -5.204115048e-21)
(99.99430227 0.2640418302 5.581616178e-22)
(99.99519345 0.3317673039 0)
(99.99497696 0.003376645497 1.484235482e-20)
(99.99135707 0.01278241345 3.712958203e-21)
(99.98362387 0.030515788 2.597684785e-20)
(99.97025517 0.0641422542 -1.112737904e-20)
(99.970978 0.09244925712 3.604080825e-21)
(99.94936984 0.1621085784 -3.092766558e-23)
(99.92053109 0.272724919 0)
(99.90358982 0.3779654579 -6.44651706e-21)
(99.86645122 0.5752123753 -6.073282854e-21)
(99.82983682 0.8358852325 -1.088688902e-20)
(99.80613687 1.148693022 -4.66768718e-21)
(99.8165895 1.47047226 -3.147672316e-21)
(99.9874098 0.003094912879 -1.480930589e-20)
(99.97731245 0.01345943296 -2.970798524e-20)
(99.95592796 0.03645711468 -6.680268045e-20)
(99.92058428 0.08089077663 8.893571798e-20)
(99.89764126 0.1392709307 -7.350190481e-21)
(99.83553243 0.2561434709 -7.210990265e-21)
(99.74750923 0.4415935697 -1.254383544e-20)
(99.69107318 0.6536928315 0)
(99.57263736 1.018933243 2.506572347e-20)
(99.45248413 1.516156274 2.303975294e-20)
(99.3719715 2.156182588 6.199088564e-19)
(99.42196555 2.845942743 0)
(99.98180637 -0.0008430943826 -7.448588171e-21)
(99.96259451 0.002577521514 5.218683502e-20)
(99.92206625 0.0221274327 -1.492617191e-20)
(99.85559299 0.06556273537 0)
(99.79967279 0.144845392 0)
(99.67593866 0.2911876096 -5.797777965e-20)
(99.50071443 0.5305689964 -1.162048514e-19)
(99.34807498 0.8354231811 2.756879287e-20)
(99.08255782 1.351267351 0)
(98.77906667 2.139305522 0)
(98.57180156 3.225852655 1.256366673e-18)
(98.65441832 4.482769229 6.384343511e-20)
(99.98670267 -0.00928794334 0)
(99.95695986 -0.0226171463 0)
(99.89487601 -0.01834448124 7.491655037e-21)
(99.79170703 0.01252058266 1.135439718e-20)
(99.69377137 0.09877427506 1.879856709e-20)
(99.49245785 0.2480196108 0)
(99.20750269 0.4983360026 0)
(98.91831003 0.8655268995 0)
(98.41298693 1.526206863 -2.107449334e-19)
(97.78893997 2.632421134 -9.768353459e-20)
(97.24112812 4.359016012 1.498122424e-18)
(97.3894501 6.555367938 -1.212574266e-18)
(100.0117828 -0.0225095065 0)
(99.97135579 -0.06269904283 0)
(99.88809766 -0.08621204929 -1.503183619e-20)
(99.74800754 -0.08377756457 3.049945955e-20)
(99.5972794 -0.006702525729 0)
(99.31691482 0.1152282969 0)
(98.90845979 0.3381248886 2.384204971e-20)
(98.45170638 0.7158713519 -1.16455928e-19)
(97.6247047 1.429824646 0)
(96.43847968 2.754727171 2.274218998e-19)
(95.08924936 5.171188959 9.649185503e-19)
(94.73175623 9.042909874 0)
(100.0663578 -0.04018838486 3.664172802e-21)
(100.0163422 -0.1166049692 -3.68955022e-21)
(99.91453238 -0.1796339604 7.51894102e-21)
(99.74191698 -0.220526908 -2.754209064e-20)
(99.53942951 -0.1719489259 7.370940942e-23)
(99.18528518 -0.1073042666 2.341141355e-20)
(98.66473632 0.04389289632 -4.833901535e-20)
(98.02374877 0.3653986067 7.072886823e-19)
(96.85859108 0.9669627041 0)
(94.93372214 2.175235299 1.355876535e-19)
(92.10828503 4.536979181 -8.042270124e-20)
(88.59001831 10.01067776 -4.498839704e-20)
(100.1584215 -0.06145026578 -3.664562898e-21)
(100.1010408 -0.1816088808 3.690881963e-21)
(99.9855188 -0.2933228947 -4.676737201e-21)
(99.78904568 -0.3894335184 -3.135295534e-21)
(99.54081757 -0.3863338694 1.334485684e-20)
(99.13123541 -0.4037716487 7.914563054e-21)
(98.52713938 -0.3662074206 -1.354133615e-20)
(97.74384371 -0.1770992541 -2.512196321e-19)
(96.32750774 0.1345729072 6.21361064e-20)
(93.88210227 0.7418472783 7.36122939e-20)
(89.99212234 1.603227919 0)
(83.01456065 2.755682281 0)
(100.2938654 -0.08496091152 -1.765116816e-21)
(100.2321909 -0.253548336 -1.325919561e-21)
(100.1094277 -0.4194961919 -4.539487352e-22)
(99.90044812 -0.5777957905 1.371592771e-21)
(99.61852969 -0.6324140861 -2.462767974e-23)
(99.17869044 -0.7465756605 0)
(98.53262396 -0.8444823527 -2.161689095e-21)
(97.68331785 -0.8339895739 2.373609687e-19)
(96.18215722 -0.8853927425 -4.686993786e-19)
(93.70219747 -0.985294948 7.509624985e-20)
(90.31198725 -1.530320194 -8.331302132e-19)
(86.60930396 -3.398588519 8.336008738e-21)
(100.4757004 -0.109105048 3.479099441e-21)
(100.4131797 -0.3274246733 5.179376229e-23)
(100.2903019 -0.5489209363 0)
(100.0812957 -0.7715389259 1.802260984e-22)
(99.77988953 -0.890283237 -1.831257377e-21)
(99.33729448 -1.103896934 1.939954608e-21)
(98.6933345 -1.33861018 -3.60900205e-20)
(97.84843984 -1.51055058 5.780436878e-20)
(96.40498227 -1.886329293 0)
(94.15437292 -2.470135908 1.142145254e-19)
(91.47044903 -3.457578841 3.839516224e-19)
(89.13513218 -4.872070192 0)
(100.7037425 -0.1323118473 -1.713834508e-21)
(100.6436687 -0.3982738658 1.727785332e-21)
(100.5272433 -0.6724366945 1.686081459e-21)
(100.3314206 -0.9568182691 -1.571108437e-21)
(100.023035 -1.140034706 -1.806272123e-21)
(99.60282299 -1.444815741 0)
(98.99809049 -1.803312671 -1.90592016e-21)
(98.20570346 -2.137823848 0)
(96.89263228 -2.764257298 -4.455569884e-19)
(94.90524589 -3.638261671 -2.108274979e-19)
(92.62585133 -4.744897807 0)
(90.65066714 -5.849387201 3.483126006e-19)
(100.9746798 -0.1531561605 6.30787001e-21)
(100.9200395 -0.4615328306 0)
(100.8151386 -0.7803672644 -1.682797221e-21)
(100.6416268 -1.126207527 0)
(100.3347191 -1.364951324 0)
(99.96167474 -1.743984434 -5.374360563e-21)
(99.42385091 -2.20455641 -3.130402137e-20)
(98.71403927 -2.672239655 -3.637916499e-19)
(97.56930349 -3.482929808 -2.441982926e-19)
(95.82717636 -4.559088582 -6.3488818e-20)
(93.76372854 -5.796685602 -1.239647132e-21)
(91.81620859 -6.911257394 -8.166839164e-20)
(86.12095947 -3.08035808 0)
(88.90885583 -4.72943554 0)
(90.49026561 -5.735517836 0)
(91.66770889 -6.76183755 0)
(83.20387309 4.104696377 0)
(91.17125475 -3.059005404 -3.948671692e-19)
(89.16090682 -4.479388126 0)
(87.04531086 -2.955907425 0)
(92.34376515 -4.4557133 0)
(90.70882082 -5.567129897 -3.524182765e-19)
(89.38553241 -4.635998567 -9.09084202e-22)
(89.76627256 -5.272080435 7.417758554e-19)
(89.01942609 -6.007758427 3.838478809e-19)
(88.18635796 -5.59966305 8.951602638e-20)
(93.47149882 -5.545003149 0)
(91.89266584 -6.607230246 -3.183072246e-19)
(90.86779437 -5.687642595 -3.435843518e-19)
(91.09674568 -6.209464962 3.384232018e-19)
(90.13689 -6.677969165 0)
(89.8025571 -6.332320313 -3.322881496e-19)
(92.04264287 -6.753182373 3.185566118e-19)
(92.38748826 -7.381056057 0)
(90.85558906 -7.965768601 0)
(90.52664011 -7.332108486 -4.869032041e-19)
(80.79733036 -5.575139339 -5.512634595e-19)
(85.31774 -5.813195853 0)
(73.58793151 3.214091221 0)
(79.8204765 -5.223603407 0)
(88.07756621 -5.529477763 -3.592067596e-19)
(87.31282599 -5.238018677 -7.438828499e-19)
(88.11745132 -4.253406819 0)
(87.17693458 -5.368639791 0)
(87.94666102 -5.626592343 0)
(85.66682514 -5.735509412 0)
(87.05176641 -5.371551662 0)
(89.73209017 -6.291503702 0)
(89.127911 -6.045932061 -3.831061325e-19)
(89.96139388 -5.393071423 -3.694089913e-19)
(88.96418273 -6.121980769 -2.586364651e-19)
(89.59140701 -6.350420765 2.641542177e-19)
(87.99961709 -5.668599911 -2.665081841e-19)
(88.91000257 -6.100472617 0)
(90.49708471 -7.290719295 0)
(90.15560984 -6.710684378 0)
(91.23834273 -6.339636261 0)
(90.00305295 -6.725067234 0)
(90.27074589 -7.316941762 0)
(89.6244697 -6.37406125 0)
(89.9888617 -6.693208684 0)
(90.87666717 -8.017036763 2.364483237e-19)
(92.47110837 -7.465750948 -1.789961436e-21)
(90.4913873 -8.029934945 8.126033575e-22)
(90.29847329 -7.357716828 5.009316137e-19)
(90.48326761 -7.981340595 -4.823401028e-19)
(90.08439235 -0.8697856264 -4.390167243e-19)
(86.63534249 -2.598403305 0)
(84.41102186 2.71829101 0)
(83.89635862 -0.7118219773 0)
(80.35618945 -4.281080754 0)
(75.49443863 3.318037853 0)
(87.80015942 -4.077465619 0)
(87.1776465 -5.231035076 3.721051149e-19)
(85.66823525 -5.391758083 3.536826948e-21)
(85.29840408 -5.403980647 4.30795137e-19)
(81.18077781 -4.676106166 5.513408295e-19)
(84.44386575 -1.526723517 -5.259987251e-19)
(83.74434604 -8.276807374 -2.006136123e-18)
(60.56922904 3.762078369 0)
(69.75824458 -9.511563192 1.722102334e-19)
(80.34914963 14.7513154 0)
(73.65955703 5.233963524 0)
(90.73249267 -7.638343294 0)
(91.58065525 -7.46192474 0)
(91.80836476 -7.720417399 -2.821159198e-19)
(80.33726451 -10.48331689 8.695067618e-18)
(83.40222931 -8.538682415 -2.054532539e-18)
(83.20495368 -5.960212328 0)
(83.51482917 -8.310835407 3.580114653e-18)
(80.31684353 -9.714138494 2.564769751e-18)
(85.06828118 -6.857091267 1.504481087e-18)
(83.82888725 -8.085854044 0)
(83.83707667 -5.953521069 0)
(75.5148175 -1.920933284 0)
(70.5752554 -7.968412665 -1.299737923e-18)
(63.14500409 3.716493938 0)
(79.57813996 -9.783387711 -4.707780906e-19)
(71.93698453 -8.681616492 6.352007327e-19)
(76.58331753 -3.138594084 0)
(71.3627303 -10.19753531 0)
(79.65670289 -10.54804098 -8.581238609e-19)
(87.56227928 -5.39913988 -2.669324428e-19)
(86.10965944 -5.640031732 -8.150152569e-19)
(87.61023083 -5.420889532 0)
(86.41170696 -5.503421537 0)
(85.78814517 -5.989815893 -3.981901686e-19)
(85.15011925 -6.728383764 -1.564965802e-18)
(86.09715006 -5.641513159 1.622816288e-18)
(85.83744301 -5.8986615 -4.015004491e-19)
(86.59877774 -5.450615294 0)
(89.29852715 -6.218524328 0)
(89.34019775 -6.23724538 -2.603551845e-19)
(88.42219235 -5.913068677 2.660097075e-19)
(88.4851366 -5.947866954 -2.669531273e-19)
(90.1423793 -6.992434111 -2.646381419e-19)
(90.16183647 -7.028074602 0)
(89.82893945 -6.506571961 2.475259169e-19)
(89.85283199 -6.528895235 -4.954222244e-19)
(91.88872031 -7.810568738 0)
(90.4636032 -7.606992051 0)
(90.47701104 -7.647768741 0)
(69.11711295 20.06306708 0)
(60.55274099 6.520525362 2.355422471e-18)
(89.98070703 -6.505570034 0)
(90.51170511 -6.313046743 0)
(90.7054784 -6.488189005 0)
(90.22597286 -6.10624408 0)
(90.44372461 -6.258937751 0)
(89.95439379 -6.484539205 0)
(91.29546218 -7.138719331 0)
(91.50848647 -7.378576055 -5.714222046e-19)
(90.71238005 -7.595705753 0)
(89.50318244 -6.181502826 0)
(89.9003391 -5.913991922 0)
(90.14865404 -6.056954408 0)
(89.03669496 -6.427473029 -6.057451047e-19)
(88.97008401 -6.371835396 2.940358562e-19)
(89.49108322 -6.297973142 0)
(90.33853764 -7.007562723 -1.254197648e-19)
(91.02430607 -6.832776414 -2.914969348e-19)
(91.22593374 -7.060294376 -2.906506088e-19)
(90.76817575 -6.552508801 0)
(90.95896115 -6.759621995 5.847829494e-19)
(90.31466367 -6.970030049 5.014988499e-19)
(90.05123386 -6.837103134 5.233803283e-19)
(88.96513972 -6.834205441 0)
(88.98415043 -6.690512454 2.91191264e-19)
(88.19354955 -7.26503723 -1.281531015e-18)
(88.19004303 -7.13925293 0)
(90.20135921 -7.183742645 6.11045439e-20)
(89.7210827 -6.429585302 -6.564146335e-20)
(89.13101965 -6.509833695 -1.530995532e-19)
(89.06356178 -6.449473012 0)
(88.9952695 -6.661262665 0)
(89.00724801 -6.609248255 5.63987231e-19)
(89.94052662 -6.614215102 0)
(90.38377232 -7.468694681 0)
(88.34054314 -7.419933815 0)
(88.21376157 -7.319448054 0)
(88.26246267 -7.778352561 0)
(90.51669464 -7.849855507 -2.59900223e-19)
(84.37786766 -7.596746782 1.630606644e-18)
(84.58011366 -7.436290882 0)
(63.19851684 -3.954205619 -1.656977244e-18)
(64.69873518 -5.865490109 -1.902493224e-19)
(81.91442777 -9.578908795 -2.749044311e-18)
(82.33431163 -9.278366255 -4.607254336e-19)
(82.43987918 -8.957536745 -1.589673323e-18)
(82.27513731 -7.471312829 0)
(83.4899456 -7.256179617 7.369581351e-19)
(80.18377798 -7.51303857 0)
(81.8049476 -7.518466564 -4.051764351e-19)
(82.00531862 -9.187156594 1.566146011e-18)
(84.73151087 -7.330368004 2.006917219e-19)
(84.83344595 -6.72322854 2.747814563e-21)
(85.35752011 -6.42031251 3.828756055e-19)
(83.82921574 -7.160342499 -7.155453089e-19)
(84.62277052 -6.832101793 -3.307607286e-19)
(84.52357971 -7.477608394 -2.026393692e-19)
(76.8079569 -9.903703683 -2.0872845e-18)
(77.36431439 -7.062854573 0)
(79.5495815 -7.452920551 0)
(75.59499432 -11.13642557 2.127017438e-20)
(76.82344733 -11.09527754 2.109843148e-18)
(86.28022101 -5.623199977 6.41679243e-19)
(87.00467044 -5.550040538 4.870603855e-19)
(87.06944758 -5.559593731 0)
(86.81539205 -5.56103332 3.276338479e-19)
(86.96170206 -5.551853719 -3.281793557e-19)
(86.23821495 -5.650811905 2.062707077e-19)
(87.18699596 -5.684900947 0)
(87.28117603 -5.822041585 9.154811955e-19)
(87.08245724 -5.579076817 0)
(87.15984897 -5.652215864 5.932217745e-19)
(85.56647727 -6.252964008 4.015549856e-19)
(85.98752255 -6.007332472 -3.083376373e-19)
(86.26193407 -5.820457046 1.478875752e-21)
(85.5015275 -6.328895944 0)
(85.88001551 -6.081122237 3.049309976e-19)
(85.48639547 -6.361736097 2.224183427e-21)
(85.97922328 -5.761691552 -8.077684501e-19)
(86.59883524 -5.630954848 3.201566315e-19)
(86.7664253 -5.570740264 -3.246342673e-19)
(86.33905025 -5.768304727 -3.118288081e-19)
(86.53677599 -5.656981668 3.184824377e-19)
(85.91870677 -5.78603516 4.049284237e-19)
(88.33947103 -6.324268775 -5.857589044e-19)
(88.43784083 -6.360879828 -2.978520647e-19)
(88.19768367 -6.354572381 -8.394821257e-19)
(88.31473861 -6.323657638 -2.901528379e-19)
(88.57922034 -6.370743446 0)
(88.62511058 -6.431439619 9.458318758e-19)
(88.47837254 -6.367167448 9.001580075e-19)
(88.56585479 -6.364420755 0)
(87.58332599 -6.073876284 -6.311837274e-19)
(87.79254226 -6.1748715 6.4176982e-19)
(87.32521735 -5.879712548 -9.504592398e-22)
(87.51409071 -6.033772574 -3.139021249e-19)
(88.1221834 -6.296599875 1.62798064e-19)
(88.17723602 -6.342873055 1.68795164e-18)
(87.86210068 -6.202828797 0)
(88.06445797 -6.27540944 -2.760673918e-22)
(89.05452667 -7.006975807 -1.558320431e-19)
(88.98190113 -6.893214163 0)
(90.07201069 -6.877742258 -2.634110692e-19)
(87.99660271 -6.85557353 0)
(88.09934132 -6.95473482 0)
(88.03316421 -6.614350064 0)
(87.97330124 -6.782126714 0)
(88.07291875 -6.977591852 0)
(90.19295376 -7.138234261 6.16555898e-20)
(88.32047323 -7.099330427 -1.089008389e-18)
(89.02954013 -7.040512856 0)
(88.98079384 -6.571898419 2.648289001e-19)
(89.14562048 -6.538913569 -1.18155485e-18)
(89.75007554 -6.452269868 6.50586675e-20)
(88.70480954 -6.542423336 1.296253774e-18)
(88.0919661 -6.540079373 -1.224972879e-18)
(88.65026141 -6.456013211 -6.36129164e-19)
(88.69333936 -6.519254225 0)
(88.08845745 -6.553567853 0)
(88.05690875 -6.588686871 0)
(88.07663485 -6.538373389 -3.196672086e-19)
(88.08843931 -6.546995296 -1.653559204e-18)
(89.9211496 -6.591726719 0)
(89.00401611 -6.598273421 -2.794317458e-19)
(88.97936661 -6.582342502 -5.398036741e-19)
(88.38502037 -7.486773212 -1.639633244e-19)
(88.36722432 -7.435649539 0)
(90.40861464 -7.501913341 5.158335849e-19)
(90.51007321 -7.79410228 -2.686981975e-19)
(88.26650625 -7.710959814 1.947304067e-18)
(88.36955298 -7.512367431 1.319759139e-18)
(88.66473792 -5.863373455 8.747790851e-20)
(89.09713477 -5.502613572 3.162050406e-19)
(89.42165076 -5.670280696 -3.131746608e-19)
(88.64677482 -5.247021172 -3.233740069e-19)
(88.9854145 -5.441246222 -3.19718828e-19)
(88.5420129 -5.8037799 -4.386939096e-19)
(89.52427582 -5.721815891 3.102381325e-19)
(89.81141598 -5.866683985 3.078451592e-19)
(89.41750798 -6.14785694 -3.374707135e-19)
(89.1185214 -6.16090733 2.580761143e-19)
(88.66267717 -6.301786156 0)
(88.52123764 -6.292827802 0)
(88.47934421 -6.278760839 -1.093558054e-18)
(88.33919254 -6.234106895 -1.398673412e-21)
(88.73530094 -6.048538579 0)
(84.0163475 -7.998035262 4.520140758e-19)
(80.94823761 -10.2321406 0)
(80.10440807 -10.68763941 -2.51130619e-17)
(83.04970824 -8.771537203 0)
(83.1787368 -8.519294881 -7.955670321e-19)
(83.2121016 -8.1343369 -6.285835044e-21)
(83.54844156 -7.952257035 -1.885717671e-18)
(84.98933262 -7.01066798 -2.765032508e-18)
(85.1137712 -6.864178209 1.303301226e-18)
(85.23925237 -6.737007511 -3.267449866e-19)
(83.85692645 -7.765417414 0)
(84.13192455 -7.580754634 -7.553581826e-19)
(84.10047574 -7.852620735 8.012814108e-19)
(74.05294436 -5.39588911 0)
(76.56814682 -6.693115005 0)
(75.69211465 -9.824444678 2.153345773e-18)
(72.86969671 -10.750911 1.185265339e-18)
(72.70050254 -12.75391725 -1.948941782e-18)
(70.82154899 -11.76046271 -6.79688413e-19)
(79.5479724 -10.98878822 -1.427026202e-18)
(78.81192212 -11.35619774 4.77930959e-18)
(78.85818506 -10.74108725 0)
(86.12186127 -5.557837561 0)
(86.47926926 -5.573792717 0)
(86.39910806 -5.582031299 2.592152512e-18)
(86.45966173 -5.638845315 1.089287859e-18)
(86.49856949 -5.637796065 7.315185831e-19)
(86.13802264 -5.646198297 -2.042880021e-18)
(86.36529109 -5.769592128 -3.831346251e-19)
(86.36846994 -5.842017652 0)
(86.35005825 -5.596849085 -1.408260977e-18)
(86.34687557 -5.610019917 3.679745092e-19)
(85.71116832 -6.087425647 -1.196817988e-18)
(85.95652421 -6.054774007 3.419530367e-19)
(86.03224124 -5.975593948 -1.457003853e-21)
(85.35732489 -6.626784044 0)
(85.47749639 -6.524903871 9.993301284e-19)
(85.2590767 -6.610595272 -8.004704232e-19)
(86.08274742 -5.666010882 4.050587587e-19)
(86.39431356 -5.67289164 -7.14711498e-19)
(86.42808449 -5.648047482 -1.080737997e-18)
(86.09339948 -5.899580856 -6.919406085e-19)
(86.13908984 -5.840344137 -1.044222259e-18)
(85.8593595 -5.83785559 1.608559102e-18)
(88.81260306 -6.338763929 0)
(88.69987295 -6.307067536 5.535285686e-19)
(89.1656605 -6.179289263 -5.176423839e-19)
(89.45597011 -6.277854855 0)
(88.94763813 -6.361937385 2.920811032e-19)
(88.85191136 -6.346663502 -5.700712706e-19)
(88.01016714 -6.111709056 -6.103187186e-19)
(87.8074012 -6.010115865 3.008411492e-19)
(88.23372556 -5.818840741 0)
(86.83591331 -6.242113201 -3.818242477e-19)
(86.90447413 -6.26960696 7.649311915e-19)
(86.39339029 -5.938834736 -1.54395335e-18)
(86.4556596 -6.028029531 -3.847775448e-19)
(87.01538698 -6.384628066 -2.723188939e-18)
(86.97165474 -6.293842309 -3.832766713e-19)
(87.03689942 -6.314835936 1.906845487e-19)
(88.67436355 -6.020884982 5.312162059e-19)
(88.27804645 -6.213952682 1.524728472e-19)
(88.07816095 -6.14042799 3.060107724e-19)
(88.96421994 -6.776301767 0)
(89.49807517 -6.804151569 0)
(89.50587137 -6.852165688 0)
(88.18031013 -7.221190544 6.357035513e-19)
(89.30643126 -7.289004854 -5.342968583e-19)
(89.32330372 -7.326047027 1.352259344e-18)
(89.30522863 -7.205326546 0)
(89.29330235 -7.252068279 0)
(88.16571717 -7.181081975 0)
(88.55896914 -7.941187632 -9.009473054e-19)
(88.55814671 -7.965842284 9.19080108e-19)
(88.29954451 -7.399772046 -1.61753005e-18)
(89.40519458 -7.442637433 5.535172768e-19)
(89.43624202 -7.467961482 -5.579547066e-19)
(89.3433076 -7.36812941 -2.734057927e-19)
(89.37147607 -7.409579608 0)
(88.25138358 -7.368277951 3.222187625e-19)
(88.71334256 -7.908187412 4.693081496e-18)
(88.58662987 -7.922637837 1.42655659e-19)
(89.41872278 -7.866101576 0)
(88.90549674 -7.883790534 -3.669990427e-18)
(87.85787904 -7.815894643 4.771484542e-18)
(84.2065098 -7.76842633 -1.575551381e-18)
(84.68619992 -7.204587696 2.450480315e-17)
(55.68669373 -4.080512081 0)
(57.88020377 -7.022587152 -1.770839081e-18)
(66.10772188 -13.30376257 0)
(68.32631954 -13.51976425 1.874242082e-19)
(60.59048323 -9.451882656 9.99573065e-21)
(63.48640517 -12.34521898 6.477191497e-19)
(61.62952173 -13.31351134 0)
(81.45171585 -9.909070505 8.763689701e-19)
(82.7048054 -9.008491156 -1.373833063e-18)
(84.79475081 -7.137141882 0)
(84.96722039 -7.002810427 0)
(84.8597182 -7.173417825 -9.719656435e-18)
(84.32407665 -7.645269823 0)
(84.37239764 -7.411462344 0)
(84.58842039 -7.264082756 0)
(75.59289832 -12.64922268 -4.535178251e-18)
(74.28743505 -12.86786525 -4.21762932e-18)
(74.26689278 -11.0387137 4.312589232e-20)
(70.36957359 -13.49495026 7.720637583e-18)
(72.10828268 -13.48793203 -1.87867022e-17)
(77.91714134 -10.94576766 0)
(77.91549281 -11.80529187 0)
(76.81999165 -12.27790231 0)
(86.63145784 -5.62346595 1.886876358e-19)
(86.65919913 -5.605235244 3.154364814e-18)
(86.29655146 -5.581063579 -2.982081847e-18)
(86.18186369 -5.655180495 0)
(86.54497598 -5.638868416 0)
(86.59536996 -5.635530011 0)
(86.36569906 -5.677554567 -3.803678887e-19)
(86.36586067 -5.715995681 3.81470442e-19)
(86.35682126 -5.626247361 3.755481819e-19)
(86.36293806 -5.648601793 3.783836865e-19)
(85.79586588 -6.217446795 0)
(85.87713167 -6.131984077 -6.815321134e-19)
(85.63462515 -6.167201286 4.033875243e-19)
(85.38043868 -6.48651821 -3.98871982e-19)
(85.59660766 -6.420949672 1.786542674e-21)
(85.70427982 -6.315675356 3.391659796e-19)
(86.28850023 -5.74398349 1.770212856e-18)
(86.3472126 -5.709420705 3.542756751e-19)
(86.04316516 -5.714790516 -1.212066756e-18)
(85.88011091 -5.804044345 0)
(86.18131841 -5.799757203 -3.500990916e-19)
(86.23049873 -5.77118807 3.531834324e-19)
(88.36614155 -6.334157647 -8.857216975e-19)
(87.64296031 -6.324362856 6.966824191e-19)
(87.62969947 -6.312739832 -4.35990167e-22)
(87.71212154 -6.357196316 -3.485327065e-19)
(87.67073302 -6.343336495 0)
(88.39909564 -6.348369465 0)
(88.23972643 -6.349623081 1.764306634e-21)
(87.56820189 -6.36761336 1.013903205e-18)
(87.53586121 -6.394869673 -6.453263104e-19)
(87.62275806 -6.314185697 0)
(87.60520827 -6.334654634 6.853608257e-19)
(88.28294783 -6.334618233 0)
(88.59095477 -6.385319828 0)
(87.83675702 -6.347783547 0)
(87.83923237 -6.333082911 -3.517811132e-19)
(87.85300132 -6.402871036 0)
(87.83963724 -6.372028092 -1.418111112e-18)
(88.6054669 -6.406293468 -3.125781643e-19)
(88.51546469 -6.36778809 0)
(87.7998387 -6.353054921 0)
(87.75860791 -6.359334683 3.499081943e-19)
(87.84022437 -6.330125217 3.502008131e-19)
(87.82827455 -6.339727009 0)
(88.54505194 -6.365289801 0)
(86.69529245 -6.17585972 -7.659150951e-19)
(86.76582971 -6.211587345 0)
(87.65272806 -6.110760797 0)
(87.32443271 -6.168790565 1.593143932e-21)
(87.25293114 -6.132923506 6.642114002e-19)
(87.46778196 -6.229777772 3.374942691e-19)
(87.39636814 -6.200787081 1.624941224e-21)
(87.72263208 -6.144355663 0)
(86.54152507 -6.088171306 3.843886511e-19)
(86.62290877 -6.134114539 -7.664659958e-19)
(87.19987487 -6.370420055 2.012714426e-19)
(87.23832291 -6.374343772 -1.852436319e-18)
(88.17766437 -6.325621256 0)
(87.84864232 -6.375042458 1.380537409e-18)
(87.78731254 -6.34985423 -3.505539832e-19)
(87.55647612 -6.406545424 4.766433572e-18)
(87.61448499 -6.395343532 -4.196363712e-18)
(88.1727324 -6.329492823 0)
(87.93091466 -6.22840292 9.763904123e-19)
(87.60762529 -6.280311731 -6.80018875e-19)
(87.53833884 -6.256294131 0)
(87.74002059 -6.325884132 0)
(87.67454491 -6.303454926 6.855312339e-19)
(87.99858447 -6.252333861 -9.839498194e-19)
(87.0986487 -6.335836872 -1.921169665e-19)
(87.15954522 -6.353617353 -1.928218228e-19)
(89.03767322 -6.976057742 -7.706570171e-19)
(89.56790129 -6.983410917 2.968640012e-19)
(89.58566388 -7.019123571 5.952046289e-19)
(89.5219458 -6.901309265 0)
(89.54480713 -6.945456647 0)
(89.01106813 -6.940493478 0)
(88.04203748 -6.903685906 0)
(88.08041022 -6.933435331 0)
(88.00718953 -6.652813012 0)
(87.98149672 -6.706361548 0)
(88.03729572 -6.98585789 0)
(87.618932 -7.008921376 -1.988541044e-17)
(88.52617382 -7.067287338 7.648046501e-18)
(89.46770196 -7.107897644 -8.032641932e-19)
(89.36924277 -7.148240928 -2.526521661e-19)
(89.58418362 -7.05326553 0)
(89.57879028 -7.099689446 -1.137625316e-18)
(89.0150423 -7.075879953 0)
(88.32584169 -6.531740006 1.974547565e-18)
(87.56537399 -6.490253016 0)
(87.90139632 -6.484944616 -8.568108144e-19)
(88.18344637 -6.539729938 1.123916944e-18)
(88.67608424 -6.477348326 0)
(87.90359428 -6.447834637 -3.571751675e-19)
(87.87743007 -6.42918665 8.883653379e-19)
(87.91235997 -6.480281378 -1.516559037e-18)
(87.92369493 -6.462106306 1.808246645e-19)
(88.69950976 -6.49679292 0)
(88.08482075 -6.561376728 -1.33213827e-18)
(88.07455826 -6.571955042 6.680784203e-19)
(88.08345577 -6.538570033 6.537592706e-19)
(88.08734326 -6.541742318 1.974727032e-18)
(88.38819263 -7.467963813 1.630685451e-19)
(89.48296613 -7.537390816 0)
(89.48543071 -7.566012624 0)
(89.45919505 -7.490081956 5.626571261e-19)
(89.47426641 -7.512583889 1.13799464e-18)
(88.38199371 -7.451173013 -1.299681324e-18)
(88.30946901 -7.618193981 -8.450697605e-19)
(89.45769075 -7.70823102 6.08541718e-19)
(89.42007137 -7.786125844 -3.095804251e-19)
(89.48127851 -7.601048965 0)
(89.47006327 -7.647917543 -1.194036863e-18)
(88.34186777 -7.555987361 1.328519644e-18)
(99.75853855 0.5912507388 -1.298241588e-20)
(99.69346845 0.8244230141 6.228423769e-21)
(99.89494616 0.5133773004 6.26425215e-21)
(99.66663516 0.9155507189 -1.867104476e-20)
(99.60074893 1.232601438 -5.864150399e-21)
(99.86593891 0.7563798409 -3.51089239e-22)
(99.57519239 1.352262279 0)
(99.53098897 1.753390327 -1.620908849e-19)
(99.84737118 1.056959929 4.666809699e-21)
(99.51633298 1.898857362 9.272729136e-21)
(99.53802143 2.343753659 -4.647348445e-19)
(99.857443 1.382476998 -1.858896674e-21)
(99.55390709 2.485062963 8.897268419e-19)
(99.44401499 0.8015210472 -1.369668046e-20)
(99.28134561 1.144620975 -1.345553734e-20)
(99.60517321 0.9160477563 0)
(99.22216627 1.281509996 -1.075652488e-19)
(99.03682448 1.786380167 0)
(99.48345892 1.378682715 1.189887182e-20)
(98.97573328 1.989806404 7.709711781e-19)
(98.83699471 2.689937833 1.244668813e-18)
(99.38724025 1.984977762 -6.222348533e-19)
(98.81164324 2.949382713 -1.291578643e-18)
(98.83522279 3.770834559 -3.356628086e-20)
(99.39619518 2.677869705 -9.556201636e-22)
(98.88483925 4.041577139 -2.982048167e-20)
(99.0311212 0.8749882075 4.449195043e-19)
(98.71773215 1.313321312 1.062777502e-19)
(99.15426081 1.2022618 -1.386335352e-20)
(98.59544924 1.502914663 -8.372978892e-19)
(98.20330959 2.227600035 -1.566144541e-18)
(98.85360803 1.912524147 -7.704322577e-19)
(98.0709422 2.528743919 1.66080725e-18)
(97.71691107 3.642753317 0)
(98.60568001 2.928382793 -1.371924684e-21)
(97.63867276 4.079830717 -1.402142483e-18)
(97.66363928 5.507295637 -1.295773508e-18)
(98.59671208 4.169849498 1.132573875e-18)
(97.79181049 5.98063933 -3.99119927e-21)
(98.56844934 0.7716703382 -2.350637546e-19)
(98.03428162 1.264965481 2.206895151e-19)
(98.55670071 1.322949879 0)
(97.82630338 1.483907855 -1.078320587e-18)
(97.08829003 2.374918795 -8.343736181e-19)
(97.95083269 2.303643227 0)
(96.80606918 2.779098742 -8.410067659e-19)
(95.95849122 4.376095379 -9.065265583e-19)
(97.34451824 3.866819795 0)
(95.72032639 5.047006332 9.532346357e-19)
(95.44882344 7.502217689 -8.263412761e-19)
(97.24158672 5.999215951 1.177285181e-18)
(95.61160675 8.421328502 8.43587219e-19)
(98.12193268 0.4719458478 -2.335854606e-19)
(97.35663125 0.9166350359 -4.583306751e-19)
(97.85780501 1.210366578 -2.182101374e-19)
(97.03587611 1.120988403 0)
(95.80010354 1.998670807 -9.773245126e-19)
(96.77003697 2.339308649 -2.250860194e-19)
(95.29538809 2.404317293 0)
(93.52724398 4.1117511 6.218394121e-19)
(95.3999942 4.441389611 0)
(92.87684249 4.91005311 0)
(91.02275644 8.454730167 3.534373719e-20)
(94.60448215 7.943860132 0)
(90.61599893 10.29145048 4.652311569e-20)
(97.79314803 -0.02625249389 1.510978245e-21)
(96.84227863 0.2419829938 1.170340465e-19)
(97.2067406 0.7761609132 6.430264355e-22)
(96.42294781 0.3705241699 0)
(94.76735234 0.9146498127 -1.310689303e-19)
(95.49894059 1.790869964 -4.986491268e-19)
(94.06668486 1.157746918 -6.850546519e-20)
(91.40783285 2.099142782 -1.861843936e-19)
(92.89817066 3.783121767 1.23905672e-19)
(90.28661039 2.48644131 -3.991298577e-19)
(84.58885583 3.82028377 0)
(89.49814999 8.08176404 1.484563459e-19)
(86.21107829 8.319981112 0)
(83.7698385 13.1157454 0)
(88.88892782 13.39504396 0)
(97.67661048 -0.6640715887 0)
(96.64146974 -0.6418719266 5.805381922e-20)
(96.76309044 0.03275955035 2.9497283e-20)
(96.1806405 -0.6256201435 6.139453171e-20)
(94.40172878 -0.5707814624 2.497667526e-19)
(94.6087605 0.5593285958 1.81694684e-21)
(93.67130964 -0.5645373098 -7.256543363e-22)
(91.07117535 -0.7094002178 0)
(91.14000177 1.377221779 1.885285427e-19)
(89.88354318 0.7147993334 4.283531484e-19)
(88.61508339 0.747890063 0)
(88.68610973 1.81452461 0)
(83.10823023 1.464925464 0)
(81.58655932 1.223704777 0)
(81.37854701 2.757226463 0)
(97.78761969 -1.343634763 -2.067738011e-19)
(96.7697731 -1.559297574 0)
(96.6439503 -0.8740676484 -3.089326094e-20)
(96.32096779 -1.645282474 0)
(94.65394145 -1.980117094 6.966697979e-20)
(94.41728641 -0.9425137563 -1.816809191e-19)
(94.00410922 -2.130680762 -1.534769007e-19)
(91.88644022 -2.766694147 -3.754712343e-19)
(91.22050669 -1.306794872 3.969617674e-19)
(90.58163754 -2.107447922 1.255126625e-18)
(89.74620936 -2.432588039 -3.160781442e-19)
(89.37674883 -1.821179145 4.504810117e-19)
(87.05006089 -3.660293984 4.649081753e-19)
(86.75199817 -4.159314093 -9.075866366e-22)
(86.25652974 -3.956671956 -4.744506445e-19)
(98.10047269 -1.988192541 1.134763412e-19)
(97.16125934 -2.396588213 0)
(96.84583897 -1.778840263 0)
(96.75035354 -2.558895919 2.369999624e-19)
(95.26250975 -3.142226729 -6.752930545e-20)
(94.78108345 -2.294540864 -6.905094153e-20)
(94.69914315 -3.372108848 -7.913109922e-20)
(92.92412232 -4.163365265 0)
(92.14004688 -3.161782864 -7.323810004e-19)
(91.76642169 -3.818152783 0)
(91.15869984 -4.143624607 -9.881012841e-20)
(90.82621421 -3.791920639 2.959692903e-19)
(89.35235438 -5.010696035 2.873806596e-19)
(89.10732269 -5.323230278 0)
(88.77038008 -5.129389677 1.458113496e-21)
(98.57495789 -2.548822617 1.350675841e-20)
(97.74812256 -3.102220008 0)
(97.29220327 -2.586547141 -5.13522069e-19)