/*--------------------------------*- C++ -*----------------------------------*\
| =========                 |                                                 |
| \\      /  F ield         | OpenFOAM: The Open Source CFD Toolbox           |
|  \\    /   O peration     | Version:  v2012                                 |
|   \\  /    A nd           | Website:  www.openfoam.com                      |
|    \\/     M anipulation  |                                                 |
\*---------------------------------------------------------------------------*/
FoamFile
{
    version     2.0;
    format      ascii;
    class       volScalarField;
    location    "0.52";
    object      p;
}
// * * * * * * * * * * * * * * * * * * * * * * * * * * * * * * * * * * * * * //

dimensions      [0 2 -2 0 0 0 0];


internalField   nonuniform List<scalar> 
3259
(
102.860945
-70.74340464
-233.5080703
-373.7151222
-486.3369031
-571.9907302
-634.2758916
-677.4177393
-713.0999373
-729.1335817
-738.3143696
-742.5233888
129.3061992
-53.24220591
-225.5248551
-372.4098126
-488.6358849
-575.7180727
-644.5467374
-684.7457099
-719.6134592
-733.5386039
-741.5539333
-745.2202958
139.3673671
-67.79767115
-257.6798852
-412.062515
-526.7311633
-607.4460356
-672.6616152
-705.4420613
-734.5576779
-744.0240673
-749.4425189
-751.8387158
163.2431394
-98.99258235
-325.0948153
-488.3551831
-596.6122691
-664.992798
-715.999413
-736.5818806
-755.8481109
-759.329466
-760.8748893
-761.4001078
211.0570593
-166.8687522
-453.5617173
-621.0621935
-704.9831551
-745.0776422
-772.2999223
-775.9605518
-780.4961916
-776.6286051
-773.4731485
-771.7714253
305.6178786
-347.2801435
-707.1715628
-829.4165435
-852.242426
-845.8450071
-837.240578
-818.8654675
-805.270561
-793.1707344
-784.8153256
-780.7470965
599.960247
-937.1293849
-1173.855343
-1122.58278
-1032.366078
-955.8827411
-902.4049851
-859.4611378
-826.7167481
-805.8158934
-792.4837259
-786.1922464
-2569.058549
-1859.618545
-1455.800797
-1209.891561
-1056.694084
-955.4172829
-890.7087549
-839.1032431
-811.2723653
-794.0967676
-785.9560852
-3996.491599
-2372.131511
-1695.234704
-1331.655943
-1122.049099
-984.422531
-904.4431732
-838.9685018
-806.9580716
-787.5245734
-778.2614957
-3757.527189
-2386.377671
-1726.703893
-1351.766834
-1131.558606
-980.5065108
-896.3804985
-824.1098098
-791.3577714
-771.527426
-762.0399388
-2847.961631
-2027.476526
-1563.965309
-1268.778842
-1082.291033
-942.5001516
-865.6504615
-794.2946515
-764.2621476
-745.9190094
-737.0864355
-1877.439377
-1522.56731
-1291.6789
-1114.963106
-987.2776547
-876.3017296
-815.3454952
-751.249581
-726.8778915
-711.5235792
-704.0617024
-4267.511585
-2713.535178
-4090.192317
-4334.169792
-3096.942795
-3990.804198
-2044.127883
-2961.70157
-1917.908286
805.9960876
-2368.451743
-751.3950622
-5557.692555
-3392.406046
-3927.083217
-2530.538841
-2001.227886
-5794.602341
-6053.235491
-3840.713321
-2676.672457
-2630.135472
-4302.259662
-5091.7831
-2970.717105
-2311.109748
-2620.545561
-2860.488166
-3473.033486
-1632.378365
-1575.721836
-2124.025594
-6058.18567
-5621.693754
-3842.295764
-5380.582652
-5899.6836
-5138.621259
-5764.203464
-4251.698665
-5635.450247
-5049.091373
-5897.462837
-5663.559275
-4278.837615
-3563.541058
-4245.355199
-3498.049217
-4142.551075
-3492.090674
-5003.079942
-4244.614403
-3628.487164
-2204.074791
-2775.990087
-1590.268439
-1631.43798
-1498.675815
-1583.3421
-6773.069378
-4107.094654
-3417.879782
-1995.486134
-1738.305757
-2177.439512
-2028.986983
-1965.381559
-2252.966201
-3243.511749
-5230.137057
-3616.239502
-2299.925952
-2610.239784
-2431.372279
-2732.433722
-2177.300991
-3405.125323
-2814.246682
-2562.790513
1287.709314
-2941.000402
-776.5308288
1021.359274
-6897.62955
-4932.042315
-6707.882662
-3940.224561
-6538.77114
-4604.40361
-5925.25733
-5945.20026
-4677.489688
-4731.017264
-3028.362482
-3352.470255
-3117.889913
-3329.259381
-3000.831285
-3734.864478
-3378.307389
-3205.394879
-1611.849409
-1877.305782
-1954.296788
-5970.397156
-5948.717939
-5435.298288
-5473.703647
-5376.656509
-4793.880256
-4932.096742
-4551.433114
-4738.912118
-5338.584687
-5818.935311
-5056.172582
-5043.102654
-4968.232114
-5043.996391
-5800.120616
-3844.107513
-3772.715145
-3894.068552
-2952.031193
-2633.315133
-2527.500394
-2654.27294
-2974.964767
-1962.626863
-1523.975912
-5022.336244
-2171.103992
-2320.650681
4456.768693
-2355.183971
-2516.984371
2046.998544
-3529.787592
-810.3782561
1298.288349
-5860.585393
-6550.079384
-6466.167653
-6018.766499
-4461.788984
-4656.215362
-4463.860527
-5355.304276
-5197.044266
-4943.869724
-6036.182399
-6528.190835
-6584.581284
-5777.448069
-4810.56673
-4500.988356
-5019.778822
-4881.971603
-5793.0076
-5272.758874
-5550.567248
-5409.762416
-5652.02953
-4403.821356
-4232.398646
-4091.831417
-3852.878596
-3608.015261
-3852.118846
-4659.473151
-4256.948577
-4481.755941
-3934.090814
-4177.884997
-4608.128403
-2446.157324
-2589.543937
-2292.201266
-1766.898195
-6118.512474
-4870.337755
-5764.256821
-3549.920291
-3609.460741
-1988.201552
-2125.158051
-2142.927584
3776.514418
4152.411581
3582.559965
-2685.876202
-2522.980213
-2474.539571
-2531.060666
-2705.425377
-7010.675554
-6132.193711
-5665.567889
-6501.563092
-6247.700502
-5478.314765
-4773.116997
-5719.155532
-6292.067515
-6213.105224
-5875.109717
-6002.722228
-6430.633963
-6325.36377
-4893.503338
-4716.986932
-4516.461691
-4773.743388
-4961.896742
-4522.130644
-4717.106272
-5015.359689
-4891.67648
-5143.959431
-4950.806925
-3167.547635
-3225.206539
-3193.198976
-3107.047486
-3242.047489
-3584.51943
-3476.977295
-3620.922984
-3287.319186
-3429.367735
-3531.429502
-1827.556848
-1800.045419
-1939.583776
-6549.199196
-6528.96207
-6023.586274
-6679.865412
-6736.983349
-6652.228263
-6653.872113
-6574.716944
-6764.557226
-6663.174216
-5843.219118
-6450.926158
-6551.432373
-5718.974034
-5595.28099
-5315.17753
-5605.295353
-5898.09194
-5751.757684
-3859.875904
-4013.076232
-3669.635715
-3812.99467
-3912.597259
-4282.432975
-4457.430046
-4063.868965
-4228.898185
-2716.462315
-2793.125582
-2860.345206
-2703.896254
-2908.921159
-2836.612044
-1846.139197
-2285.10533
-1776.26341
-1162.750858
-2308.246615
-2361.769249
-1588.208686
-2373.087115
-2099.59372
-1596.591335
-1547.258028
2521.88117
3443.085514
4311.0584
-3831.295599
-810.1796536
1668.82642
-1477.984757
-1079.222423
-2866.766153
-5272.185221
-5959.98458
-6229.109814
-1614.220288
-1753.092938
-1769.482722
-2204.899899
-1944.454635
-1885.37716
-6302.198045
-6423.735859
-5809.187948
-1604.426001
-1698.678097
-1711.526396
-1619.574975
-1566.482891
-6667.52231
-3454.403378
-2009.710958
-2074.754562
-2082.655042
-2301.599872
-2159.648249
-2120.895399
-4361.828109
-3832.01755
-4580.467872
-2430.990072
-2489.111819
-2344.559387
-1761.596675
-1183.42444
-3458.563991
-6863.588571
-6518.89578
-6364.688964
-6959.387137
-6930.142416
-3074.482457
-3106.04003
-3058.140198
-3369.070093
-3359.32857
-3330.748097
-2925.773381
-3059.845255
-3140.811037
-3698.221813
-3647.275184
-3696.042774
-1944.855166
-1921.227454
-1955.275766
-4028.167511
-4087.693126
-3743.601392
-3798.530373
-3825.221627
-4144.752175
-4169.160703
-4038.91835
-4179.073593
-4020.854366
-1959.81857
-2208.698285
-2250.779003
-2346.239266
-2299.253097
-2276.912005
4446.358521
4826.761251
4230.104012
-2408.312489
-2434.63332
-2360.743491
-2535.420315
-2483.192686
-2469.444634
-2080.107546
-1257.277844
-3714.276899
-6112.707461
-6113.978671
-6053.453699
-6089.135385
-6519.887268
-6366.746762
-6389.326426
-6320.554898
-6344.675805
-6493.878541
-5306.983276
-5225.600394
-5275.615244
-5117.19626
-5174.082353
-5255.603139
-6580.252026
-6402.224175
-6376.766713
-6409.537065
-6416.38641
-6601.933786
-5499.682551
-5418.057515
-5463.531711
-5325.762437
-5372.330545
-5457.462386
-5997.334193
-6025.234148
-5904.687661
-5954.280902
-1613.934532
-1775.259877
-1765.225959
-1752.95834
-1621.362939
-6391.653342
-6699.267573
-6431.650676
-5656.654298
-5399.061995
-4591.25501
-6163.784204
-5849.367989
-3497.268855
-3640.330691
-2137.078896
-2124.018979
-2135.772341
3954.024486
-2602.836351
-2543.75439
-2651.229994
-6771.412577
-6649.525379
-6935.569251
-6420.887494
-6694.042752
-6760.928162
-6913.626633
-6880.042544
-6256.67145
-6151.273478
-6176.417453
-6122.257261
-6131.844591
-6226.640051
-6391.208805
-6261.423867
-6292.321574
-6203.944377
-6231.873527
-6357.185503
-4837.809404
-4762.900428
-4818.33604
-4834.647962
-4902.100298
-4578.832516
-4606.165681
-4566.332952
-4659.226473
-5074.901966
-5119.087425
-5078.978064
-4993.778737
-5056.601721
-4875.185267
-4934.451071
-5014.385145
-3205.155946
-3127.792074
-3113.413172
-3141.676989
-3073.551194
-3126.182047
-3283.994197
-3312.273657
-3255.240342
-3545.832239
-3591.709846
-3621.843729
-6540.468361
-6350.889501
-6346.407196
-6359.229964
-6353.989941
-6537.556399
-6708.622648
-6714.59842
-6645.854588
-6886.132507
-6848.650728
-6848.676024
-6882.492043
-6625.772746
-6759.229954
-6852.228892
-6870.572308
-6700.686382
-5681.376028
-5592.081123
-5629.535276
-5506.880391
-5550.164368
-5634.995715
-5845.071646
-5763.29804
-5842.479576
-5664.706432
-5706.012444
-5793.654927
-3946.094142
-3980.738293
-3885.103952
-3852.796327
-3888.83008
-4334.467823
-4367.931196
-4320.907311
-4497.587447
-4426.404992
-4392.067251
-4111.865709
-4148.61295
-4110.503337
-4271.679669
-4221.219981
-4170.991989
-2809.557051
-2790.363719
-2846.360722
-2691.008657
-2739.095861
-2773.502339
-2976.170782
-3018.244929
-2890.800165
-2906.185759
-2917.543176
-1903.505384
184.9437511
173.0681923
135.5897283
-13.47633085
-9.269515444
-63.0778485
-203.1723636
-185.0878915
-247.0266318
-364.2269526
-338.4308754
-399.0623098
-488.4760113
-462.0286595
-514.2921235
-578.7470412
-555.7865702
215.622907
190.5605586
155.5923051
-28.81937051
-16.39244976
-88.92508832
-254.8048861
-212.9500098
-303.8758245
-429.8136091
-377.0679979
-464.9561116
-552.0378392
-501.4057151
-575.6869183
-633.1789204
-589.8902954
278.7736239
227.4967178
195.9176
-62.22093894
-34.755436
-144.1689995
-356.0182056
-274.1609567
-413.2928555
-546.8955612
-453.3500444
-580.7755789
-656.4275277
-573.5834889
-674.4548942
-713.5127858
-651.0737496
411.6392775
303.0233745
275.5884973
-155.4698767
-76.62164048
-282.3177942
-563.124996
-394.2031936
-626.6907628
-747.8636999
-588.0516644
-769.8343778
-806.226011
-689.5873057
-811.857305
-818.8127855
-737.5867522
723.0396298
466.0070515
554.8382789
-517.1175499
-204.2785153
-714.8866944
-1002.121602
-644.4620049
-1033.695808
-1050.323863
-812.8371071
-1041.783227
-1001.075241
-851.0983657
-985.7841161
-941.9301343
-848.5218138
792.7222719
-494.4141176
-87.69633951
-1318.469459
-1328.595472
-1063.255008
-1682.195847
-1441.311093
-1143.098451
-1375.110423
-1212.252705
-1054.451812
-1168.429679
-1062.301601
-973.238196
-3328.58681
-2723.825798
-2231.366944
-2287.416168
-1774.546773
-1538.166762
-1652.548933
-1378.29706
-1260.830724
-1309.727685
-1151.260523
-1088.773943
-4052.599839
-3314.656289
-3216.167569
-2427.29019
-1874.231344
-1825.197436
-1738.437772
-1433.081248
-1404.099
-1356.602473
-1180.067821
-1164.84222
-3446.572639
-2969.860206
-3163.117751
-2138.787333
-1726.28727
-1857.862879
-1618.596635
-1364.068643
-1427.272013
-1297.864509
-1140.898634
-1176.67334
-2478.525059
-2244.283598
-2528.080753
-1652.711997
-1428.88457
-1661.311127
-1364.93927
-1202.668553
-1330.33415
-1157.624116
-1045.200125
-1121.394686
-1528.409539
-1529.785835
-1721.649517
-1344.376124
-1154.17194
-1015.247112
-4165.36939
-4645.030636
-4793.496034
-2868.057302
-3285.665147
-3046.832215
-4177.934674
-4576.085171
-4406.484596
-4818.551165
-4848.733439
-4369.906034
-3231.405003
-3451.916335
-3223.189642
-4342.012485
-4135.430375
-3877.29294
-2171.587286
-2230.4936
-2094.995808
-3082.758998
-2935.778878
-2827.683381
-1960.659213
-1827.41554
-1792.55825
3119.988521
4023.601627
4695.314904
1216.651494
-439.7752854
1452.478866
-2039.864845
-2054.790649
-2446.508671
-293.0164115
-779.5628706
-1245.388742
-5456.176022
-5663.23481
-5754.696426
-3564.350884
-4103.381942
-3831.276375
-3164.80558
-2849.239393
-3528.081894
-2389.004791
-2659.681864
-2833.07132
-2163.315016
-2433.207774
-2209.896509
-5822.232661
-5964.741351
-5933.367976
-6217.34697
-6201.80064
-6044.004687
-3224.316837
-3300.156248
-4024.264952
-2700.290708
-3014.147434
-2974.565664
-2949.053138
-3007.968345
-2686.164653
-4352.119872
-4411.14347
-4354.839139
-5180.331802
-5130.967672
-5043.622147
-2626.134834
-2882.768113
-3331.629498
-2432.543556
-2654.275936
-2504.870865
-2896.14752
-2786.893388
-2537.395579
-2945.68729
-2996.808961
-2908.45411
-3584.61515
-3443.088546
-3383.106263
-1626.695668
-1676.713774
-1687.157945
-1809.089626
-1858.395364
-1600.465513
-2149.657993
-2067.332496
-2044.278674
-6056.190155
-6228.807998
-6228.050829
-5830.311815
-5897.933624
-5700.273655
-4269.011965
-4575.026395
-4024.38462
-5501.203488
-5172.340961
-5048.507115
-5530.149745
-5506.529595
-5873.290943
-5184.337586
-5274.687404
-5228.368977
-5902.060731
-5869.184668
-5731.81073
-4749.360109
-4625.608533
-4201.314248
-5534.088631
-5233.606039
-5291.242075
-4860.386897
-4939.828258
-5179.712798
-5877.886064
-5542.279263
-5541.757054
-5322.219911
-5359.230346
-5729.677577
-4271.228196
-4839.031777
-4779.377479
-3655.639722
-3774.277383
-3632.065943
-4299.399932
-4244.298947
-4195.051647
-3758.306696
-3528.000549
-3365.279449
-4043.823619
-3951.306928
-4043.509818
-3288.87696
-3527.812843
-3760.396271
-4860.755412
-4691.742513
-4777.553094
-4137.243557
-4232.157387
-4401.348924
-3755.335286
-4061.857712
-3835.162089
-2284.389474
-2315.270717
-2232.309334
-2820.91753
-2734.613881
-2692.331229
-1515.283505
-1577.224127
-4318.21321
-5097.664335
-4706.250068
-1923.09205
-2144.430007
-2356.204911
-1888.015856
-2002.008467
-1827.305176
-2343.718391
-2175.005545
-2035.286871
-2054.581481
-2113.021884
-1975.068296
-2267.557924
-2222.681285
-2210.993193
-4290.683227
-3630.247528
-2918.600914
-4900.797989
-4725.788458
-5043.539797
-3347.262522
-3661.80074
-4137.789607
-2342.723766
-2359.128574
-2312.702117
-2632.331413
-2587.898475
-2565.893171
-2508.117973
-2368.049152
-2301.081235
-2491.766618
-2438.371442
-2606.292112
-2144.371216
-2289.751105
-2412.873788
-3147.817671
-2983.47084
-3211.864804
-2682.386098
-2905.134863
-3063.542979
-2695.014855
-2792.065574
-2649.510136
1780.373018
-2508.919043
-2496.785817
-3008.493806
-188.035312
-792.6228719
-1445.314341
1232.495452
-434.6618736
47.22472925
-5393.570062
-5849.107427
-5206.672036
-5304.791249
-4512.098752
-3752.520439
-6167.173244
-5929.242817
-6342.976829
-4241.256079
-4592.89115
-5224.302749
-6049.9797
-6029.884954
-5906.417645
-5965.091087
-6096.555741
-6072.854533
-4748.268626
-4693.480414
-4624.133095
-4784.732134
-4859.75394
-4803.741814
-3176.121299
-3086.037129
-3031.457587
-3291.506929
-3258.450386
-3302.493551
-2974.169734
-3020.165173
-3046.888105
-3347.900035
-3394.83839
-3426.665391
-3293.937158
-3396.818024
-3258.667442
-1700.034724
-1714.476854
-1623.470625
-1927.948219
-1791.164806
-1788.332066
-6155.49774
-6167.930879
-5992.007001
-5926.995206
-6111.677007
-6137.405399
-5529.996965
-5491.30136
-5396.777161
-5514.346039
-5609.113233
-5567.837525
-5152.684769
-5215.781461
-5494.456933
-4844.767764
-5023.412705
-4967.778421
-5127.875495
-5078.954883
-4890.801836
-4617.984997
-4775.174174
-4702.501944
-4908.455181
-4843.998354
-4680.516775
-5221.822003
-5015.639573
-5087.019524
-5514.420012
-5532.323612
-5864.573869
-5060.522358
-5288.694117
-5278.10089
-5283.151847
-5290.795379
-5056.567995
-4998.912402
-5202.943832
-5170.759198
-5259.828511
-5234.223988
-5024.486221
-5749.045663
-5459.218173
-5489.518361
-3970.680308
-3821.645118
-3709.190453
-3940.201952
-3985.046734
-3935.269864
-2813.152456
-2778.883266
-2879.704108
-2604.197663
-2690.923211
-2769.275421
-2609.274686
-2649.650123
-2565.553211
-2699.292415
-2718.632267
-2674.501949
-2999.203396
-2944.903643
-2924.239876
-1533.257614
-2223.010629
-2239.294594
-2183.771959
2486.565417
3163.445518
2285.282356
3197.379846
2693.728482
4071.901955
3427.726894
-2973.7165
-2968.359923
-3601.284044
-290.7515568
-804.3815725
-1357.04844
1649.692252
-388.561718
437.3255489
-5994.156913
-5985.537582
-5844.077714
-6032.359595
-6184.702176
-6165.741688
-4525.30757
-4468.344036
-4406.378553
-4591.786641
-4528.325495
-4588.096419
-4409.259885
-4467.919672
-4523.531203
-4994.510894
-5080.45837
-5027.411787
-6204.601372
-6218.985844
-6047.858495
-5356.155803
-5274.232348
-5598.570711
-4723.963987
-4985.256999
-5071.048304
-4757.893679
-4881.306168
-4621.616621
-4985.401651
-5234.950414
-5264.652725
-5140.412131
-5194.006298
-4940.138611
-5861.297576
-5472.025566
-5424.035353
-5364.692587
-5320.334938
-5229.116507
-5694.904445
-5827.799936
-5776.231483
-4343.471079
-4294.865073
-4351.978311
-4185.80938
-4239.386419
-4286.355795
-4140.34625
-4190.647365
-4137.956527
-3770.519675
-3860.275475
-3947.37013
-3688.895118
-3774.5819
-3689.278173
-3947.823935
-3860.798215
-3770.216378
-4512.798076
-4603.377657
-4811.056164
-4334.293696
-4466.370314
-4382.79732
-4626.52616
-4547.655473
-4409.200618
-4016.037907
-4123.051816
-4035.387427
-4297.333571
-4210.52612
-4097.314026
-4453.526187
-4326.750309
-4420.410826
-2481.770613
-2398.302666
-2365.088377
-2457.189637
-2431.864094
-2517.906665
-2261.861646
-2346.800925
-2380.188283
-5283.41863
-5655.582117
-6067.317426
-2037.323513
-2053.854897
-1999.118221
-2134.793134
-2099.536673
-2082.337714
4116.575971
-2636.325194
-2610.41607
-2655.71884
-2510.385866
-2558.021214
-2575.347031
-2520.270189
-2540.310597
-2493.527516
-5996.467701
-6320.646469
-6462.013551
-5977.613729
-6158.676557
-5840.787068
-6567.263551
-6642.720432
-6342.677583
-5269.589923
-5557.046451
-5782.535543
-5022.437132
-5305.591218
-5044.911753
-6083.41571
-5643.710434
-5326.322167
-5889.438916
-6014.893852
-6004.592396
-6144.28359
-6120.68809
-5984.614133
-4647.126704
-4705.75367
-4777.765135
-4570.641868
-4638.228812
-4582.009972
-4972.020479
-4915.809012
-4838.356801
-3164.08579
-3212.993208
-3246.229486
-3151.762016
-3181.673356
-3134.323325
-3272.646055
-3226.954803
-3198.308936
-3525.14297
-3559.856359
-3511.437096
-3656.480682
-3608.583124
-3573.078941
-3334.254903
-3365.534062
-3318.673625
-3463.1809
-3413.985288
-3381.711662
-3476.031982
-3444.551096
-3496.65852
-1819.051416
-1875.792071
-1895.46013
-1847.703193
-1861.005964
-1810.715674
-1949.522705
-1906.135414
-1893.512123
-6009.391356
-6178.228715
-6189.928701
-6039.396431
-6080.425425
-5898.915064
-6494.069976
-6280.972107
-6242.07552
-6337.182065
-6314.661195
-6534.103042
-5356.728343
-5450.200988
-5407.584604
-5717.422942
-5659.28717
-5558.58929
-3908.099575
-3947.749776
-3899.535096
-4057.100953
-3999.469596
-3959.450894
-3718.958513
-3757.675785
-3705.809861
-3850.104596
-3806.8344
-3766.612408
-2818.517683
-2767.408849
-2746.192438
-2878.7856
-2895.911164
-2861.520967
-2064.357231
-1638.658359
-1527.207246
-1554.772425
-1600.927423
-1874.802774
-1130.72836
-1348.758161
-1347.379865
-1655.036428
-1487.150169
-1440.25119
-1867.264694
-1858.843146
-2000.68824
-1581.669562
-1719.505259
-1743.684844
3062.116003
3499.950476
2831.265346
3730.781003
3733.388659
3341.922777
4539.411904
4125.732075
4051.586718
-2394.947838
-2114.639291
-3333.03907
-150.0006342
-780.5079822
-1454.548775
1661.070797
346.7312874
721.9235839
-1491.363004
-1626.856383
-1271.708351
-2671.240266
-2057.417742
-1848.859758
-5502.492962
-5584.920276
-5372.915634
-6059.814949
-5807.657344
-5712.995668
-5981.029898
-5896.789235
-6148.007383
-1660.070821
-1667.001243
-1618.799581
-1760.527874
-1713.00904
-1708.040606
-1733.283596
-1722.21972
-1766.878253
-2117.229968
-2092.22746
-2177.062523
-1923.15338
-2007.648916
-2030.758107
-6359.628467
-6116.974915
-6055.298409
-6205.021311
-6165.168678
-6397.163609
-5745.408995
-5949.900773
-5999.510756
-1571.171155
-2257.499114
-2239.210424
-2283.983031
-2145.212451
-2192.530166
-2208.694081
-2163.800045
-2177.31741
-2132.153733
-4202.69038
-4447.793282
-4613.811396
-4831.27043
-4522.763675
-4290.97852
-2448.866043
-2404.671867
-2389.588292
-2445.45508
-2424.49349
-2467.911516
-2329.347366
-2376.861658
-2392.917393
-1640.447577
-2037.755303
-2118.981019
-1705.764882
-1906.641298
-1451.942426
-3063.708216
-2447.939545
-2380.199446
-2969.067298
-2994.45967
-2948.86085
-3087.119163
-3040.027878
-3015.586972
-3092.329252
-3066.68769
-3114.63184
-4086.490988
-4035.278135
-3991.600795
-4125.158024
-4081.010527
-4133.346711
-3978.076356
-4029.075303
-4071.897313
-1847.315261
-2376.175168
-2486.72573
-1868.871701
-2177.746414
-1600.722729
-3650.985512
-2867.544782
-2658.893146
103.7906777
15.2936109
15.67764928
-72.30983348
-156.9011789
-154.3663356
-236.7753505
-310.6559868
-306.9002112
-377.7173686
-437.5796605
-433.5433785
-490.23583
-535.9913783
-532.3390993
-575.4044746
-609.1586012
-605.8955867
-637.1087843
-660.2599072
-657.8683442
130.7772256
83.46491208
82.17262331
-55.63884532
-101.8785567
-99.13431984
-230.7123225
-271.042844
-265.2058604
-378.7199757
-411.0068775
-404.0970726
-494.7229238
-518.9802472
-512.4237823
-596.8873572
-631.3524613
-617.7054622
-656.5925584
-677.0022828
-666.6496036
-693.62739
-706.5836843
-699.6987201
143.8321067
89.47876067
87.69101541
-73.57571689
-125.7946019
-117.724565
-270.5177362
-313.6663408
-299.7960358
-427.1034473
-459.380825
-444.1746117
-540.9990649
-563.4594671
-549.6645353
-648.4451702
-673.01631
-649.8286402
-692.5304703
-707.7870235
-690.8384127
-719.7412388
-728.4119346
-717.0909938
172.3402311
101.0688114
97.42401127
-111.1510836
-177.1778444
-160.7078691
-349.9636417
-398.0765665
-371.8822829
-515.080851
-545.9155089
-519.8119956
-620.1702886
-639.4150857
-617.0551932
-722.774999
-732.7426253
-700.7163088
-742.7657881
-750.2251591
-727.666074
-755.5378297
-758.9144964
-743.2505058
228.9956971
120.568135
115.1305978
-195.6439769
-287.170725
-250.5442798
-501.4953659
-553.691891
-505.0614063
-666.2300163
-690.5528858
-648.5692299
-738.0684331
-748.2773418
-717.7918389
-819.3489995
-806.1113815
-767.9555275
-804.1175168
-801.1195534
-774.9301853
-797.4376531
-794.0534093
-776.1700441
341.8755528
129.2425578
132.5130785
-433.8563915
-563.4085603
-467.1994109
-801.7266244
-841.6031328
-754.8129499
-894.7125405
-899.3439015
-840.4723488
-895.1765028
-890.43357
-852.3183369
-928.6599001
-887.6839539
-846.4194533
-870.4669708
-854.3485162
-827.9200387
-839.9646276
-828.0329681
-811.3119221
659.2114049
375.1114169
369.9355446
-1331.184694
-1305.660067
-1171.70998
-1206.416028
-1172.238613
-1100.248999
-1078.867426
-1051.792223
-1011.344819
-1034.201819
-966.6723633
-928.7112135
-931.2772413
-901.5500284
-879.2653966
-877.1122782
-857.1526611
-842.1627343
-2843.912836
-2674.288201
-2442.284235
-2025.636366
-1871.856487
-1737.433629
-1530.745787
-1445.554609
-1382.862183
-1247.906762
-1197.173456
-1164.707806
-1110.88246
-1023.007977
-998.5985168
-973.5430938
-933.1429215
-919.872188
-900.2756896
-874.1708712
-865.9036936
-4037.431027
-3749.776763
-3704.35897
-2423.066127
-2202.698983
-2157.73863
-1724.430663
-1608.647362
-1583.660116
-1347.204826
-1281.750193
-1268.495169
-1135.246564
-1043.314285
-1038.373489
-986.8448982
-940.8246275
-940.3705587
-903.5216509
-874.0440549
-874.6216757
-3661.703637
-3463.133213
-3545.164405
-2322.025667
-2133.681501
-2183.814427
-1702.033364
-1592.919658
-1612.856184
-1340.237063
-1275.767206
-1285.682817
-1099.827932
-1020.057517
-1037.096925
-965.5381022
-920.6624454
-934.2078985
-883.8522284
-854.7765432
-865.1764783
-2724.693708
-2624.013089
-2737.252683
-1907.423933
-1790.571877
-1891.909709
-1502.39911
-1424.61117
-1476.932163
-1235.397928
-1184.842111
-1213.932953
-1014.227965
-957.4461736
-993.0380068
-912.3384529
-874.4270046
-900.5138491
-842.6431418
-817.2257407
-836.7117482
-1759.302705
-1736.201426
-1839.969797
-1393.616039
-1347.753731
-1460.043101
-1217.178816
-1177.19787
-1242.4534
-1070.422169
-1039.35871
-1078.894264
-914.9136406
-843.3409153
-791.83138
910.5580646
-3635.247722
-3539.844808
-3827.045766
-3616.950553
-3677.36581
-3912.343081
-2849.339719
-2960.06916
-3092.696337
-1652.990015
-1661.713967
-1581.102655
-5753.292331
-5737.238197
-5893.954751
-5604.702589
-5484.702554
-5513.523317
-4966.322598
-5003.949467
-5093.363399
-5894.509887
-5754.466173
-5745.792375
-5539.080105
-5561.387683
-5688.267166
-3424.315465
-3509.311667
-3580.106052
-4956.737189
-4877.082034
-4916.761261
-1502.901183
-1955.564307
-2059.769408
-2114.576348
-3614.499399
-3440.768138
-3121.652389
-2651.428637
-2610.456932
-2689.797944
-2156.916091
-2228.118382
-2255.508646
-3318.740479
-3256.759061
-3339.974726
-2769.188431
-2849.10139
-2896.776606
1529.884122
1688.831576
1412.271008
1083.108991
685.3475227
673.7087306
-4412.48627
-4191.997401
-3807.357396
-5284.050698
-5313.75622
-5414.64378
-5301.512872
-5211.306453
-5241.581084
-5697.854983
-5703.358616
-5834.587506
-5783.598735
-5666.192699
-5673.880292
-3886.757793
-3838.566798
-3799.244807
-2903.707978
-2880.213808
-2927.282276
-2615.96789
-2658.204896
-2678.309581
-5608.322153
-5571.652963
-5761.921054
-5822.265887
-5670.70781
-5630.450613
-4592.558959
-4636.853753
-4710.242141
-4556.900897
-4493.848806
-4539.099691
-2545.488455
-2528.758856
-2570.361518
-2204.989328
-1968.623131
-2007.625183
-2021.941312
-2007.087514
-2077.312147
-1668.876207
-1695.587829
-1565.144108
-1397.263747
-1702.380731
-1741.743068
-2796.805877
-2474.088959
-2500.688805
-1964.758232
-1985.350761
-1903.866357
-4043.579318
-4257.131104
-4026.203564
-3390.371673
-3037.26998
-2976.822301
180.3148715
176.0434012
86.29175598
85.13456784
132.4979956
-11.12676885
36.37064917
35.93906396
38.09262602
37.39529527
-10.07969226
-110.9358389
-105.4056609
-59.23115912
-195.1705951
-151.531728
-158.236276
-141.946065
-145.8126029
-189.5980502
-288.0880803
-278.3099749
-238.2288658
-353.245809
-317.3397751
-327.6928343
-302.6571268
-308.5945866
-345.0102307
-430.8899203
-419.5842953
-387.9485759
-477.4018726
-449.9597195
-461.0968965
-434.3907365
-440.7270453
-468.9096999
-537.5119558
-527.0505466
-503.5818592
-569.1091166
-549.3095399
-559.2938424
-535.5091438
-541.0951536
-561.6777726
205.6884441
197.4117311
94.30336802
91.66992196
149.1809364
-23.90742633
33.65891153
32.48891921
35.3832841
34.61421332
-19.81903342
-146.9539388
-135.4360661
-80.54863516
-238.4143979
-188.2617324
-202.441885
-166.4355421
-176.3626552
-224.5820792
-349.3688394
-330.0830915
-285.8125754
-409.4366391
-371.3500692
-391.3687073
-339.8388802
-354.2634462
-391.9606786
-496.858301
-476.8029228
-444.6178533
-533.0256349
-506.3027821
-525.8431108
-474.1063776
-489.1327583
-516.1869855
-596.8568805
-579.1053061
-557.2685071
-616.9277968
-598.9772923
-615.9971265
-570.8354731
-583.9879543
-602.4945769
258.5647448
241.6621279
109.9673012
105.2552236
183.1322516
-50.96069501
26.62214547
23.15064079
31.0269843
29.14076076
-42.00026861
-221.070653
-197.0099682
-125.9541507
-324.0042078
-263.2363549
-291.9007327
-219.2933102
-239.3311447
-297.0044858
-463.857263
-428.5086931
-379.1047634
-511.3241397
-472.4674918
-508.1664803
-414.6185776
-441.4910329
-480.3750946
-609.9444781
-575.6487722
-545.5760949
-625.7968603
-602.2888872
-634.9134337
-548.1067374
-573.4440078
-598.136831
-689.5628333
-663.5351091
-646.2185073
-691.1235398
-678.3447399
-702.4698448
-635.0974653
-655.9654497
-670.3697954
367.8749172
332.2889021
130.4188219
125.9123886
250.2689381
-120.6227685
0.4594077447
-15.85562086
18.2275257
11.08423314
-95.41856649
-392.6003748
-333.5519474
-232.9923374
-496.0467482
-421.2528405
-485.7147148
-326.5402694
-368.9040866
-440.254384
-678.0056753
-611.1664228
-558.7928557
-688.8974494
-654.3032648
-718.033823
-549.5533583
-598.0461226
-635.392287
-786.0139006
-736.1218834
-715.6862795
-764.3079811
-751.9755064
-797.8490868
-670.9438892
-709.8030659
-725.4433447
-815.6173992
-780.9190509
-773.7327347
-790.315931
-786.2925461
-817.7295968
-728.5459179
-756.5332604
-763.2486172
624.9481298
535.5168417
-24.07735924
115.6564996
384.8609847
-371.7381522
-145.3846427
-249.031729
-41.5193402
-81.7530831
-272.9184688
-853.3339582
-689.7840724
-551.8640618
-863.1209132
-791.6089457
-945.9617707
-565.2160541
-665.3345479
-743.7825066
-1049.198108
-939.2834244
-910.2032804
-964.0000186
-955.9889802
-1053.515405
-788.9564273
-867.9047435
-884.7663795
-1029.980105
-962.7895277
-965.6152096
-948.8973444
-956.7776583
-1016.051156
-847.4106484
-900.5099212
-898.8415378
-970.6049373
-930.1034983
-939.8488416
-910.4521306
-920.2208985
-955.9164187
-850.7086363
-884.9879608
-879.2371404
314.0372234
363.8956593
726.2392105
-305.3731363
7.714874577
-127.0976004
132.1314248
84.83413578
-178.1802276
-1594.271836
-1448.333782
-1502.918109
-1341.281276
-1393.96356
-1514.251482
-1160.149503
-1274.626114
-1240.95699
-1315.139882
-1244.368057
-1291.243817
-1161.02738
-1200.963176
-1261.02069
-1077.266049
-1139.290891
-1108.063979
-1129.118114
-1091.295217
-1124.52521
-1033.890113
-1061.154783
-1093.860849
-991.6158424
-1026.88265
-1004.102043
-3091.766681
-2892.075686
-3098.681036
-2560.491534
-2716.062471
-2892.985033
-2086.327256
-1990.0333
-2170.680138
-1708.28915
-1837.87638
-1917.521552
-1631.476597
-1741.168161
-1628.443799
-1547.648066
-1501.211281
-1597.192232
-1345.210984
-1417.874954
-1456.992344
-1318.213153
-1370.993319
-1305.521131
-1249.823228
-1225.912355
-1281.636209
-1133.785956
-1176.936488
-1197.345105
-1124.54681
-1152.460503
-1112.862455
-3774.15648
-3772.308792
-4053.133921
-3290.615392
-3519.290046
-3529.316187
-3446.758622
-3495.533557
-3274.494296
-2213.910343
-2220.98945
-2440.638216
-1875.575854
-2034.597314
-2031.452473
-1977.634195
-2016.853739
-1859.122514
-1621.751035
-1621.871442
-1739.391284
-1432.368619
-1520.355632
-1520.80081
-1487.439626
-1508.786767
-1422.319516
-1289.807215
-1289.147983
-1355.860043
-1179.745192
-1230.793248
-1231.33406
-1213.276073
-1224.547062
-1174.454465
-3275.941133
-3372.770242
-3557.048099
-3036.018225
-3199.602266
-3115.686861
-3347.345579
-3278.336886
-3112.334707
-1984.69018
-2066.247602
-2238.168425