/*--------------------------------*- C++ -*----------------------------------*\
| =========                 |                                                 |
| \\      /  F ield         | OpenFOAM: The Open Source CFD Toolbox           |
|  \\    /   O peration     | Version:  v2012                                 |
|   \\  /    A nd           | Website:  www.openfoam.com                      |
|    \\/     M anipulation  |                                                 |
\*---------------------------------------------------------------------------*/
FoamFile
{
    version     2.0;
    format      ascii;
    class       surfaceScalarField;
    location    "2.54";
    object      phi;
}
// * * * * * * * * * * * * * * * * * * * * * * * * * * * * * * * * * * * * * //

dimensions      [0 3 -1 0 0 0 0];
oriented        oriented;


internalField   nonuniform List<scalar> 
5999
(
0.0004351142051
0.9162148858
0.0005406186476
0.9165944956
0.0006399005119
0.9165507181
0.0003145446311
0.9165684407
0.0004069152076
0.4583375436
0.0003270010189
0.4583027131
0.0004080993123
-0.000410812377
-0.0005176828752
0.4582758752
0.0005918076594
-0.0006641005665
0.4582219491
0.0007771514961
-0.0009009188193
0.4581955519
0.001035366883
-0.001188746638
0.4581706297
0.001353116927
-0.001518804784
0.4581709579
0.001682846868
-0.001841521259
0.4582047425
0.001968278804
0.00119640425
0.9150184816
0.001901243544
0.9158896563
0.002179605273
0.9162723564
0.0006518578
0.9170440181
0.001052170069
0.4580490641
0.0007860596081
-0.4581832659
-0.4581586827
-0.0009734090885
0.4579229836
0.001209108136
-0.4580008399
-0.001501569148
0.4576479372
0.0008710654604
0.0009834064647
-0.2289332054
-0.001060903601
0.2288400324
0.001154076528
-0.001552332202
-0.2288644796
0.2287410269
0.00167578492
-0.002176850755
-0.228807991
0.228648581
0.002336260729
-0.002906574382
-0.228800417
0.2286247319
0.003082259486
-0.003618756442
-0.228866232
0.2287509018
0.003734005836
0.001512229668
0.9135062519
0.004063074251
0.9133388117
0.00690053577
0.9134348949
0.002863064979
0.9147573888
0.006324100079
-0.4579789287
0.4577779563
0.003064037388
-0.4577028623
-0.003082157623
0.4583057581
0.002479261875
-0.457166714
-0.002619177495
0.4568643048
0.001413476584
0.001508110099
-0.2283874935
-0.00176068865
0.228190553
0.001957629152
-0.2281238288
-0.002665114752
0.2278491402
0.00293980335
-0.2279383399
-0.003267520304
0.2307623656
0.0004349100353
-0.2335780276
0.00929308703
0.2361740441
-0.01192760176
-0.2326394015
0.01758015764
0.2337246918
-0.01869339852
0.0005016745131
0.9130045774
0.001114200749
0.9127262855
0.00235651741
0.9121925782
0.003216280228
0.9117253807
0.002172245305
-0.45699505
0.4565371004
0.003674229873
-0.459798377
-0.004923772727
0.456697059
0.008025090767
-0.4582582772
-0.009352522686
0.4597270685
0.002258970381
0.005624760967
-0.2274665595
-0.002296362872
0.2272329152
0.00253000709
-0.2284784611
-0.002369622344
0.2320242335
-0.001197465317
-0.2408064598
0.0111821541
0.2435063504
-0.01397672473
-0.2421904108
0.02008078351
0.2433234521
-0.02131289523
-0.2355586122
0.02294774505
0.2355409964
-0.02298286824
9.285700104e-05
0.9129117204
0.0002560784234
0.912563064
0.0006115680682
0.9118370886
0.001278500465
0.9106057057
0.000452742565
-0.4562368278
0.4553976611
0.002117667138
-0.4552118771
-0.00259002157
0.4545206406
0.003281258088
-0.4535400561
-0.004226474939
0.4526618415
0.00269726394
0.002407425544
-0.2277681057
-0.004599486765
0.2262393713
0.006126806087
-0.2418380715
-0.001147323602
0.2463282293
-0.003457973
-0.2486509336
0.01237752566
0.2493397736
-0.01323324213
-0.2432778184
0.01258837727
0.2420070979
-0.01144920533
-0.2329156673
0.006370358918
0.2310379055
-0.004549468731
-0.0002209411238
0.9131326615
-0.0003264454587
0.9126685684
-0.0001534921233
0.9116641353
0.0001835673973
0.9101288077
0.0001398384852
-0.4544944566
0.4541504692
0.000527554805
-0.453949366
-0.001532543975
0.4531246281
0.002357281909
-0.4517276031
-0.002988294545
0.4506008345
0.002035765621
0.002079297569
-0.2315077214
-0.0008228422275
0.2331290373
-0.0008588111345
-0.2467337545
0.004700522168
0.2472140993
-0.005367867206
-0.2485806758
0.002779496687
0.2455819867
1.503671038e-05
-0.2348211303
-0.009494869212
0.2344701386
0.009728114029
-0.2222007276
-0.02202856628
0.2193075112
0.02489438233
-0.0006819419021
0.9138146034
-0.001217330241
0.9132039567
-0.001567105908
0.9120139109
-0.0002540714277
0.9098575061
-0.001041732859
-0.4540079762
0.453682744
7.116080063e-05
-0.4520242501
-0.0003324729587
0.4516121868
0.000744536226
-0.450114937
-0.001780378393
0.4497101046
0.001104088774
0.001080381377
-0.2356201098
0.00047742194
0.2361330307
-0.001103365719
-0.2482441891
0.001572907844
0.2453868847
0.001049835719
-0.2392027063
-0.003938841019
0.2371927872
0.005745562122
-0.2192136976
-0.01469764507
0.2139914602
0.01985098651
-0.2083313849
-0.0385474043
0.1057284886
0.09995814695
0.01841999193
0.02277216174
-0.001171876412
0.9149864798
-0.002277156163
0.9143092365
-0.003161526937
0.9128982817
-0.001654615766
0.9106293261
-0.00227873113
-0.4536649325
0.4536746025
-0.00166428577
-0.451419526
0.001720378623
0.4513126205
-0.001613473124
-0.4486305646
0.001422933421
0.4486717393
-0.0005438787214
-0.0009327078871
-0.2359526983
-0.0001397368715
0.2354248056
0.0005270413815
-0.242425271
-0.002424730141
0.2414793625
0.003124196634
-0.2313990409
-0.006176801072
0.2299769265
0.007403194697
-0.20532048
-0.01125568138
0.2040518661
0.012501103
-0.09250784852
-0.008140940707
0.09240347882
0.008245310402
-0.001661783506
0.9166482633
-0.003243668432
0.9158911214
-0.004881440722
0.914536054
-0.00285956977
0.9120898493
-0.003482394178
-0.453918991
0.4541534503
-0.003094029007
-0.4514040574
0.003362688983
0.4516509355
-0.003609567044
-0.448691923
0.003830378582
0.449016373
-0.001971785948
-0.002210332884
-0.2344660438
0.002035134697
0.2339920978
-0.00171941452
-0.2380720413
-3.486384635e-05
0.2370563863
0.0007923192279
-0.226529814
-0.002997824614
0.2257803199
0.003553971291
-0.2036489683
-0.003995246095
0.2041448302
0.003488996444
-0.09607450144
5.379344788e-05
0.09666189561
-0.000641187618
-0.002116122418
0.9187643858
-0.004340303114
0.9181153021
-0.006497306409
0.9166930573
-0.004066781028
0.9143597086
-0.004700384734
-0.4546288658
0.4551001213
-0.004538036606
-0.4520049349
0.00507683048
0.4526116478
-0.005683543326
-0.4495041703
0.006269736246
0.450311117
-0.003352913295
-0.00376559451
-0.2326554831
0.003565879434
0.2322668749
-0.003348068055
-0.2343849895
0.002092265509
0.2336054185
-0.001581020829
-0.224223742
0.0003195716923
0.2238479251
-0.0001382747884
-0.2061871262
0.0007903935249
0.2069206015
-0.001529865237
-0.09954171641
0.002220633477
0.09984085061
-0.001243923941
-0.001275843718
-0.002651177609
0.9214155634
-0.005293724859
0.9207578494
-0.008081941612
0.9194812741
-0.005233036739
0.9173560751
-0.005845271353
-0.4557961489
0.4564894169
-0.005926304683
-0.4533147234
0.006763545586
0.4541046701
-0.007553492328
-0.4514606277
0.008467393409
0.4528356366
-0.00483873203
-0.005066549195
-0.2312173663
0.004924290911
0.2308949773
-0.00478711287
-0.2315065921
0.003891376074
0.2308736158
-0.003537502374
-0.2230367055
0.002854500722
0.2228542868
-0.002866817673
-0.2091888257
0.00396129525
0.2099600529
-0.004734831297
-0.1015894414
0.003537011674
0.1017881472
-0.001852514281
-0.00188320317
-0.003135721979
-0.006295281504
-0.009591972006
-0.006285091632
-0.4573666769
-0.007148626211
-0.4551167342
0.008147701071
-0.009221315372
-0.4541598403
0.01039737874
-0.0058700784
-0.005952704312
-0.2299786472
0.006014295213
0.2296882762
-0.005924825364
-0.2291353418
0.005245528164
0.2286024147
-0.005002260282
-0.2225310386
0.004691333613
0.2224902353
-0.004843898955
-0.2123919233
0.006352530445
0.2132638858
-0.00722471043
-0.1030871067
0.004836116215
0.103279581
-0.002494465367
-0.002534125143
-0.0004252835669
-0.0002106805215
-0.09543853735
0.002026901004
-0.09922610468
-0.001156092248
-0.001186420486
0.003387774619
-0.1013769646
-0.001787871508
-0.001812379864
0.004661692217
-0.1028992606
-0.002406409196
-0.00244312912
-0.009857349774
0.01035482432
-0.09300532307
-0.0002109524069
-0.0005256602909
-0.2054575295
0.09993722342
-0.09962526387
0.001714941475
-0.09676552419
-0.0004474527714
0.09726677041
0.003260423483
-0.004024482144
-0.2084278531
0.1019638262
-0.1017449547
0.003168903138
0.001928453462
0.1002294034
0.1006623304
0.002759776176
-0.1004057299
-0.001497251795
-0.001519124905
0.04998919766
-0.001052603424
-0.04974557059
0.00193591087
-0.001126934519
-0.0491955868
-0.0008331424781
0.001607539561
0.04924305126
-0.0008218615385
0.005794023846
-0.006649479432
-0.2115371136
0.103536847
-0.103339269
0.0044641142
0.003330881725
0.1021699562
0.1023560438
0.003996288084
-0.1021696171
-0.002075247637
-0.002107467219
0.02540497333
-0.001030634398
-0.02547123882
0.001096899889
-0.05001297942
-0.001005522366
0.002078846495
0.05002535441
-0.001085699121
0.004630302947
0.1037426603
0.05201768481
0.002708536795
-0.002770237443
-0.05195598416
0.02713219357
-0.002044525161
-0.02688590416
0.001798235749
-0.02634217009
-0.00103276269
0.00119403681
0.02618089597
-0.04405846901
0.0009130303361
0.04465564537
-0.0007612096478
-0.0007489970541
0.04755641511
0.001521333255
-0.04717437239
-0.00102026603
-0.0008831099511
-0.004876294707
-0.04061945317
0.04063661488
0.004859132997
0.0006183863788
-0.00122989775
-0.04344695763
-0.0007982476579
-0.04914178512
0.001565848944
-0.0008214029623
-0.001441488271
-0.04844309513
0.00135553568
0.04852904772
-0.09811300114
0.001342708096
0.0985165514
-0.001746258358
-0.04826992702
0.04830992709
-0.0007074877886
-0.0007740005496
0.02467908333
-0.0008057635997
-0.02467156739
0.001476633197
0.04777374712
-0.0009262339257
-0.0007677312724
0.001411913103
-0.04822987963
-0.0007085410096
-0.0007434194833
-0.001010619377
-0.05004443961
0.002026078859
-0.0009839992847
-0.001112780409
0.001922784791
0.05012669818
-0.0009475048956
0.002921996846
0.1009163764
-0.001576001032
-0.001600041795
-0.02533853055
0.02540059184
-0.001174841697
0.02481831489
-0.0009512357568
-0.02487769851
0.02466286501
-0.0008169241511
-0.001262874609
-0.02512825936
-0.00107333075
-0.02647399355
0.001205154211
-0.001039837164
0.001114511664
0.02533029883
0.004156318865
0.1025384102
-0.002151039369
-0.002187645827
-0.02559874352
0.02545370209
-0.0008947957278
0.02695147325
-0.0008357644819
-0.02718903951
0.02479274585
-0.0009799533259
-0.0008870433681
-0.02574233455
-0.001481669216
0.001535505317
0.02707835747
-0.002816168959
-0.02765170771
0.02745781338
-0.001287774886
0.02668286857
-0.0007641580139
-0.002286818976
-0.0274094139
-0.005567624428
0.005297680023
-0.2033911999
-0.09624377498
-0.0009470327737
-0.09426835104
-0.007938535607
0.09406594594
0.09344676306
-0.003643007671
0.003063307042
-0.09286706243
0.04437404179
-0.04386748664
0.0001118312235
-0.04154662581
-0.004885526242
0.04155585735
0.001081481702
-0.001518455903
-0.09767602694
-0.04836672256
0.001335540533
-0.04738371523
0.001244624399
0.04761572403
-0.04709151804
0.00122913607
0.0004324567311
0.0448546154
-0.002521536564
0.09408890131
0.001879398318
-0.02056556432
-3.153984367e-05
0.02045946499
0.0001376391784
-0.003172902389
-0.01658113994
0.0164312871
0.003322755235
0.001445795393
0.01901637977
-0.001667710395
-0.01879446477
-0.02833737896
-0.09537772985
0.04663847585
0.04519005415
0.01590871801
0.01597786081
-0.005869709393
0.006654878258
-0.04140462204
-0.001154468619
-0.02497431991
0.001304348867
0.02482443966
-0.05120093188
0.002771462778
0.05123515238
-0.002805683286
0.0513828478
0.00292237941
-0.002970254073
-0.05133497314
0.005087845737
-0.01983668337
0.02802529266
-0.01327645502
-0.0001013718188
-0.02064920251
0.0001850100058
0.04599037356
0.00131761114
-0.04560890739
-0.0008489569513
-0.0008501203593
0.02273041797
-0.02304652768
0.0002147379003
-0.02174472808
0.003414865501
0.02341770832
0.02303279741
-0.02511718047
0.002091933229
-7.550166923e-06
0.0002904912332
0.02240838689
0.001391403064
0.04634106554
-0.0008582473835
-0.0008838476576
0.04155966375
-0.001767058537
0.001196214895
-0.04098882011
0.01950495254
-0.01906394417
0.001004787027
-0.01773207187
-0.002711812936
0.01727098242
-0.003517718006
-0.02098603629
0.002759026216
-0.002117982961
0.001461528848
0.02016140665
-0.0008943905883
0.04219183356
0.0002622207796
0.0196119704
-0.002713573581
-0.003466355539
-0.01988804584
0.02458841366
0.0007799646627
-0.0008777905149
-0.02449058781
-0.02117814991
8.264994555e-05
0.02110951651
-1.401654616e-05
0.0008156887283
0.02463026771
-0.0008575427742
0.04806756705
0.001409467762
-0.04799055616
-0.0007696884228
-0.0007167902249
0.02165238362
-0.02168937863
7.715518499e-05
-4.016017412e-05
0.0006745570594
0.0223150741
4.316625495e-05
-0.02123882161
8.369366584e-05
-2.302196079e-05
8.237825658e-05
0.0215923268
-2.232142544e-05
0.001403153872
0.04813475773
-0.000750810593
-0.0007195339623
0.02525966564
0.0009142591865
-0.0008944042038
-0.02527952063
0.0009845547839
0.02518062115
-0.0009055102929
0.02461475735
0.0008924783376
-0.0008857057188
-0.02462152996
0.000899438742
0.02461300488
-0.0008976862776
0.02471998714
0.001349989117
-0.001410320115
-0.02465965614
0.001601550874
0.02503321777
-0.001914781504
0.02640343431
0.001264371615
-0.001479229949
-0.02618857598
0.001156565643
0.02645568115
-0.001208812476
0.002965475044
-0.003005187681
0.02470536381
0.001100471944
-0.0008200664729
-0.02498576928
0.02444460138
-0.0008937061878
-0.04334151357
-0.01735678862
0.03946594012
-0.004336466914
0.004484420293
-0.01672909332
-0.02576905478
0.001122223209
0.02580339721
-0.05064126108
0.00207851575
0.05068233124
-0.002119585909
0.05078685479
0.002188833796
-0.002222983825
-0.05075270476
-0.0504617947
0.001949407003
0.0505088796
-0.001996491902
0.00205079355
-0.002093466154
-0.05059858849
-0.02565247483
0.001147791666
-0.05109482423
0.002572194507
0.05112297658
-0.002600346853
0.002715160418
-0.00274003172
-0.05117606057
-0.02514004723
0.00126619926
-0.05012295927
-0.0009359791058
0.00194556118
0.05009793198
-0.05026090866
0.001819488856
0.05031513247
-0.001873712664
0.001914363688
-0.001962884806
-0.05041327358
0.02397406832
-0.0003393243709
-0.02424981861
0.0006150746629
-0.0003274975943
-0.02503816417
0.0005873963271
0.02477826543
-0.025037364
0.0009832252519
0.02497852338
-0.0009243846375
-0.02502831041
0.001404398743
0.02522546254
-0.05092397895
0.002418079299
0.0509548707
-0.002448971051
0.002528184785
-0.002560640028
-0.05106236899
0.002228352702
0.05082068832
-0.002262186233
0.002354975489
-0.002390094485
-0.05088885996
-0.02496866261
0.001290341315
0.02500856977
0.001064101018
-0.0009135116473
-0.02515915914
0.02446172862
-8.667809766e-05
-0.02473514907
0.0003600985497
-0.02545732225
-0.0001362704841
0.0003787036678
0.02521488907
0.0228300616
-0.02298079542
0.0001647102836
-1.397645882e-05
-0.0263472339
0.002254503307
0.02407248747
2.024312345e-05
-0.02707335211
0.00164155348
0.02736261083
-0.001930812199
0.02503200099
0.00126810687
-0.00145536306
-0.0248447448
0.02320744286
-0.002174470764
-0.02316091804
0.002127945942
-0.0003974479307
0.0006817914391
0.02368972481
-0.0001285376906
-0.02570129977
0.0003725152075
-0.000112914932
-0.0264379417
0.0003616462674
0.02618921037
-0.02616602058
0.001011901382
0.02602677135
-0.000872652151
0.02583844232
0.001032653897
-0.000749425959
-0.02612167025
0.02233874772
-0.022455819
0.0001010007514
1.607052465e-05
9.847356998e-05
0.02268873885
4.284917899e-05
-0.01945556303
0.004430490397
0.01497661658
4.845605438e-05
-0.02441031979
0.002582147764
0.0252955482
-0.003467376171
0.01854991309
0.001266552285
-0.01992685841
0.0001103930321
0.004126632425
0.01432119411
0.0001020865563
0.01707893746
-0.0006722518524
0.0003375008024
-0.01674418641
2.238298863e-06
0.01760182189
-0.0005251227238
0.02102517672
0.0005091116565
-0.02171132039
0.0001770320113
8.017304752e-05
0.02081185236
0.0001331513123
-0.02408889618
0.0004775328373
0.02369153639
-0.02330450533
0.0009820325712
0.02327688353
-0.000954410779
0.0229943441
0.0009232958478
-0.0008201689095
-0.02309747104
-0.02220252476
0.001219679098
0.02263587786
-0.001653032194
0.001052340409
-0.001124149907
-0.02323269583
-0.02451090842
0.0009311239001
-0.0208213889
0.004114191197
0.02083383013
-0.02327822011
0.001550708209
0.02388857279
-0.002161060886
0.0256320016
0.001301224238
-0.001632104103
-0.02530112173
0.0009428211194
0.02290989393
-0.0008583709497
0.001334586517
-0.001651071021
-0.02296173561
-0.02150879175
0.001953955137
-0.0007073176916
-0.02179483985
0.0009977312421
0.0215044263
-0.02116780189
0.000782258084
0.02131409677
-0.0009285529667
0.001094471719
-0.001527041248
-0.02176995523
0.02187175458
0.001351511621
-0.001244225306
-0.02197904089
0.02130925752
-0.000144820637
-0.02037710919
0.001424507693
0.01895025988
2.34161269e-06
-0.02295923048
0.001539715162
0.02335596646
-0.001936451133
0.02674592778
0.002141449743
-0.003163961777
-0.02572341574
-0.02329672261
0.0006227589851
0.02314332776
-0.0004693641356
0.001054539068
-0.001103066406
-0.02291070315
-0.02084011546
0.0004195775652
4.342871302e-05
-0.02674562089
0.0005085012366
0.02653742066
-0.0003003010065
0.02590468746
0.0004844576541
-0.000269456176
-0.02611968894
0.001585771749
0.02714152667
-0.001981370638
0.0005678856631
-0.0003639446884
-0.02694956186
-0.02189163473
6.226540344e-05
0.02184573665
-1.63673259e-05
-0.02527492832
0.0006475970922
0.02510156961
-0.0004742383801
0.02458792931
0.0006233634936
-0.0004576958622
-0.02475359694
0.001025631773
0.02568725281
-0.001080882984
0.0006704377083
-0.0005019673355
-0.02544339869
-0.02195687751
6.471691499e-05
5.258648389e-07
-0.02141868847
3.349335579e-05
0.02133904757
4.614754536e-05
-0.02393729479
0.0006009621267
0.02377203301
-0.000435700349
0.0006090463275
-0.0004527940109
-0.02345297492
0.0006209080059
0.02442548996
-0.000458468656
0.0006041250169
-0.0004391685576
-0.02410225124
-0.02149225973
4.085860905e-05
3.27126511e-05
-0.02658212027
0.0003439738257
0.02635074438
-0.0001125979296
0.02567375697
0.0002937860892
-6.667722765e-05
-0.02590086584
-0.02744547175
0.002072196097
0.02753962693
-0.00216635128
0.0004163186971
-0.0001496307441
-0.02684880823
-0.02478014185
0.02456056342
-0.0001079191637
0.02386176211
-8.990647207e-05
-0.02411118001
0.0002946820409
0.02544591018
-6.683525073e-05
0.0003234153865
-0.0001049679453
-0.02499858929
-0.02494714872
0.0004924750393
0.02470080326
-0.0002461295833
0.02394967009
0.0005194996848
-0.000265916181
-0.0242032536
0.0004762330575
0.025670708
-0.0002422536005
0.0004855338985
-0.000241897511
-0.02519078511
-0.02292921117
0.002050741605
0.02298867326
-0.002110203693
0.003298014704
-0.004571130394
-0.02617235606
0.0005454385045
0.02369230049
-0.0002880689033
0.001212271237
-0.0009864878659
-0.02315499454
-0.0004935970331
0.02284634782
-0.02344648093
0.001093730147
-8.40940805e-05
0.0003702982492
0.02417552445
0.001079960058
0.02486262139
-0.0009340116791
-0.02198664294
0.02186913999
3.340887149e-05
0.02101134335
-0.02151307734
8.136954989e-06
-0.0223864254
0.02228529496
-3.514004146e-05
-0.02211124682
3.792578107e-05
0.00150044164
0.01951662923
-5.727521668e-06
0.001901804737
-0.002533469283
-0.02644168756
-0.03104728582
0.00471692526
-1.687333968e-05
0.002239933029
0.02210685643
-0.002224594685
0.02773585044
-0.0276539474
0.002142691647
-0.004481966873
0.003327793571
0.02436161617
0.001403608578
0.02533399135
-0.00170559894
-0.02194411578
0.0219499727
-0.004487823793
0.0240922646
-0.02631946467
2.605381283e-06
0.02357874111
-0.0001144269355
-0.001473870131
-0.02264471641
-0.02278640251
0.02268462853
-1.11409496e-05
-0.02248665384
-2.830925605e-05
0.0007742185894
0.02331995094
-1.904930818e-06
0.0001193705817
-0.02289626495
-9.508140979e-06
0.001013043363
-0.0008833403611
-0.02629572358
-0.02669927715
0.0003807060299
0.001150219388
0.02735984964
0.0218441937
-0.02197631297
0.0001512275653
-1.91082983e-05
0.0001120822349
0.02222344564
3.219842253e-06
0.001043935637
0.02555380768
-0.0007593009998
0.002035288968
-0.002290577714
-0.02415503105
-0.02097725469
0.00144865098
7.304067604e-05
0.0001895073459
0.02169079658
-3.611022395e-05
-0.04939648859
-0.0009267891606
0.001766639478
0.04945607701
-0.04974021346
0.001554504004
0.04981069844
-0.001624988974
0.05002573819
0.001660885783
-0.001730771695
-0.04995585228
0.001387426769
-0.04944106871
0.04951863821
-0.001464996265
0.001511571038
-0.001587625435
-0.04966415907
-0.0008856748434
-0.04934492568
0.001726590276
0.001694514781
0.05009351722
-0.001762293806
0.001792668252
-0.001844670623
-0.0502089063
-0.0009884351041
-0.05014182053
0.00192155554
0.02546239865
0.0008934278242
-0.0009156237457
-0.02544020273
0.02713290226
-0.02738285865
0.0006662750906
-0.02731937917
0.001720207644
0.02767136762
-0.02632259209
0.002301227627
-0.0236482818
0.001690874285
0.02400814912
-0.02467529383
0.001021747243
0.0247853416
-0.001131795006
0.000137876164
0.02035813272
-3.654389558e-05
0.02376015195
0.004075138703
0.0001900020093
-0.01367190929
0.0003954542668
-0.0001091916415
-0.02074666496
0.0002066540947
0.0002148243418
-0.02337054367
0.02323685044
-0.02359893899
0.000576912893
0.02288068522
0.0005709031214
0.004404416863
-0.02951879152
-2.805816266e-06
0.02615741916
-0.02491448987
0.003161487573
0.02627125007
0.001978102315
0.02253965851
0.0006315179477
-0.0004876311508
0.02222351688
0.0008037727806
0.0220586319
-0.02006276841
0.0002425254685
0.02032494708
-0.0005047041313
0.0006124421161
-0.0008694865409
-0.02091075746
-0.02171181952
0.001268491285
-0.004036167562
0.02100070886
0.002647429098
-0.01804866446
0.025422568
-0.0114100711
-0.002601707669
-0.01816053037
-0.0174374941
0.0002992292749
0.0008462995491
-0.01861846428
0.0003346706257
-0.02063327109
0.001591524794
0.01464099006
-0.01458199925
-5.89908127e-05
0.03014413945
-0.02124935717
0.005746207787
0.02568448806
0.004465402391
-5.751007747e-06
0.0228293887
-0.02301215764
0.0002654188821
-9.804491967e-05
0.02261382988
0.0003136037417
0.02102869256
-1.72209717e-05
0.02227135335
-0.0223328687
0.0001061091835
-4.459382941e-05
0.02222872279
9.658637792e-05
-5.395582305e-05
0.02356661574
0.002128940071
-1.106775271e-05
0.02285008224
0.0007326635186
-1.613001364e-05
2.718502064e-05
-0.02177664018
6.007652338e-05
0.02456138768
-0.02476193017
0.0002277275076
0.02439134521
0.0002471976542
0.02593286018
0.001012946952
-0.0001959707836
0.0256043036
0.0005245273641
0.0220699147
4.918861063e-05
8.693826251e-05
-0.02128797414
-3.778572852e-05
0.02318104449
-0.02334318188
0.0002490756555
0.0002525805176
0.02422103136
0.000252692108
-8.559677241e-05
0.02405426849
0.0002523596429
0.0215398323
-3.310227313e-05
0.02609000454
-0.02635572773
0.000559509283
0.0005993195044
0.02687755658
0.0009996764271
0.02537213016
-0.00090940794
0.0009606441479
-0.000917204109
-0.02508080404
-0.0252972943
0.0005825455218
0.0005610526411
0.02582363394
0.0241463978
-0.02434641158
0.0007195134719
-0.02494179605
0.0006894104408
0.02474486065
-0.0246491352
0.0008702919517
0.0246353752
-0.0008565319454
0.02171519434
-0.02178648654
4.78639498e-05
2.34282492e-05
0.02163819014
5.050309173e-05
2.650110755e-05
0.02212973661
3.310933358e-05
6.587685078e-05
0.02205935432
3.361038217e-05
3.677190647e-05
-0.01489083218
0.0148547249
3.610728587e-05
0.02155621362
6.06900751e-05
2.128644569e-05
8.76724269e-05
0.02145209073
1.645045671e-05
0.0009812712964
-0.001027912911
-0.02462865222
-0.02363659759
0.001200587023
0.0007419351852
0.02394990111
0.000378451559
-0.0001391364124
-0.02497446422
0.02499673811
0.0006696628246
-0.02528794937
0.0246892961
0.0006675405533
0.0003003716366
-0.02327484332
-6.323745112e-06
0.02696558222
-0.02737416723
0.0007089566467
0.02662892121
0.0005013712959
0.02779906171
-0.02777058155
0.002226023145
-0.0007914926329
0.001216387118
6.151521423e-06
0.0230591026
-0.02388347346
0.0008179204561
6.450405658e-06
0.0003363427448
-1.616095549e-05
9.365393227e-05
-0.02257068226
2.120933143e-05
0.02570849803
-0.02600735069
0.0003925065909
0.02541050131
0.0003989974723
0.02631087139
0.000416523384
-9.043233124e-05
0.0003939530372
2.762425996e-05
0.02617631295
-0.03090335791
0.004715982159
1.106280181e-05
0.002280060084
1.277940566e-05
0.0219486539
-0.02201668392
0.004498520418
-0.01494042755
0.005985723541
3.618903491e-05
0.0003627364572
6.853785435e-05
0.01427611768
4.50764322e-05
0.01509760882
-0.0007589422324
-0.01450657918
0.01542030911
4.778330433e-05
0.0183272562
-0.02171592622
0.002184833054
0.016033911
0.001374403664
0.0009189415348
0.01553178714
0.00104397881
-0.008480749072
0.00229661
0.001851392757
0.0001974388077
-2.633162166e-05
9.151902165e-05
0.0229979038
-0.02195329252
0.003069579921
-0.005591156297
0.003674570226
0.0009125766074
0.02195234123
0.001183752253
0.001953003853
-0.02162326049
0.0196964944
0.0006825407857
0.003309752008
0.0004895555007
0.002331419976
0.01255265453
0.0008795488095
0.001142583431
-7.368123562e-05
0.0007496676736
-0.01903678523
0.0003446397158
0.0005148885314
0.02116248009
-0.0217858556
0.002047883203
-0.004410204229
0.004323327147
-4.194359321e-05
0.0001463762105
4.2200884e-05
0.02229159504
0.000468611047
0.0009253170075
0.02240504571
-0.02248642584
0.000105611438
-2.423131457e-05
0.0001025540729
-3.037705963e-05
0.02260377454
0.0002568939383
-1.058624127e-05
0.0001342688911
-1.692018401e-05
0.02495820806
-0.02514487582
0.0002489331701
-3.495963051e-05
0.0002312375178
3.413684314e-05
7.991349052e-05
3.31237041e-05
0.02535106054
0.0003331565453
0.0002709016352
0.02351201616
-0.02370096388
0.0002224410775
-6.839277726e-05
0.0002372270566
-1.731935356e-05
7.58500763e-05
-2.827750821e-05
0.02388642335
0.0002436952148
0.0002263180803
-9.39387341e-05
0.02612956185
0.000315121258
-0.02272566706
0.02264569641
-1.396808783e-05
-0.02281858029
-1.968470076e-05
-0.02255322947
0.0224684435
1.810874373e-05
6.936253324e-05
2.310441156e-05
0.0002980585493
-0.0007397681695
0.0271827824
0.001096612702
-0.02396023943
0.02320104387
1.942737817e-05
-0.02616142188
3.483117748e-05
-0.02294927748
-1.893355389e-05
0.0002778655422
-2.609915637e-05
0.0006118397125
-0.0001087490243
0.02433963201
0.0003296804366
-0.02204440576
0.02196211137
-2.645463413e-05
-0.0221305401
-2.178481866e-05
-0.02187481379
0.02176859933
1.63079901e-05
0.0001006312761
-1.333370334e-05
0.0003290832776
-7.247658512e-05
0.02521704319
0.0003013435736
-0.02238422564
0.02229128456
2.046449716e-05
1.738260729e-05
-0.02221441922
-2.10888243e-05
9.667487711e-05
-1.98095472e-05
0.0003151287736
0.02185445175
4.032684069e-05
-0.02192482613
3.004753721e-05
4.63932651e-05
2.157194441e-05
-0.0002522343039
0.02445334039
0.0004996971786
-0.024455725
0.02424988396
-0.02466152774
-0.02404018642
0.02382477333
0.0002575614853
0.0005076482783
0.02199648407
3.960932088e-05
2.326092994e-05
3.606190324e-05
3.559603566e-05
0.01933779002
0.001431474656
-0.02079150614
2.224146324e-05
0.004423330396
2.362744441e-05
-0.004398105387
0.02414626709
0.003240511556
-0.02175797433
0.02178319934
-0.02243670337
-0.03075793149
2.537921946e-05
0.005879992756
0.003853903795
-0.0003490349355
0.02342665973
0.0006146756938
-0.02359739451
0.023336032
-0.02297945945
-0.0004437317848
0.0005216440359
-0.0001650714887
0.0007933092228
0.02125983109
2.718816083e-05
2.459316005e-05
0.0006142022239
-0.02385720589
-0.0002034772643
0.02371508762
-0.02404501757
0.000944132169
0.02343244564
0.001376372131
0.02437139646
0.00068819789
-0.0004323425639
0.0007587214588
-0.0001140240112
0.02173382986
2.128612214e-05
1.727525132e-05
0.02218946125
0.0001418105493
-4.597683552e-05
-6.092198738e-05
0.01499786935
0.004523536554
-4.776667152e-06
0.01504031253
-4.244318438e-05
0.006064937738
-0.02207191103
0.02654530113
-0.02454959949
0.004069236098
0.00349164484
0.02343786839
0.002234510273
-0.004558481957
0.00344675086
-0.01498358942
0.03096820426
0.005965357851
-0.01497962285
-3.966570193e-06
-0.01947953251
1.208587054e-05
0.004647915164
8.244344476e-07
-0.0001998811057
0.02320594803
0.0005726741838
-0.02164679788
0.02144267136
4.245413985e-06
7.374514724e-06
-0.02096008267
6.680032525e-06
0.0004812881268
1.300560642e-06
0.001042519751
0.02258571062
0.0001154808641
-1.656295117e-05
0.0001230832068
-2.402642766e-05
0.02304258654
0.0002838195074
-6.455103781e-06
0.0001540448281
-7.723243661e-06
0.0001293662556
-0.02210300015
-2.679079394e-06
0.02450774174
-0.02481310953
0.0004347340502
0.02419397757
0.0004649917352
0.02511303086
0.0004095526857
-0.0001196720142
0.0004195933363
7.734833245e-07
0.0005429322417
-0.02146079551
-5.939141856e-05
0.02280446149
-0.02341874474
0.001157215491
0.002236428549
0.02384924292
0.0005342419971
-0.000277337423
0.0007078356039
-4.733635674e-05
-0.00159473062
0.001773094435
-0.2285658573
0.002405756976
0.228205527
-0.2284363409
-0.00217494309
-0.2289611693
-0.001396440339
0.2288052775
0.002646153826
-0.2283642257
0.003472446168
0.2279554876
-0.2282558839
-0.003172049902
-0.2289024248
-0.001995503746
0.2287210778
0.003715729872
-0.2281817474
-0.003716210904
0.2327564956
-0.229721454
0.0006642941766
-0.2288776541
-0.002704819477
0.2286758992
-0.006487163813
-0.2308291282
-0.01258792327
0.2334553817
-0.2318320315
0.01094115972
-0.2289070734
-0.003444745736
0.2287330627
-0.01384416986
-0.2314031666
-0.002142750723
0.002402700513
-0.2277265093
0.003347510695
0.22700925
-0.2273482906
-0.003008470073
-0.002411262439
0.2279516747
0.002074595332
-0.2272103416
-0.008665755829
0.2387335682
-0.2353758766
0.005248383923
-0.00354475719
0.2282311791
-0.01182805794
-0.2377171277
-0.01923673705
0.2428185116
-0.2408193083
0.01714933418
0.006322723727
0.2356919125
-0.02094607291
-0.2405667109
-0.02389023345
0.2376767327
-0.2370897435
0.02324267878
0.01608770563
0.2349141646
-0.02426121079
-0.2352356745
-0.009439818452
0.01069768278
-0.2290259701
-0.002901477554
0.2396599326
-0.2345441752
-0.002278312004
-0.003160393152
0.2277964689
-0.006386785002
-0.2384447558
-0.01333892042
0.2481523375
-0.2465047907
0.01154602124
0.008075686687
0.2417573546
-0.01466417513
-0.2474774002
-0.01580829352
0.2455021483
-0.2457281867
0.0158948051
0.01844554182
0.2443497836
-0.01530947245