/*--------------------------------*- C++ -*----------------------------------*\
| =========                 |                                                 |
| \\      /  F ield         | OpenFOAM: The Open Source CFD Toolbox           |
|  \\    /   O peration     | Version:  v2012                                 |
|   \\  /    A nd           | Website:  www.openfoam.com                      |
|    \\/     M anipulation  |                                                 |
\*---------------------------------------------------------------------------*/
FoamFile
{
    version     2.0;
    format      ascii;
    class       volScalarField;
    location    "2.51";
    object      omega;
}
// * * * * * * * * * * * * * * * * * * * * * * * * * * * * * * * * * * * * * //

dimensions      [0 0 -1 0 0 0 0];


internalField   nonuniform List<scalar> 
3019
(
763.0589878
142.3746585
69.67147998
45.99030893
37.13777303
33.56989302
31.82961128
31.1580956
30.74948654
30.59020249
30.50471182
30.46051076
475.4897414
132.9905273
68.33176647
45.75800074
37.17023172
33.63520536
31.83584927
31.12550938
30.68446945
30.51173447
30.41676772
30.36758023
340.8771867
123.5298289
65.72159588
45.05348496
37.00116488
33.62196446
31.81302026
31.08283234
30.61946789
30.4359489
30.33206299
30.27899482
289.3569346
112.839742
62.31626296
44.00660291
36.71597881
33.53837387
31.76089821
31.02844273
30.54930962
30.35792152
30.24773465
30.19082407
228.5714428
99.85772149
58.32816438
42.84581988
36.43263991
33.41896607
31.68666693
30.96281742
30.47511199
30.27865123
30.16269246
30.10297347
181.1352013
87.90685711
54.88745393
41.95759166
36.1616164
33.27558375
31.59293776
30.88294061
30.39180861
30.19214421
30.07323294
30.01110131
154.0891552
80.59520458
53.01508759
41.38614764
35.8857834
33.11596167
31.48607597
30.79232867
30.30238225
30.10160896
29.98072902
29.91728732
142.9519557
77.82539754
51.8869173
40.86919139
35.61587817
32.94828311
31.36989845
30.69257857
30.20460515
30.00332957
29.88143517
29.81735486
134.9411242
75.5336091
50.96435142
40.40505909
35.35690176
32.77779411
31.24706679
30.58527152
30.1021519
29.90201082
29.77997367
29.71572317
128.1863295
73.5305348
50.2101324
39.99536441
35.11162883
32.60785463
31.11958293
30.47194181
29.9923381
29.7930407
29.67130945
29.60738947
122.3953732
71.75679486
49.5706621
39.63987766
34.88232068
32.44078302
30.98923168
30.35400876
29.88064293
29.68367852
29.56281219
29.49947281
117.356461
70.17231294
49.00751688
39.33158921
34.67010678
32.27821977
30.85755974
30.232863
29.76270088
29.56685296
29.4468642
29.38437379
112.9265969
68.74857935
48.49963247
39.0597968
34.4743347
32.12123534
30.72586631
30.10970637
29.64622855
29.4531678
29.33443488
29.27285508
108.9979833
67.46107417
48.03407266
38.81453505
34.29313257
31.97043106
30.5952488
29.98568308
29.52357809
29.33107426
29.21325663
29.15267912
105.4713986
66.27992051
47.59890306
38.5881651
34.12469097
31.82630288
30.46669334
29.86167596
29.40626938
29.21657697
29.09999248
29.04035566
102.2366066
65.16842275
47.18233923
38.3756749
33.96798349
31.68940789
30.34104514
29.73856581
29.28094934
29.09066134
28.97471135
28.91600121
99.20207554
64.09904807
46.77740682
38.17495064
33.82282434
31.56034591
30.21899989
29.61683886
29.16615101
28.97852305
28.86354047
28.80562558
96.32910647
63.06270823
46.38357257
37.98615914
33.68943568
31.43951968
30.10098933
29.49711275
29.03850285
28.84880686
28.73405995
28.67688764
93.61031987
62.06152237
46.00386814
37.81040158
33.567888
31.32690155
29.98711798
29.37937783
28.92956164
28.74235003
28.62819827
28.5716065
91.03494579
61.09746198
45.64114824
37.64840294
33.45767903
31.22191564
29.87718308
29.2640481
28.79779009
28.60719504
28.49295118
28.43690275
88.57170853
60.16983359
45.29829076
37.50088664
33.35799365
31.12361748
29.77084815
29.15066396
28.69909878
28.51055681
28.3965035
28.34082148
86.20862131
59.29276845
44.98501952
37.37094935
33.26853473
31.0311073
29.66791608
29.04000334
28.55820783
28.36612869
28.25180919
28.19650871
84.02872145
58.51391088
44.72121922
37.26402002
33.18939949
30.94353561
29.56871484
28.93188607
28.47707867
28.28493199
28.17041127
28.11526392
82.22486462
57.89968246
44.52573487
37.18325919
33.12006155
30.86022554
29.47492305
28.82950151
28.29644678
28.10027173
27.98509026
27.93019456
931.2981113
796.7531418
172.6282726
586.8660357
912.9578665
496.3286576
168.3919445
170.7818277
447.1150642
578.163027
327.252601
671.6217957
689.6865726
606.0153063
289.9414725
316.0293969
1295.954792
807.2337308
1424.011698
1089.985075
571.2090246
769.1238811
356.2416124
154.4545469
165.0043256
499.7017324
549.6089479
1024.310616
266.044762
281.4811254
589.9145906
536.6302709
6088.142356
2140.96158
1210.61043
622.4844382
4700.941301
3379.044285
1094.014605
4847.233276
5945.139273
3343.281415
4612.57291
6303.609746
2109.875618
2981.723624
1438.453465
1867.61968
5670.553278
6280.884025
1889.935561
6029.794353
5235.833787
156.4171027
81.43240825
1047.09286
3050.286332
2148.668851
4420.866563
2753.673182
1400.787098
815.1054985
6088.886635
6415.621836
6548.959255
5447.123381
6254.62076
1128.743358
1328.608368
5811.822344
5308.836877
5882.683391
5442.917236
6186.9362
6142.064192
6005.792702
3775.301699
5325.417256
4867.863436
5959.139811
6161.442477
4190.68117
4484.526882
4923.72491
6212.791039
5094.999706
3706.107935
4028.999844
5845.953287
4458.435957
4713.118808
3588.028363
4044.324909
6019.908278
69.93761985
49.8526053
45.95535075
38.60400418
37.09672969
34.15484598
679.6243405
448.7650138
483.2973833
135.6987682
79.17846257
81.04208283
68.56392743
49.62734313
49.85949616
45.86842123
38.68376769
38.65674579
37.18598207
34.25322919
34.19095723
432.3309825
237.8015679
260.2472078
125.8647657
76.12227871
78.73042214
66.41568924
48.79549263
49.45179961
45.26389551
38.47677747
38.65058861
37.06221462
34.25634545
34.26391298
462.7022312
529.8626726
303.6311131
141.128222
151.3407617
115.780404
71.83602126
75.18890827
63.26148675
47.48654014
48.51129783
44.289963
38.10056117
38.39652908
36.79244371
34.16660407
34.23822729
345.6057121
435.5440766
243.3329858
124.3613865
137.2465215
103.1753908
66.52190826
70.56741958
59.32146483
45.89801776
47.10817728
43.12815043
37.67461789
37.99152635
36.4985514
34.03213896
34.13491653
245.591437
316.7164351
191.0174755
107.1708898
119.8770503
90.57029008
61.4584306
65.16798371
55.63389495
44.49068135
45.50650124
42.13004105
37.32886692
37.58008492
36.23042684
33.87272123
33.99442115
191.9457361
228.005259
159.0264322
94.98429072
103.4659304
81.89603539
58.16340309
60.4173267
53.33235841
43.67577085
44.23047961
41.52370895
37.00092581
37.24630065
35.95447937
33.69540902
33.82944934
172.7292835
184.7937257
145.1947221
89.95645335
93.06390205
78.45393298
56.68188646
57.74960585
52.14907612
43.0343361
43.50829419
40.99347743
36.6844213
36.92040913
35.68246087
33.51052174
33.64956255
161.9047872
169.8404314
136.8123725
86.67139758
89.08418781
76.07651902
55.5100913
56.36382051
51.17713538
42.46704105
42.88554312
40.51607557
36.38465155
36.60777596
35.42045369
33.32397913
33.46387296
152.7254845
159.4711067
129.7745004
83.84824049
85.9268167
74.00783496
54.55395575
55.25423322
50.38594508
41.97478249
42.336853
40.09258381
36.1041928
36.31261719
35.17152479
33.13925902
33.27752112
144.8421992
150.6438352
123.7655454
81.38236597
83.20139616
72.18114946
53.7357652
54.33873343
49.72222416
41.55510555
41.86334335
39.72393849
35.84539384
36.03736585
34.93805711
32.95889768
33.09367763
137.9889662
143.0406056
118.5542331
79.20117871
80.81240176
70.55234151
53.01009851
53.54672598
49.14249788
41.19604117
41.4602404
39.40480551
35.60936468
35.78424584
34.72156037
32.78475261
32.91472091
131.975144
136.4121811
113.9830949
77.25585722
78.69411589
69.0907507
52.35471595
52.84018421
48.6221791
40.88198008
41.11385052
39.12490085
35.39476027
35.55379345
34.52182825
32.61795811
32.74233657
126.6596109
130.5853882
109.9383362
75.50937366
76.80176938
67.77160371
51.75619455
52.20015309
48.1471152
40.59981086
40.80884668
38.87381814
35.19846597
35.34409006
34.33717374
32.45894412
32.57746509
121.9169217
125.4247128
106.321165
73.9239363
75.09946529
66.56722961
51.20127542
51.61390494
47.70552674
40.33980108
40.53302012
38.64330587
35.01730317
35.15184778
34.16567511
32.30790461
32.420425
117.6098371
120.8046953
103.0237905
72.45213015
73.54711639
65.44159457
50.6742815
51.06743339
47.28523771
40.09498868
40.27734517
38.42766003
34.84912304
34.97407983
34.00608304
32.16514829
32.27141846
113.6064483
116.583922
99.9448115
71.0513676
72.09628969
64.36320589
50.16321512
50.54522242
46.87766396
39.86170541
40.03561288
38.22404405
34.69305532
34.80896135
33.85801974
32.03115101
32.13080122
109.8410226
112.6434261
97.03267966
69.70205279
70.70930135
63.31863375
49.66460312
50.03728522
46.48083698
39.63955952
39.80505343
38.03217493
34.54914803
34.65591308
33.72166553
31.90635712
31.99907579
106.2987077
108.9343569
94.27568991
68.40264719
69.37223858
62.30829949
49.18100446
49.54206388
46.0972757
39.4299726
39.58588709
37.85306175
34.41765725
34.51509638
33.59717934
31.79085027
31.87661683
102.9683689
105.446895
91.66664583
67.15455973
68.08572487
61.33506513
48.71594617
49.06283244
45.73011986
39.23437219
39.37969694
37.6875907
34.2984035
34.3867104
33.48421488
31.68415145
31.7633808
99.80927567
102.1647974
89.17836998
65.95340126
66.84991197
60.39801679
48.27192115
48.60276007
45.3817928
39.05382004
39.1877347
37.53629398
34.19076871
34.27042056
33.38195691
31.58530893
31.65874537
96.77512437
99.04018214
86.78646582
64.80424749
65.66023426
59.50521992
47.85733187
48.16483593
45.05958907
38.89176672
39.01131913
37.40149345
34.09471331
34.16564318
33.28993202
31.49337146
31.56171139
93.91234625
96.04101648
84.54174976
63.75097927
64.52919616
58.69521704
47.49451452
47.76057599
44.78126361
38.75567797
38.85496064
37.28832414
34.01105631
34.07260423
33.20822459
31.40752132
31.47137015
91.40922763
93.25750031
82.59563141
62.87187591
63.51333293
58.02967408
47.21099381
47.4154806
44.56703092
38.65213192
38.72664906
37.20082672
33.93984736
33.99215249
33.13634353
31.3267952
31.38691419
89.39704353
90.93715002
81.03691178
62.19025301
62.7005557
57.52206803
47.00627823
47.15611035
44.41440254
38.57598763
38.63183113
37.13356777
33.87538839
33.92413849
33.06856868
31.24532944
31.30762238
971.5475027
1149.324516
1097.98262
677.0137803
702.2120646
839.9470092
178.9414268
292.1212261
266.6908042
614.4575889
1066.984475
1908.04748
1405.386417
896.0408597
390.6784814
405.4079689
541.9510673
163.7215196
236.358969
226.9724844
259.0014143
241.9040925
164.9868703
518.1554948
582.285275
339.0241926
467.1104638
433.3352553
482.95956
323.5012162
1684.285605
1210.434049
787.0256888
757.8832578
651.944808
713.043156
866.0022572
821.4632568
403.7214324
439.9866293
656.8804577
296.863474
363.1772384
353.0195089
417.5138163
378.4186756
306.7766145
1911.351712
1698.806366
1219.02672
3160.349325
3402.467878
4876.508638
842.2823964
1305.110937
1124.817639
1541.605919
2501.83746
2198.876555
798.7373561
840.9540323
1298.54878
591.2659156
698.9391689
672.5937545
729.913196
615.4721066
969.5417717
903.4957487
739.7310423
2619.756151
2853.285351
1087.923772
1092.467209
250.1119466
259.1242744
412.6437511
157.6890234
195.8424939
190.9344387
221.1460464
201.3769925
161.2384459
513.7027948
601.1603648
581.7855255
646.3865888
623.772625
532.8281964
888.5950073
732.2860945
764.5884663
269.1808664
324.539067
318.7291587
341.1926811
333.5482023
276.7415383
557.6122598
411.3383303
429.4273995
557.7065645
770.2639551
739.2656548
2447.514291
4017.871124
3566.557311
959.4623732
998.2314232
869.0339953
896.0518679
1277.139002
640.0295016
729.6920922
713.5205102
4248.440787
2768.395329
3154.902263
2138.500279
2423.74148
3757.586193
1144.307544
1530.134735
1401.500895
2350.12806
3499.400412
3160.876937
4351.887813
3922.242468
2658.898612
1540.589742
2356.856055
2145.744689
2845.289853
2585.992988
1714.346289
3148.912355
2833.321684
1708.849547
116.8578198
118.0016723
158.1353892
81.83839752
96.816507
96.10537791
1304.227521
1222.654535
1002.104427
2761.392608
1714.91136
1901.72452
1422.913553
1540.461916
2434.02863
1079.703731
1129.856265
1531.797462
854.9936883
941.7174435
937.8738143
993.1082859
869.9062556
2179.595188
2354.174049
1189.39119
1601.140864
1470.71915
1936.743755
1751.450891
1269.446217
33.54301767
32.38851247
31.81625922
31.43140824
31.1756525
30.99631859
731.2429182
631.5668944
652.4292526
140.194356
113.8048843
115.0260069
69.36324654
61.09195924
61.2153368
45.9578598
42.95080235
42.96442022
37.18263421
35.96871328
35.928914
33.62790507
32.44489239
32.42105265
31.83712966
31.42568134
31.42984278
31.14726115
30.95090315
30.97533627
460.9491639
365.2604319
377.4161794
130.4729225
107.6978781
109.3452753
67.63748614
59.93302065
60.35049263
45.65314614
42.72015521
42.83356314
37.14529506
35.96841238
35.98334075
33.63284417
32.44483041
32.44857238
31.82900461
31.40251467
31.41604315
31.10993328
30.90117044
30.92775568
328.5955755
236.1123781
242.4372116
121.1048747
100.9559988
102.7702709
64.97659864
57.93931792
58.50213475
44.8184943
42.14157432
42.31462703
36.93717988
35.83487772
35.87857008
33.56352188
32.40634342
32.43064573
31.79283788
31.3599429
31.38248528
31.06109119
30.84505433
30.87445352
274.2286469
206.3376734
214.6585879
109.7276709
92.4484391
94.76184061
61.33394738
55.24386525
55.97524963
43.71968991
41.33124153
41.541896
36.63963113
35.63119198
35.68379251
33.45189967
32.32807457
32.37039847
31.72713312
31.30116342
31.33045968
31.00151608
30.78107961
30.81430657
214.7991761
171.4462395
179.9745628
96.60397
82.77250445
85.16299708
57.37006163
52.32053078
53.02255249
42.58101821
40.52214262
40.70839792
36.36620702
35.42117746
35.4757897
33.31390988
32.22938191
32.2814749
31.6417595
31.2243765
31.26412776
30.92701881
30.70716592
30.74563364
172.5402024
142.6399366
148.8296792
85.5561632
74.67906589
76.40789311
54.25028779
50.07582833
50.53031713
41.80880234
39.97167431
40.09214735
36.09254285
35.1912647
35.24989871
33.15719391
32.11233593
32.1727112
31.54089962
31.13395617
31.18027226
30.84102726
30.62305395
30.66621399
150.1265195
126.1505115
128.9622749
79.79621786
70.53751782
71.13178314
52.71312087
48.95052123
49.19521894
41.25191819
39.5112695
39.62299392
35.81747763
34.95446135
35.01370995
32.99079366
31.98337725
32.04901077
31.42897459
31.03253662
31.08414501
30.74514502
30.53015977
30.57759786
140.8112215
119.3506447
120.925633
77.2207846
68.52515885
68.99030455
51.63775209
48.06443378
48.27203883
40.74816091
39.0875874
39.1900122
35.54997419
34.71992246
34.77805032
32.82056064
31.84718148
31.91595644
31.30919267
30.92255563
30.97824481
30.64101424
30.42929551
30.48064823
133.1470132
113.6806403
115.0119708
75.00834159
66.8478067
67.2435352
50.76209847
47.32513113
47.49675234
40.29741694
38.70169549
38.79453932
35.29418699
34.49223638
34.5483611
32.65019912
31.70689602
31.7773968
31.18379233
30.80612341
30.86485811
30.53017877
30.32180391
30.37633439
126.6574773
108.8416443
109.9846065
73.06732197
65.38925456
65.73711459
50.04133224
46.71495465
46.85720207
39.90154932
38.35567698
38.43833638
35.0527234
34.27416176
34.3276568
32.48221789
31.56474316
31.6359386
31.05466579
30.6850439
30.74594624
30.41412367
30.20872861
30.26598277
121.071374
104.6486882
105.6444356
71.34408407
64.09296656
64.40374121
49.42373362
46.19970572
46.32147148
39.55876358
38.05019579
38.12291173
34.8276516
34.06779989
34.11820957
32.31839112
31.42245109
31.4935196
30.9234756
30.56083273
30.62315663
30.29423232
30.09167779
30.1507557
116.1961703
100.9706363
101.8473415
69.80218063
62.92874153
63.20859834
48.87590342
45.74913311
45.85692691
39.26062656
37.78112414
37.84535374
34.61967615
33.8742851
33.92144834
32.15993239
31.28141795
31.35170305
30.79164373
30.4348304
30.49791816
30.17180369
29.97149308
30.03209385
111.901025
97.7164078
98.49440811
68.41484489
61.87664258
62.1301171
48.3796881
45.34400991
45.44177406
38.99631994
37.54123326
37.59888757
34.42774137
33.69345311
33.73752124
32.00752781
31.14274376
31.21172688
30.66035853
30.30819885
30.3714833
30.04798802
29.84980956
29.91097545
108.0825087
94.8124483
95.50955107
67.15713348
60.91810424
61.15018066
47.9228897
44.97178403
45.0623486
38.75639965
37.32328842
37.37605475
34.24987407
33.52434931
33.56557789
31.86167623
31.00736956
31.07458766
30.53065681
30.18197346
30.24494406
29.9238004
29.72690249
29.78868665
104.6394672
92.18242873
92.81900818
65.99681475
60.0285243
60.24603558
47.49337434
44.62188189
44.70779495
38.53385774
37.12176256
37.17082449
34.08442655
33.36616932
33.4047144
31.72291489
30.87616026
30.94119467
30.4034537
30.05704246
30.1192743
29.80009999
29.60448144
29.66580341
101.4613831
89.74184443
90.33828089
64.89770587
59.18077285
59.38995653
47.08010063
44.28584004
44.3688414
38.32439945
36.93337974
36.97933159
33.93059874
33.21865505
33.25452582
31.59184047
30.74989015
30.81236834
30.27952778
29.93415759
29.99529468
29.67757932
29.48197324
29.54344226
98.46895364
87.43073684
87.99807086
63.83679185
58.35844865
58.56198137
46.67778097
43.96003545
44.04053211
38.12657926
36.75709234
36.80002307
33.7883575
33.08201393
33.1151373
31.46893747
30.6291376
30.68880959
30.15945142
29.81385798
29.87366226
29.5567674
29.36146852
29.42165322
95.63476512
85.22849545
85.76912406
62.8088478
57.55886615
57.75647185
46.28713942
43.64540927
43.72287198
37.94093817
36.59328003
36.63302276
33.6579394
32.95649943
32.98683375
31.35430236
30.51410187
30.57093344
30.04347518
29.69644961
29.75482323
29.43795923
29.24112149
29.30150841
92.95365124
83.13258697
83.64689118
61.81698184
56.78570454
56.9763506
45.91148336
43.34475849
43.41847841
37.76858675
36.44261707
36.47903392
33.53930235
32.8419827
32.86961273
31.24749186
30.40455134
30.45873688
29.93150005
29.58193305
29.63895352
29.32128727
29.12399221
29.18240307
90.40964312
81.13332825
81.62530482
60.86195705
56.04101845
56.22450733
45.5533425
43.06020788
43.12972921
37.61009375
36.30523139
36.33833222
33.43179496
32.73771861
32.76287792
31.14761143
30.29989578
30.35183798
29.82309809
29.47008677
29.52603135
29.20659183
29.00614697
29.06560824
87.96964991
79.21154203
79.68528196
59.94448935
55.32771752
55.5024725
45.21653733
42.7950152
42.85910461
37.46655158
36.18158169
36.21110903
33.33466553
32.64278114
32.66567697
31.05373629
30.1993025
30.24967446
29.71761669
29.36039412
29.41589315
29.09360105
28.89267823
28.94970823
85.63783457
77.38162298
77.82767467
59.08604583
54.66570982
54.82432708
44.91350361
42.55910916
42.61449108
37.34184842
36.0741327
36.09927367
33.24778784
32.5566414
32.57736947
30.96500475
30.101633
30.15173985
29.61409596
29.25209402
29.30856512
28.98153514
28.77583202
28.83691856
83.52046306
75.73554595
76.12719737
58.34098714
54.09911974
54.22951297
44.6653361
42.36827689
42.41102898
37.24134099
35.98619555
36.00626443
33.1711612
32.4788421
32.49756819
30.88047645
30.00485454
30.05812071
29.51080144
29.14350223
29.20450232
28.86890952
28.66380408
28.72532514
81.77605473
74.39293703
74.73371098
57.7613301
53.66638891
53.76771211
44.48540694
42.23117343
42.26172129
37.16593893
35.91750353
35.93365329
33.10311766
32.40764344
32.42556917
30.79421742
29.90152082
29.97086593
29.39953748
29.02600034
29.10565332
28.74637649
28.53255841
28.62083616
174.4409253
197.1828178
194.5649709
601.4079128
686.0852159
673.3675612
1031.873889
1018.80731
863.4748432
191.5257984
189.3676225
168.6234337
385.4304519
342.344136
533.5632863
545.382572
619.8484101
924.6048556
962.9048411
1142.938329
1541.977065
1635.880461
1010.922319
859.8186461
906.214368
579.1100633
511.5309042
522.2867145
1333.899532
1418.749959
61.3428632
61.34440433
70.04415331
49.74248906
54.79219166
54.84517469
42.8985833
42.83295614
45.85411239
38.54049577
40.442167
40.49868172
35.88840224
35.83286147
37.03144335
34.11312175
34.8768685
34.92152971
593.5357486
610.7426321
703.16338
459.8736893
528.3991258
515.2330099
562.1404482
545.559966
471.2655521
111.1228835
111.9907847
137.2085067
79.99413367
93.64234817
92.83380293
95.30247919
94.52448778
80.44251989
60.60302278
60.88591468
69.07894627
49.7556923
54.5961547
54.45523626
54.82196652
54.75167557
49.8005934
42.90552422
42.94405018
45.95011303
38.68279654
40.56845843
40.55505862
40.56724409
40.57999079
38.68967166
35.98552113
35.978503
37.18080402
34.24171522
35.01516156
35.02546365
34.96394705
34.99462758
34.21911262
344.7049845
355.3086491
441.5202805
308.1282275
302.8186075
254.2477286
104.4938745
106.1040265
128.1832451
77.00825453
89.55152041
88.39765446
91.82692272
90.69324326
77.83530527
59.01723643
59.48309166
67.05237021
49.04708247
53.62594902
53.28410645
54.17859959
54.00511448
49.35563318
42.46899023
42.64047701
45.46534119
38.57781927
40.3842681
40.24907673
40.50101707
40.42950059
38.60389311
35.92467695
35.94339599
37.11656224
34.26022539
35.01231723
35.00340644
35.02694356
35.02100907
34.26318486
486.8443288
507.3175759
222.4327934
229.5576708
316.7162945
144.7560905
178.1477273
173.4414366
186.6761052
182.5288904
148.1396822
96.95861902
99.02378328
118.5331816
73.03776808
84.3258587
82.76092762
87.1558589
85.78971101
74.16546856
56.68073807
57.33680211
64.15767379
47.85170139
52.02005485
51.53697273
52.90019354
52.47760775
48.19491521
41.75123755
41.9524022
44.56218967
38.20657098
39.8730106
39.72533155
40.13726183
40.0109853
38.30600061
35.73566738
35.78705115
36.86709722
34.19318311
34.91314186
34.87743357
34.97446753
34.94583201
34.21882189
375.7804675
406.1189876
188.7756045
197.631733
258.7148924
128.803865
157.1684969
151.2303326
168.3580193
162.9158114
133.1231909
87.60346795
90.04966208
106.488656
67.88939796
77.56062074
75.73496876
81.10029502
79.35906108
69.24580747
53.7533235
54.49875932
60.32978381
46.30174763
49.92190392
49.37162438
51.01873809
50.47448714
46.70917286
40.90930908
41.12007283
43.42155364
37.7757796
39.27052637
39.1215831
39.57375212
39.41840193
37.88157555
35.52874965
35.57955497
36.5665257
34.06752153
34.75902088
34.71624366
34.83985598
34.80070156
34.10318629
266.2946961
290.0796307
155.763359
163.323741
202.2460812
111.1827792
133.5233089
128.1084862
145.216041
139.2784431
115.4564691
78.34923432
80.48974551
93.48627348
62.61027168
70.45342464
68.87416414
73.917665
72.14398399
63.85633782
51.06062378
51.66268917
56.46508487
44.79459111
47.8460357
47.41568859
48.83474993
48.32275867
45.13603658
40.21573441
40.35663792
42.34037455
37.41138879
38.74284986
38.64130648
38.98107555
38.85467428
37.49393149
35.3079329
35.3651243
36.29873214
33.91459974
34.57917561
34.53056323
34.67221964
34.62649585
33.95545781
201.4645247
213.2545609
132.6575631
137.2217923
165.2248456
97.308926
114.6943998
111.4557438
123.092315
118.6269815
100.1880873
72.01572196
73.21918102
83.52602442
58.75409684
65.12969159
64.25614767
67.44768372
66.18129002
59.51358038
49.44943938
49.72055033
53.71522493
43.84798835
46.49306195
46.28017856
47.03984885
46.72935906
44.02618153
39.73701455
39.85325889
41.66460227
37.08215911
38.34408728
38.24735578
38.54121667
38.44209019
37.16401198
35.07301252
35.13224836
36.02344726
33.74068451
34.37936727
34.32783744
34.48089776
34.43043788
33.78551941
175.7594112
179.1744963
122.5724398
124.296661
147.5496524
90.866704
105.614601
104.3763526
108.7930409
106.9249057
91.82734918
69.47856296
69.99305679
79.10909778
57.01832463
62.76349537
62.35092496
63.66947349
63.20135344
57.37399605
48.48893268
48.71509311
52.42447951
43.18767635
45.68364661
45.49785856
46.07469769
45.87591144
43.34565953
39.29477097
39.40185543
41.12105067
36.76210077
37.96584632
37.87508957
38.15201559
38.05817055
36.84079073
34.83655174
34.89538479
35.74968452
33.55706358
34.17196391
34.11988444
34.27602489
34.22402101
33.60346146
164.4386977
167.0815382
116.3981064
117.842925
138.7673123
87.44425769
100.9512318
99.89716529
103.1881544
102.0474198
88.24788077
67.65388056
68.08044097
76.63848549
55.77929533
61.24407212
60.91121606
61.96167398
61.5935184
56.06344859
47.67695796
47.86610493
51.40137459
42.60188953
44.97958055
44.8199084
45.31857198
45.1458152
42.74141804
38.88982267
38.98751365
40.63045931
36.45786893
37.61260324
37.5284296
37.78595034
37.698454
36.53226059
34.60503526
34.66223981
35.48482578
33.37056212
33.96450128
33.91312194
34.06793073
34.01609986
33.41719785
154.8868121
157.134182
111.170165
112.4011437
131.4268217
84.51696315
96.96551504
96.0578314
98.88304614
97.90656004
85.20938164
66.0956182
66.46553315
74.50017559
54.77749556
59.99447844
59.71125326
60.59310402
60.28801837
55.01053718
47.00591963
47.16169905
50.56964368
42.09076919
44.38002814
44.24593812
44.6668257
44.52024933
42.21145069
38.52356702
38.61135985
40.19326842
36.17235754
37.28640543
37.20934632
37.44598427
37.36529628
36.24184747
34.3818525
34.43672634
35.23239082
33.18512492
33.76098989
33.71103609
33.86207095
33.81133032
33.23121108
146.7068536
148.6398382
106.6738343
107.7388307
125.1853829
81.96973468
93.51727993
92.72537239
95.18179092
94.33559045
82.57581203
64.7230851
65.05141827
72.61781958
53.93037813
58.91479839
58.66466845
59.43743817
59.17220959
54.13118709
46.44761923
46.57860608
49.87893427
41.65373339
43.87762167
43.76491734
44.11774043
43.99510366
41.75641565
38.19801295
38.27557913
39.8111195
35.90795879
36.98956411
36.92012206
37.13417428
37.06091526
35.97195882
34.16941503
34.22140748
34.99486401
33.00347284
33.5640487
33.51607477
33.66155544
33.61254088
33.04839889
139.6171354
141.3006635
102.7516334
103.6848645
119.7919545
79.72266391
90.49569801
89.7970962
91.95867685
91.21594454
80.25962072
63.49571081
63.7903697
70.94278927
53.18426716
57.95418891
57.72944311
58.42146142
58.18478599
53.3630774
45.96776155
46.08190688
49.28113511
41.2809853
43.45188875
43.35470058
43.65664816
43.55243928
41.36898164
37.91152625
37.97976231
39.48046757
35.66626348
36.72308209
36.66098683
36.85259094
36.78693567
35.7245558
33.96941542
34.01819724
34.77406801
32.82763382
33.37564851
33.33003205
33.4686832
33.42186569
32.87095755
133.407744
134.8864143
99.29535677
100.1203602
115.0725441
77.72214385
87.82216232
87.20106473
89.11926182
88.46131034
78.20145463
62.38976938
62.6558758
69.44184239
52.51274523
57.08810113
56.88443183
57.51035289
57.29667556
52.67452327
45.5417586
45.64414159
48.74754083
40.9570503
43.08062541
42.9942454
43.26060843
43.16934282
41.03428135
37.65801049
37.71871391
39.19179173
35.44655563
36.48455923
36.42874048
36.600591
36.54181545
35.49955177
33.78233652
33.82791895
34.57026392
32.65893927
33.1969423
33.15380847
33.2850493
33.24068331
32.70039425
127.9298811
129.2381312
96.22507943
96.96035069
110.9057085
75.92924446
85.43926607
84.88297557
86.59741943
86.01047525
76.35989573
61.38701615
61.62905225
68.08939989
51.90115765
56.30113987
56.11502394
56.68554774
56.49122407
52.04908423
45.15445902
45.24829183
48.26226378
40.66794238
42.74743679
42.66865201
42.91004771
42.82784704
40.73757516
37.42990857
37.48493903
38.93437738
35.24601028
36.26917082
36.21831776
36.37429465
36.32113713
35.29453527
33.60749393
33.65011697
34.38203635
32.49796442
33.02810991
32.9873997
33.11130259
33.06940386
32.53746526
123.0557882
124.2246074
93.4685806
94.132573
107.1910407
74.30763007
83.29613172
82.79098521
84.34103846
83.81248254
74.69927047
60.46649656
60.69035402
66.85943901
51.33675695
55.57805447
55.40494836
55.93271395
55.75386349
51.47422796
44.79465758
44.88259975
47.81345596
40.40315094
42.44083415
42.36722259
42.59139938
42.51551817
40.46752684
37.22073273
37.27153282
38.69935724
35.06131287
36.0719369
36.02498925
36.168542
36.11977242
35.10615234
33.44392302
33.48379907
34.20739698
32.34490658
32.86887005
32.83053113
32.94729986
32.9077902
32.38241016
118.6536107
119.7181435
90.94327413
91.55759254
103.8243517
72.81202604
81.33289359
80.86247607
82.29611567
81.81048271
73.17686049
59.60082709
59.81356548
65.71758608
50.80418576
54.8988708
54.73350603
55.23427898
55.06571276
50.9351909
44.45248785
44.53680338
47.38887604
40.15502207
42.15193442
42.0816873
42.29460927
42.22288703
40.21579481
37.02604085
37.073507
38.48037396
34.89001524
35.88920856
35.8455243
35.97891081
35.93366472
34.93166515
33.29107388
33.32828725
34.04489423
32.20003836
32.71910878
32.68316283
32.79279427
32.75565224
32.23545984
114.5834929
115.5759973
88.57218378
89.15331154
100.6978779
71.39633059
79.48773767
79.03985244
80.39852169
79.94052253
71.74462158
58.76686378
58.97310036
64.6294033
50.28979943
54.24481024
54.08392454
54.56947025
54.40664181
50.41713949
44.12167887
44.20344691
46.97856088
39.91900454
41.87497209
41.8073109
42.01213173
41.94324663
39.97697781
36.84371979
36.88817142
38.27386003
34.73094018
35.71909799
35.67846762
35.80261593
35.76048162
34.76957737
33.14895445
33.18346122
33.89394469
32.06380247
32.5790417
32.54558246
32.64783318
32.61312578
32.09701751
110.7611024
111.6954586
86.31631794
86.87016853
97.74606481
70.03475219
77.72443988
77.2949601
78.59677079
78.15838659
70.37057361
57.95563547
58.1563057
63.57669032
49.78798552
53.60730592
53.45045724
53.9240484
53.76519166
49.91224617
43.80115653
43.88022141
46.57892119
39.69398077
41.6083923
41.54348631
41.74032037
41.67401621
39.74915751
36.67357717
36.71493543
38.07898518
34.58396514
35.56124999
35.52373727
35.63861635
35.59954591
34.61955565
33.0178605
33.04958627
33.75463851
31.93668121
32.44906367
32.41817382
32.51276757
32.48059406
31.96758431
107.1635352
108.0421911
84.16750298
84.69466141
94.95058434
68.72259583
76.03431238
75.62324802
76.87012098
76.44992988
69.04585182
57.16876995
57.36294355
62.5574239
49.30025543
52.98724222
52.83539918
53.29480372
53.14039307
49.42063585
43.49317731
43.5688266
46.19170858
39.4810926
41.35365688
41.29207524
41.47938182
41.41610036
39.5330713
36.51628232
36.55436279
37.89657399
34.4493615
35.41604544
35.38175329
35.48703461
35.45113759
34.48183851
32.89789977
32.92685761
33.6271922
31.8188721
32.32936617
32.30102257
32.38793417
32.35833174
31.84745474
103.7826912
104.6086565
82.12216741
82.62447977
92.30621165
67.46189804
74.41750455
74.02399612
75.21686225
74.81506052
67.7723069
56.40978881
56.59684261
61.57489732
48.83033514
52.38854666
52.24243985
52.68500302
52.53607418
48.94598412
43.20035382