/*--------------------------------*- C++ -*----------------------------------*\
| =========                 |                                                 |
| \\      /  F ield         | OpenFOAM: The Open Source CFD Toolbox           |
|  \\    /   O peration     | Version:  v2012                                 |
|   \\  /    A nd           | Website:  www.openfoam.com                      |
|    \\/     M anipulation  |                                                 |
\*---------------------------------------------------------------------------*/
FoamFile
{
    version     2.0;
    format      ascii;
    class       surfaceVectorField;
    location    "2.35";
    object      Uf;
}
// * * * * * * * * * * * * * * * * * * * * * * * * * * * * * * * * * * * * * //

dimensions      [0 1 -1 0 0 0 0];


internalField   nonuniform List<vector> 
6464
(
(99.99712806 0.9275248948 1.277285923e-22)
(100.000805 0.464736219 0)
(100.0032631 0.4562680718 7.139267095e-22)
(100.0176541 0.8947930731 -1.285837095e-23)
(100.0048315 0.4373884639 1.256972608e-21)
(100.005377 0.4101323272 -4.654791997e-22)
(100.0308832 0.7891133168 -7.635354889e-22)
(100.0057667 0.3770731392 -1.396716308e-21)
(100.0061584 0.3406934504 8.43329148e-23)
(100.0354523 0.6439632668 1.968405363e-21)
(100.0062273 0.3027811386 5.149371424e-22)
(100.0060107 0.2652154176 0)
(100.0334182 0.4943126473 0)
(100.0056168 0.2294778941 0)
(100.0052491 0.1963903393 7.963967992e-22)
(100.0276509 0.3628641301 1.656235311e-21)
(100.0052432 0.1668278971 -4.0310731e-21)
(100.0050115 0.1387464536 -1.504456617e-21)
(100.0224468 0.2522529403 3.261510804e-21)
(100.0042552 0.1147545152 3.261267426e-21)
(100.0031717 0.09477989867 -9.01977728e-22)
(100.0133296 0.1706444675 -4.565400893e-23)
(100.0009707 0.08053901576 1.764563684e-21)
(100.0079456 0.07651799261 -7.802352832e-21)
(100.0459358 0.1886451578 3.713981486e-22)
(100.0168064 0.1717315084 -2.767328103e-21)
(100.0028068 0.07937309094 -1.597217213e-21)
(100.0054734 0.04386863348 -9.74836822e-22)
(100.0305328 0.1145305455 1.546540189e-20)
(100.004453 0.02043309021 -7.824175159e-21)
(100.0220186 0.06048277955 -1.648954675e-20)
(100.0192558 0.01894321733 1.356627667e-21)
(99.95852382 2.079491063 -1.534758272e-22)
(99.99018566 1.863778117 -9.699402258e-22)
(99.95929281 2.341842843 -1.683949438e-22)
(99.98592062 2.112288389 -1.683861326e-22)
(100.0653961 2.057313151 3.489947905e-22)
(100.0659688 1.811135655 -1.05917693e-22)
(100.0873727 2.282283208 -4.006863765e-22)
(100.088825 2.034090214 -9.813477564e-22)
(100.1469711 1.853074322 -3.157609803e-22)
(100.1142126 1.605014098 -2.510525314e-22)
(100.1775107 2.023851807 -8.313870586e-23)
(100.1587049 1.785085846 2.472023222e-21)
(100.1835876 1.53890936 2.651600759e-21)
(100.1316022 1.314417697 4.607392881e-21)
(100.2155089 1.658033562 4.604466376e-21)
(100.184704 1.448971908 5.753269687e-22)
(100.180544 1.193820562 -7.198815419e-21)
(100.1242325 1.009441638 -6.691072084e-21)
(100.2070547 1.271386804 -2.428399512e-21)
(100.1740896 1.105105561 -2.377502915e-21)
(100.1525995 0.8835142851 -5.591190827e-21)
(100.0998969 0.7421230911 5.074134253e-22)
(100.1693263 0.930345186 -1.484732297e-21)
(100.1427775 0.8091872724 6.034817724e-21)
(100.0903898 0.4986892339 -1.374484078e-20)
(100.1454416 0.6826442223 -1.374377283e-20)
(100.2020561 0.7328469098 1.389572654e-20)
(100.1238908 0.563123515 -2.803848495e-20)
(100.1036006 0.4617204177 1.202545507e-20)
(100.1428889 0.4889610998 -1.693589244e-20)
(100.0837011 0.3763323972 2.455540344e-20)
(100.0630313 0.3345313212 2.726630329e-20)
(100.0752694 0.2219335511 2.302839108e-20)
(100.1727477 0.3495953422 -1.700686414e-22)
(100.1341472 0.3988170084 4.871725015e-20)
(100.0789812 0.31508829 2.619780241e-21)
(100.0528219 0.1278361823 -7.115833779e-22)
(100.1188164 0.2107480079 3.300017318e-20)
(100.04153 0.05821579883 -7.692123907e-21)
(100.0876504 0.1114121632 -1.749141115e-20)
(100.0741672 0.03478839526 7.822178724e-21)
(99.90084677 3.860917244 6.520399638e-21)
(99.84136264 4.105223989 2.028742401e-21)
(99.87433239 4.407038763 1.055022905e-20)
(99.94501099 4.136951278 4.972153585e-21)
(100.2546287 3.76316377 -2.584504361e-21)
(100.2491292 4.059852575 -1.450767818e-21)
(100.3366904 4.293398096 3.217457399e-21)
(100.338702 3.974053058 -1.535482464e-22)
(100.4947839 3.296829609 1.160976543e-20)
(100.5425711 3.593427606 1.16431278e-20)
(100.6455882 3.739637249 -1.218350419e-20)
(100.5865405 3.432335423 8.459791839e-21)
(100.5828096 2.660561283 4.254982237e-21)
(100.6576919 2.915218993 2.119845377e-21)
(100.749201 2.991380164 2.020484825e-21)
(100.6642655 2.737174832 7.865970912e-21)
(100.5566459 2.016486889 -6.645713388e-21)
(100.64063 2.221781217 -1.555015606e-20)
(100.7121832 2.255322083 -5.377869624e-21)
(100.6200423 2.055464417 5.893953824e-21)
(100.5400054 1.602858036 -1.840786546e-20)
(100.4641149 1.449740495 -1.238514907e-20)
(100.5915435 1.611220984 -1.240185094e-20)
(100.5128051 1.46641136 6.586868791e-21)
(100.3558897 0.9488558339 -5.437547272e-20)
(100.4781358 1.162619996 -2.851255399e-20)
(100.5520406 1.141309896 -8.246702124e-20)
(100.410247 0.9536567093 -3.916941215e-20)
(100.2549194 0.629151626 -6.178283562e-20)
(100.3474906 0.7761239891 2.462558178e-20)
(100.3950942 0.7491378842 -2.933245375e-20)
(100.2898097 0.6268375165 -2.56390851e-20)
(100.2084985 0.3345913154 1.033344877e-20)
(100.360723 0.4566024918 -2.631251446e-20)
(100.3445341 0.5591344455 -1.388834229e-22)
(100.2567269 0.5107802764 -1.507656608e-20)
(100.1483521 0.1914441038 1.547298641e-20)
(100.2534702 0.2725227602 2.747628226e-20)
(100.1159169 0.08668077344 -1.964632566e-21)
(100.1864844 0.1428999181 -3.961530597e-21)
(100.1559137 0.04428179031 0)
(99.74866913 6.232089299 -2.044991509e-20)
(99.59026404 6.514003472 -2.043667907e-20)
(99.68505418 6.924728532 -3.183064203e-20)
(99.8552708 6.590183869 -1.687377924e-20)
(100.682041 6.055676193 1.279321112e-20)
(100.6370588 6.446688493 1.643292656e-20)
(100.8409861 6.719046643 4.764674644e-20)
(100.8623473 6.282728745 4.017917082e-20)
(101.2724394 5.152465125 1.35027881e-19)
(101.349135 5.545625503 2.766311544e-20)
(101.554619 5.656699587 1.333785963e-19)
(101.4434073 5.247042229 8.664429584e-20)
(101.4154536 3.986580815 -3.787813921e-20)
(101.5518113 4.30806771 1.144015514e-19)
(101.7037773 4.317138456 4.095295785e-20)
(101.542355 4.000520777 0)
(101.2935387 2.913058009 4.789054051e-20)
(101.4323977 3.146725815 -4.658129957e-20)
(101.5319349 3.107171105 7.064735226e-20)
(101.3789079 2.889417822 2.227659789e-19)
(101.1933835 2.210471894 0)
(101.0685725 2.043265481 4.956283971e-20)
(101.2572874 2.164989451 0)
(101.1239076 2.009680017 0)
(100.7876992 1.302220057 2.986469391e-20)
(100.9903252 1.528897967 1.939320862e-20)
(101.0584411 1.423646139 -1.68492322e-20)
(100.8447537 1.240120858 3.743409201e-20)
(100.5635783 0.8446737783 -3.405702624e-20)
(100.7141986 0.9971276465 -1.521385017e-20)
(100.7540103 0.9126363189 -1.535567781e-20)
(100.5994814 0.7941054084 -7.473976579e-21)
(100.3936145 0.392431414 -9.590955945e-21)
(100.5955384 0.4866032503 -1.970264376e-20)
(100.6305417 0.6549821058 -2.607271714e-21)
(100.5185806 0.6293546053 5.763916909e-21)
(100.2804806 0.2214430383 7.898017899e-21)
(100.4146581 0.285829698 1.199062054e-20)
(100.2173046 0.09913177031 -1.996544667e-21)
(100.3018323 0.1462589384 -3.52172509e-21)
(100.249401 0.04470343192 -5.054556296e-22)
(99.37813224 9.395611943 -2.319237798e-19)
(99.01127356 9.751458473 -2.568781125e-19)
(99.2166364 10.40117768 -1.123568364e-19)
(99.61796417 9.930717873 -2.18712854e-19)
(101.5214028 9.042074524 2.720452259e-20)
(101.4067525 9.629742007 -6.301065027e-20)
(101.8469251 9.96028052 -3.392494238e-20)
(101.8980423 9.285729255 7.495270161e-20)
(102.7073808 7.279794374 -1.215702055e-19)
(102.8554997 7.833541303 7.728779577e-20)
(103.2232613 7.848923649 -2.462926118e-20)
(103.0044018 7.285643419 -2.272534798e-19)
(102.8171652 5.253375424 8.120086228e-20)
(103.0658573 5.657436414 5.444441956e-22)
(103.2909508 5.541183111 -1.750375783e-19)
(102.9966671 5.159664254 2.472754069e-20)
(102.4051954 3.613902436 -4.607678261e-20)
(102.6403816 3.873444393 3.302554933e-19)
(102.748226 3.74489669 -2.387429304e-19)
(102.4983655 3.509559445 -1.209792356e-19)
(102.0807943 2.594487861 -2.987733822e-20)
(101.8984527 2.429080817 -3.887611626e-21)
(102.1374665 2.482441675 2.651205841e-20)
(101.9504012 2.339526916 2.307030441e-20)
(101.3592533 1.498923072 -9.572939745e-20)
(101.6480838 1.714842149 -6.056902877e-20)
(101.6846699 1.519976265 -3.387091708e-20)
(101.396857 1.36801739 -1.730402906e-20)
(100.9611576 0.9466345777 1.175811186e-20)
(101.1729119 1.081941395 3.552621045e-20)
(101.1814737 0.9422304024 -3.960721727e-21)
(100.9788345 0.8471609332 -3.882421949e-21)
(100.6033516 0.3816116079 2.030548519e-21)
(100.8443346 0.4228499923 0)
(100.9521308 0.6369799379 -7.69349384e-23)
(100.8307746 0.6545546046 -1.056501605e-20)
(100.4248722 0.2082178789 4.493179267e-22)
(100.5781461 0.2395894052 2.030365458e-21)
(100.3244905 0.09089000328 -2.034108968e-21)
(100.4124863 0.1157387096 -2.036220565e-21)
(100.3351245 0.03437763181 -2.037177849e-21)
(98.42454994 14.34458224 0)
(97.53868757 14.85335982 -1.187540822e-19)
(98.00453904 16.14128257 0)
(99.00532804 15.31799539 -1.27740844e-20)
(103.4083727 13.30927049 -9.315006728e-20)
(103.2257105 14.35547404 7.156311429e-21)
(104.24572 14.66857167 -1.7096256e-19)
(104.213583 13.47412602 -1.188033205e-19)
(105.3653293 9.553205678 0)
(105.7178436 10.3491212 -2.311208453e-19)
(106.337544 10.08982899 0)
(105.8357182 9.330854075 -6.493672561e-20)
(105.0166221 6.242726887 2.418234243e-19)
(105.4651649 6.709779508 -1.250657377e-19)
(105.7046692 6.39112011 -2.816662357e-19)
(105.2065981 5.9815567 1.405856269e-19)
(103.9334323 3.968677611 -2.36851057e-21)
(104.3017258 4.222021835 6.59894495e-20)
(104.3712597 3.969712559 -2.038159406e-19)
(103.9967634 3.760181983 -1.025418303e-20)
(103.1700588 2.650295906 0)
(102.9096843 2.512219942 -1.630717284e-20)
(103.1862412 2.471082615 1.075400365e-21)
(102.931733 2.357386808 -3.342910559e-20)
(102.0221474 1.477510484 2.779413355e-20)
(102.3870447 1.63542302 -2.375040625e-22)
(102.3568897 1.36529995 1.6813929e-20)
(102.009422 1.27849936 1.253713468e-20)
(101.4028632 0.8948938152 -1.642454677e-20)
(101.6714634 0.9876634335 -8.361073353e-21)
(101.6232726 0.8016842637 -8.362693193e-21)
(101.3805773 0.7532368807 1.269458122e-20)
(100.8051866 0.2865142495 0)
(101.0719072 0.2588384937 1.339226182e-21)
(101.2626426 0.489062854 -1.122277114e-20)
(101.151925 0.5667047733 2.786657609e-20)
(100.5540982 0.1452005002 -5.113565662e-22)
(100.7113502 0.1273596904 -1.584492573e-21)
(100.4138893 0.05930484227 -2.047594593e-21)
(100.493467 0.04922479668 -2.312477162e-21)
(100.3910502 0.01279473537 2.620206029e-21)
(93.2272108 24.79627174 -2.268963798e-19)
(94.64447782 24.38033509 0)
(93.74473805 26.65227021 0)
(95.46906867 25.79551469 0)
(108.7884442 21.22073908 -7.532779593e-19)
(108.9013544 19.39408562 4.271004128e-20)
(110.5724225 18.86108062 -2.934668171e-20)
(109.7121017 21.95818163 7.978986817e-19)
(111.7831283 20.60392414 -1.938317184e-20)
(111.4091824 21.45464987 2.362573004e-19)
(111.0223823 12.19623446 0)
(110.1122891 11.2223237 -3.443060105e-19)
(111.6759641 11.28621955 0)
(110.607464 10.53320069 0)
(108.0608216 6.384303692 -7.539187249e-19)
(108.8112614 6.802219169 -2.596538114e-19)
(108.9246768 6.18318005 -1.61185462e-19)
(108.1573692 5.892150673 7.414759362e-20)
(105.782927 3.685141043 -1.471966195e-19)
(106.3055153 3.864737106 -3.219642915e-19)
(106.2614319 3.482144966 1.714643278e-19)
(105.7557533 3.367965897 3.134524302e-19)
(104.3550208 2.239657146 5.950305387e-19)
(104.0141455 2.166893232 4.430928057e-19)
(104.2902138 2.001371946 -2.624504424e-19)
(103.966643 1.949705696 5.224375043e-19)
(102.6749661 1.178598867 4.397739825e-21)
(103.1076001 1.231913788 9.317599863e-21)
(102.9614533 0.9157642697 -2.513382856e-21)
(102.5846726 0.9274759902 -4.548518794e-21)
(101.827872 0.6590721246 4.520708339e-21)
(102.1353869 0.6840655069 -2.444080507e-23)
(102.014392 0.4713629571 -7.403162821e-21)
(101.7464117 0.4861063989 9.130297542e-21)
(100.9600419 0.1047484884 -2.042582681e-22)
(101.2187651 -0.001604772619 -2.885340532e-22)
(101.5184318 0.2062087417 8.582047823e-22)
(101.4311164 0.3150294359 6.705457921e-21)
(100.6391395 0.03105032606 -3.390476978e-21)
(100.7807467 -0.04776559696 -2.52461079e-22)
(100.4615872 0.003307704606 2.541771812e-21)
(100.519579 -0.05061012495 -2.247482945e-21)
(100.3941538 -0.01939276615 4.194521476e-22)
(126.4931727 24.19036928 -1.735234191e-18)
(124.5281024 23.12452202 -6.760181338e-19)
(127.1262463 22.10035795 9.92716149e-19)
(125.2305489 21.47283929 8.54521694e-19)
(118.6801862 10.21525869 6.600636545e-19)
(116.9236368 9.751864859 6.359139703e-19)
(118.5707957 8.563631696 -3.980264947e-20)
(116.9403809 8.484789927 3.72416422e-19)
(111.4894117 4.849309294 2.266470037e-19)
(112.5297513 4.965562539 2.256840953e-19)
(112.2502735 4.144855417 4.500811287e-19)
(111.298526 4.177562261 2.261613038e-19)
(107.6004834 2.51477631 1.711930303e-19)
(108.2366188 2.519109986 0)
(107.9830474 2.075059524 0)
(107.4072298 2.13295264 6.815430835e-19)
(105.407155 1.287301915 3.5925864e-19)
(105.0171172 1.315080998 -4.202639331e-20)
(105.2299431 1.025608169 -1.351374597e-20)
(104.875825 1.074502302 3.183807249e-19)
(103.2018034 0.5839322269 -4.904056563e-21)
(103.6676674 0.5129876582 2.799708267e-21)
(103.3822645 0.1934101368 7.753512218e-21)
(103.0126409 0.3210914602 1.170425526e-21)
(102.1589114 0.2413109086 -2.034778661e-21)
(102.4708064 0.1783677839 1.375848132e-20)
(102.2636022 -0.02583007288 5.095333379e-21)
(102.0074746 0.06716246764 1.009562755e-20)
(101.0275302 -0.1500854337 -3.531818292e-22)
(101.2523331 -0.3403089374 -1.071589473e-21)
(101.6527906 -0.1904852156 -1.084888789e-21)
(101.616026 -0.03804401187 -1.196926193e-21)
(100.6518524 -0.1272646798 1.094012402e-21)
(100.7591035 -0.2714416239 1.332396537e-21)
(100.4446886 -0.0722181069 -4.32142764e-21)
(100.4675954 -0.176273924 1.693105436e-21)
(100.3260115 -0.06006714189 -2.134235297e-21)
(139.9646257 6.35253996 -2.859626586e-18)
(138.2267923 7.371883256 1.19412027e-18)
(138.6017998 4.947618788 6.022827472e-21)
(137.1515395 5.969279885 -1.246412819e-18)
(123.8315107 2.644817426 -7.14125672e-19)
(122.0646844 3.350902037 -1.55286858e-18)
(122.5849335 1.310772208 -2.395312699e-18)
(121.1917509 2.12683106 -1.614147424e-18)
(113.9318208 1.379294199 -7.963187126e-20)
(114.9812072 1.004834422 -1.160737073e-19)
(114.227085 0.3128093431 -2.205214555e-19)
(113.3525732 0.7505090805 1.713424066e-19)
(108.8317745 0.4625979351 3.941449577e-19)
(109.4652413 0.2310128735 -1.58911825e-18)
(108.9862399 -0.1439000164 -7.627712088e-19)
(108.445847 0.1152493413 -9.412703039e-19)
(106.0337846 -0.129894015 -3.410396999e-19)
(105.6545998 0.02029355332 -3.326779041e-19)
(105.7346718 -0.3513532931 0)
(105.4051534 -0.1951264567 -2.036052057e-20)
(103.4898867 -0.2437299465 7.732739163e-21)
(103.9339665 -0.4507451065 4.406995467e-20)
(103.5144727 -0.7134684371 -2.433204055e-21)
(103.1930604 -0.4759238966 -1.218274181e-21)
(102.3100553 -0.3234979148 5.589049149e-22)
(102.5927242 -0.4794959782 6.943108138e-21)
(102.3040107 -0.6422164507 5.707581339e-21)
(102.0878729 -0.4733055236 1.290223908e-21)
(100.9770814 -0.4562729087 5.56975997e-22)
(101.1420477 -0.7228397739 1.286430459e-23)
(101.6192917 -0.6647936872 3.714572728e-22)
(101.6472907 -0.4811754551 -5.701937998e-21)
(100.5695532 -0.3158709459 2.051689277e-21)
(100.6265105 -0.5222009494 -2.259807355e-21)
(100.3446119 -0.1621311293 4.079838807e-21)
(100.3224754 -0.3165254885 2.303624533e-21)
(100.1730366 -0.1055843476 2.028175358e-21)
(136.1829926 -10.85814326 1.04407182e-18)
(135.6556784 -9.511285682 1.077999677e-18)
(134.6976858 -11.10391361 3.255189941e-18)
(134.25675 -9.833915641 1.128515372e-18)
(123.2169354 -6.031185099 -1.693671498e-18)
(122.2191301 -4.690268971 -1.563391885e-18)
(121.5574845 -6.472729488 6.888363134e-19)
(120.8355703 -5.284491093 3.086191882e-19)
(114.2213157 -2.955622582 -2.425853668e-19)
(114.96177 -3.688039267 -2.751075934e-19)
(113.9475806 -3.987481251 -4.983192915e-19)
(113.3677359 -3.305393601 2.234363201e-19)
(109.0047971 -2.022433184 1.926139261e-21)
(109.4936881 -2.445282235 -6.106536346e-19)
(108.8692603 -2.634417724 -1.046098386e-18)
(108.4659461 -2.232064893 -1.970782521e-19)
(106.0188855 -1.755827049 -4.26052444e-19)
(105.7138959 -1.50289835 3.150245338e-19)
(105.6337082 -1.885211234 -4.255678491e-20)
(105.3764037 -1.64423521 -4.219995692e-20)
(103.4510154 -1.196786661 2.055992515e-20)
(103.8161323 -1.519180595 -6.235747173e-20)
(103.2994591 -1.67474004 5.824833371e-20)
(103.0626829 -1.356126245 1.256962305e-21)
(102.2316047 -0.970391193 0)
(102.4550526 -1.20558042 -1.985062979e-20)
(102.1038524 -1.296766332 0)
(101.9503022 -1.069554927 0)
(100.7912974 -0.7823036435 -2.802517758e-21)
(100.8777704 -1.107143365 -7.345794384e-21)
(101.3983689 -1.158609361 2.199009925e-21)
(101.4952772 -0.9665121611 -3.623396767e-22)
(100.3791753 -0.5165439798 -2.027254707e-21)
(100.375802 -0.7744046809 -1.608689576e-21)
(100.1505297 -0.2576525574 2.524257648e-22)
(100.0782495 -0.4579980218 -1.379065407e-21)
(99.9299785 -0.1516302247 2.390483789e-22)
(126.4629848 -19.9047905 1.641347848e-18)
(126.5951195 -18.85227105 1.678561348e-18)
(125.3633029 -19.54391099 1.63977866e-18)
(125.4785565 -18.59191157 1.607015208e-18)
(118.7557512 -12.1177224 -6.210913063e-19)
(118.5085607 -10.78783609 5.946541509e-21)
(117.2597848 -11.85035135 -6.309686799e-19)
(117.1298497 -10.72690782 -1.014662043e-19)
(112.4630318 -6.675236697 0)
(112.8052695 -7.49739865 -3.021455834e-20)
(111.8018084 -7.398943228 0)
(111.5551518 -6.682757806 -8.221524975e-19)
(108.0828684 -4.302565951 7.846034085e-19)
(108.3719647 -4.804790769 3.753802946e-19)
(107.720149 -4.785623712 -5.287058508e-21)
(107.4951896 -4.335467073 -6.949684468e-19)
(105.3555733 -3.272619193 -2.045803963e-20)
(105.1582575 -2.965466249 -4.987696408e-21)
(104.9386904 -3.291421801 3.195637917e-19)
(104.7791887 -3.01036473 0)
(103.0638044 -2.131364718 3.773589576e-20)
(103.3105467 -2.526292074 2.535098301e-21)
(102.7521774 -2.552251846 -1.872619316e-20)
(102.6191904 -2.192804258 1.88854902e-20)
(101.9149831 -1.612192655 -1.343573871e-20)
(102.0596617 -1.901893755 5.743641711e-21)
(101.6751732 -1.908087934 -5.622661404e-22)
(101.5936848 -1.64551297 -1.394644021e-20)
(100.4687465 -1.092788321 -6.203447212e-21)
(100.4681204 -1.458924319 -1.051392354e-21)
(100.9987454 -1.617325959 -1.85717386e-21)
(101.1564631 -1.43700448 -5.355224222e-21)
(100.0797164 -0.7094186582 -1.152359167e-21)
(100.0142546 -1.003037029 5.167646446e-22)
(99.86113472 -0.3497675452 -1.398462057e-21)
(99.73904725 -0.5879228299 4.126248588e-22)
(99.600057 -0.1940917923 2.390520465e-22)
(116.5377281 -22.91313524 2.214057926e-20)
(116.9450431 -22.20512944 -1.089962901e-18)
(115.7857493 -22.29977992 5.030601661e-19)
(116.1881021 -21.67686126 4.952111874e-19)
(113.0226062 -14.96380523 1.616259625e-18)
(113.2545806 -13.93668692 2.153336389e-19)
(111.9116088 -14.29101356 2.718956726e-19)
(112.1526043 -13.43921446 4.856922353e-19)
(109.5439573 -9.007436282 2.509093327e-22)
(109.5695547 -9.728260383 1.04637359e-19)
(108.745457 -9.357699676 6.271352299e-20)
(108.7478028 -8.748081602 -5.155765214e-19)
(106.4140099 -5.949953857 0)
(106.5127446 -6.422842813 3.097217983e-19)
(105.9294041 -6.237984147 6.56175366e-19)
(105.8628749 -5.824807683 0)
(104.2110216 -4.438046637 2.170427298e-19)
(104.1231347 -4.130828811 3.067966471e-19)
(103.8125953 -4.360737086 1.573445713e-20)
(103.747753 -4.083081673 2.115411825e-19)
(102.3764893 -2.925273429 -1.764434354e-20)
(102.4943992 -3.339500765 -3.576117256e-21)
(101.9174851 -2.883335192 1.772833758e-20)
(101.3876298 -2.175694461 -3.465725508e-21)
(101.4463377 -2.487088301 3.298578273e-22)
(101.0532719 -2.137026121 -1.840164524e-20)
(100.0276918 -1.358572904 4.028681677e-21)
(100.6617347 -1.848215563 2.783736654e-24)
(99.6820816 -0.8772835679 1.878774559e-21)
(99.48432612 -0.430503131 1.878561493e-21)
(141.1976627 7.932902474 -1.593409237e-18)
(139.4738964 8.952746036 2.460233906e-18)
(140.5672011 10.70545015 -2.770989197e-19)
(142.656958 9.078043468 1.714125208e-18)
(142.4706145 10.15325954 1.707627342e-18)
(125.6052729 26.05741398 -1.785847995e-18)
(127.8466905 27.43704002 -1.783595816e-18)
(128.7065807 24.92074761 -1.89749387e-18)
(137.6926464 -10.47998238 -2.461992571e-19)
(137.1626252 -9.137430776 -2.126637331e-19)
(138.7322372 -8.62793322 5.505096018e-19)
(139.0705358 -10.60344354 2.094392994e-18)
(139.4527417 -9.878409835 6.095303572e-19)
(141.514309 5.218789354 -1.967791762e-18)
(143.017796 6.152558387 -1.097108819e-18)
(142.9415352 7.210878591 2.197859033e-18)
(127.6064492 -20.23009795 2.258731627e-19)
(127.7420633 -19.16191589 2.631963505e-19)
(128.9362054 -19.43090086 1.41464227e-18)
(128.5733809 -20.7318447 -8.772527124e-19)
(129.0083241 -20.42033194 1.503809478e-19)
(136.5783461 -12.18040541 -8.1489732e-19)
(137.9134298 -12.37835957 -2.187469546e-18)
(138.3261764 -11.70579384 -7.681386534e-19)
(117.324903 -23.48587614 0)
(117.7304803 -22.79340037 -1.111364312e-18)
(118.5650489 -23.33479149 0)
(118.128047 -24.11491042 0)
(127.3902902 -21.30745675 1.30643738e-18)
(126.2852849 -20.92421231 0)
(116.8649191 -24.21769077 0)
(116.0990135 -23.57172988 0)
(92.78143399 23.19428116 -2.251412902e-19)
(91.42915093 25.19786343 2.83265846e-20)
(123.5597584 24.9947017 -7.299661341e-19)
(122.4253217 26.60851862 3.560758827e-20)
(124.3031448 28.31467518 -1.511626857e-18)
(107.3517442 21.61492441 -6.552590646e-19)
(107.5199177 22.55257932 -5.15529488e-19)
(108.642559 22.52248954 3.266288543e-19)
(151.1590632 28.13686546 1.17978338e-18)
(150.0647198 28.6303291 2.537338587e-18)
(150.5647191 29.47882328 -2.35496837e-20)
(151.6754919 29.25018748 1.189810627e-18)
(130.6131891 43.32316101 2.538767414e-18)
(128.9861879 45.41706354 1.558459641e-18)
(131.2935194 47.46959973 2.035440445e-18)
(132.9893581 44.73407515 2.106783005e-18)
(136.6341769 8.270019758 1.280222028e-18)
(137.5680088 9.810070279 3.535576532e-18)
(124.82826 4.084728138 -6.818484539e-20)
(123.0786314 4.859728265 -8.518931472e-19)
(123.8091978 6.416998457 -8.751912498e-19)
(126.0244971 5.91206709 -8.561218891e-19)
(118.5433035 11.71327951 6.680140277e-19)
(120.5942871 12.35027334 -6.784792168e-19)
(120.580851 10.33637754 8.245859459e-19)
(151.806348 -5.638054946 0)
(151.4830017 -5.060041145 0)
(152.0977729 -4.867817039 2.202965832e-18)
(152.5176231 -5.418001698 1.157216886e-18)
(155.0148004 8.709595742 -9.515933889e-19)
(154.453706 8.22075511 -1.495071548e-18)
(155.5404532 8.125678812 3.778863939e-20)
(154.9052147 7.669884276 -2.80941922e-19)
(135.1028617 -8.221889709 -1.121227474e-18)
(136.5114879 -7.79122356 -3.445888192e-18)
(124.8058814 -5.386773256 -2.210761595e-20)
(123.8452278 -4.022893728 1.453894226e-19)
(125.3602188 -3.163539685 1.735830512e-18)
(126.6833754 -4.638203496 3.085965815e-18)
(126.8929743 3.235994685 -4.028706683e-19)
(125.4132643 1.645515784 2.535341523e-18)
(137.5636672 -22.51056296 -8.584928436e-19)
(137.7886517 -22.08907819 -2.00668941e-19)
(138.0699466 -22.22541801 1.728983426e-18)
(137.9392329 -22.61527151 8.694550548e-19)
(145.2983301 -15.94673008 0)
(144.8114758 -15.98768798 -1.012854318e-18)
(145.3728648 -16.49510103 1.046961074e-18)
(144.8426521 -16.47921113 0)
(126.6609195 -17.85532565 8.44983026e-19)
(127.8202314 -18.06914689 -1.716085486e-18)
(120.2912267 -12.22712357 -7.501178519e-19)
(120.074537 -10.90736244 -1.202935385e-19)
(121.6614039 -10.85568719 -8.06286697e-19)
(122.0152461 -12.39237555 7.640761577e-19)
(125.8617625 -6.946132811 -2.62420294e-18)
(123.9696136 -7.424363397 -8.576139308e-19)
(124.2039072 -28.14426045 7.45061383e-19)
(124.5343191 -27.66315781 1.411637485e-18)
(124.9858159 -27.97254133 7.103081776e-19)
(124.6259921 -28.47961934 2.16755423e-18)
(130.6368191 -26.16657892 -1.107303264e-18)
(130.1120504 -25.9165614 6.202719185e-19)
(129.8081397 -26.49544147 -2.185358357e-19)
(130.1758038 -26.85315559 1.706118564e-18)
(130.4561267 -26.7068999 -1.083590598e-18)
(105.7450351 -33.2180812 3.597622691e-19)
(107.6393596 -33.50245517 -3.22279226e-19)
(108.5441929 -33.50193511 7.709344414e-21)
(107.4425845 -33.47479637 -3.263920676e-19)
(112.379773 -28.46848298 1.133330895e-18)
(112.8826197 -28.18141788 6.008882683e-19)
(113.0769015 -28.59964381 3.808891917e-19)
(112.6579001 -28.90551459 4.037366232e-19)
(118.1542157 -28.88935195 -1.02445788e-18)
(117.7822226 -28.51666571 5.286277585e-19)
(117.7585225 -29.28628975 -4.955537296e-19)
(117.4176657 -28.90149875 -4.756875874e-19)
(154.5274319 9.260690108 -1.830020594e-18)
(155.0876728 9.773237722 -5.933383054e-19)
(155.6504779 9.193195547 -3.700773368e-20)
(150.9779659 26.92845511 -9.689569138e-19)
(152.3595491 27.77445878 0)
(151.957789 26.78302422 0)
(136.4130273 18.85759605 1.735442932e-18)
(136.0129607 16.68632361 -1.501479662e-18)
(138.2041688 16.23913359 1.818488008e-18)
(139.3261747 18.06930219 -2.648622898e-18)
(138.6807658 19.06293449 -2.510298067e-18)
(149.0968054 27.074864 -9.899883036e-21)
(151.3840822 25.99531175 -9.681663943e-19)
(150.3091098 24.596277 -1.445341569e-18)
(148.4877978 25.1781892 -1.443994303e-18)
(153.9608333 8.773576644 -2.353946519e-18)
(153.4364022 9.311489952 3.302353836e-20)
(154.0138245 9.810625627 -2.363657713e-18)
(145.254397 -15.45323493 -1.003741418e-20)
(145.7444589 -15.3973372 -2.148037067e-18)
(145.8333762 -15.94646191 1.090688424e-18)
(151.1804049 -5.817568366 0)
(152.1980707 -6.191255504 0)
(151.4899171 -6.396298377 1.076088067e-18)
(140.233914 -2.250068349 -1.141424741e-18)
(139.5174757 -2.808439945 -7.305504626e-19)
(140.884699 -2.952445424 1.178513362e-18)
(140.1064775 -3.361564424 -1.141672431e-18)
(150.8674339 -5.25938388 0)
(150.5605537 -6.003290173 1.050069629e-18)
(150.3549828 -5.468134746 -1.43172757e-20)
(144.771112 -15.48495162 -1.014092441e-18)
(144.7676537 -14.98905197 -1.019129416e-18)
(145.2049746 -14.9459899 1.027935714e-18)
(153.9041497 7.757046908 1.665899017e-20)
(153.4005625 8.269232095 1.227075834e-18)
(150.6432905 -4.724059082 1.082919677e-18)
(151.1549593 -4.502088665 -1.064398996e-18)
(139.7956464 -1.426831448 0)
(140.5481189 -1.125919605 1.136690173e-18)
(141.132583 -1.764299759 -1.894954707e-20)
(130.933405 -25.57699898 -3.957325663e-21)
(131.4716361 -25.81365713 -8.878136313e-19)
(131.0172901 -26.52691982 -5.938284259e-19)
(131.2999778 -26.37058375 -5.93738147e-19)
(137.1612849 -22.42364709 -1.820991548e-18)
(137.4522085 -22.89406527 -1.724677373e-18)
(137.1166678 -22.79051072 8.539618919e-22)
(132.8762683 -16.39821122 2.056760816e-18)
(131.5351042 -16.34019469 1.291478508e-18)
(131.5732309 -17.52633651 -9.412212477e-19)
(132.6530553 -17.95737804 -3.966060875e-19)
(133.1222618 -17.49410193 2.075047371e-18)
(137.2651969 -21.73919703 -1.30245173e-18)
(136.845034 -22.65861674 4.413242471e-19)
(136.353391 -22.31045323 -2.586796795e-19)
(136.5724983 -21.58901139 -2.569927705e-20)
(130.4111253 -25.32377376 1.720182001e-18)
(130.6584395 -24.72380146 3.994356474e-20)
(131.2267618 -24.97389072 1.790672521e-18)
(144.3349771 -16.00885695 -1.007483663e-18)
(144.3386922 -15.51902798 -1.315677915e-20)
(138.1026612 -21.83936138 2.127375068e-18)
(137.4724553 -20.99959666 -1.300992018e-18)
(138.2832291 -21.30784101 -1.336687461e-18)
(138.0941107 -20.94702079 -1.791676298e-19)
(132.7651404 -15.16897157 -1.206646879e-18)
(134.1556556 -15.13614596 8.437554398e-19)
(134.0187059 -16.78516387 5.378636241e-19)
(134.4837799 -16.27008193 4.433694664e-18)
(118.513628 -28.49408375 -1.599817688e-18)
(118.8949328 -28.85899644 4.19475534e-20)
(118.5044668 -29.26765696 -5.285029944e-19)
(123.76201 -27.83059912 -2.066460899e-20)
(123.8400688 -28.6412842 -6.835221708e-19)
(123.4269075 -28.29765345 -6.830676495e-19)
(104.3112087 -33.03272833 3.491235295e-19)
(106.1138513 -33.30492803 -3.252837449e-19)
(102.0785453 -32.62174898 -1.839180599e-19)
(103.4750449 -32.85251689 -3.476993385e-19)
(101.284469 -32.29274988 -1.799610847e-18)
(111.9526366 -28.73884184 7.288209257e-19)
(108.4947315 -33.47561906 3.21189351e-19)
(157.788559 52.65550135 0)
(156.4929187 54.27064192 0)
(156.2426903 55.72857445 0)
(157.841689 56.62095318 0)
(130.4631072 67.04880387 0)
(127.9146509 69.1566467 -4.215564279e-19)
(130.4586337 72.59718001 -8.060027305e-19)
(133.2482303 69.47813037 0)
(121.892993 -29.51740745 2.604216215e-19)
(123.7977736 -29.70209117 0)
(121.8930269 -29.37421491 3.148454169e-18)
(114.0086351 -27.80397783 0)
(117.3219709 -21.54936035 -1.096712725e-18)
(118.1108639 -22.0496096 -1.111658197e-18)
(114.2206116 -15.53436447 9.351405177e-19)
(114.4729289 -14.53622971 -4.613882055e-19)
(115.7692806 -15.01575516 0)
(115.5176307 -16.23299613 -5.91032656e-19)
(120.459051 -13.70271735 -1.454818261e-18)
(118.8280913 -13.37319318 2.636133036e-21)
(102.4153709 -31.74042804 2.297268697e-18)
(105.1051491 -32.3201808 -4.139097797e-19)
(102.19959 -31.58223611 0)
(94.23664396 -29.46239456 4.001570597e-18)
(114.5774733 -31.97107881 4.905242179e-19)
(115.0834432 -31.58101308 6.062659535e-19)
(115.3522596 -32.02507881 1.2177069e-18)
(114.6607727 -32.34700168 1.963206107e-19)
(114.9097508 -32.41036228 7.293165867e-19)
(117.7562242 -31.89839647 9.267693249e-19)
(117.554585 -31.69617867 -7.414053946e-19)
(117.4961845 -32.06768788 0)
(117.3981436 -31.90299256 0)
(128.5608645 41.57088001 0)
(131.9804704 40.9560169 1.575182644e-18)
(129.9314455 39.76139329 0)
(149.51775 29.55190519 -6.122777433e-19)
(147.1501186 27.52097113 1.440269137e-18)
(147.6131556 29.5347437 1.440579427e-18)
(134.1202961 19.03102149 2.180026393e-18)
(134.2276635 21.23560343 -2.839310416e-19)
(137.2881612 20.8902891 8.308912031e-19)
(136.4462018 21.75830006 3.548589909e-18)
(118.0795415 -31.63443373 1.913201082e-18)
(118.179434 -31.89248817 9.28350381e-19)
(117.8801546 -32.06636161 4.668341548e-19)
(120.8096606 -31.66940339 1.037593357e-18)
(120.7206552 -31.4940935 2.503061045e-19)
(120.371846 -31.86203357 5.205765929e-19)