/*--------------------------------*- C++ -*----------------------------------*\
| =========                 |                                                 |
| \\      /  F ield         | OpenFOAM: The Open Source CFD Toolbox           |
|  \\    /   O peration     | Version:  v2012                                 |
|   \\  /    A nd           | Website:  www.openfoam.com                      |
|    \\/     M anipulation  |                                                 |
\*---------------------------------------------------------------------------*/
FoamFile
{
    version     2.0;
    format      ascii;
    class       volScalarField;
    location    "0.57";
    object      nut;
}
// * * * * * * * * * * * * * * * * * * * * * * * * * * * * * * * * * * * * * //

dimensions      [0 2 -1 0 0 0 0];


internalField   nonuniform List<scalar> 
3259
(
1.14775875
1.147613349
1.14823998
1.150264495
1.153041314
1.159698679
1.079217199
0.8887042519
0.7154499285
0.5868337228
0.4829219013
0.4291061618
1.147686294
1.147593183
1.148397559
1.150742053
1.154085203
1.16137126
1.135513077
0.9378039899
0.7773673628
0.6408414759
0.515646142
0.2947665711
1.147670635
1.147622491
1.148593335
1.151263065
1.155031898
1.162926994
1.170936713
1.022400313
0.8715987092
0.7431399869
0.616043077
0.09371366073
1.147760296
1.147753727
1.148867896
1.151822538
1.155962541
1.164337169
1.172731279
1.161155985
1.019610005
0.9184603602
0.8513083688
0.04768126501
1.147823952
1.147843536
1.149075553
1.15230582
1.15681209
1.165560037
1.174219595
1.172820046
1.149929394
1.070196378
0.6737875817
0.02893062911
1.147937736
1.147978331
1.149299229
1.15274497
1.157533007
1.166554103
1.175384171
1.173979084
1.146512319
1.021714099
0.3817213517
0.03549848499
1.147964236
1.148011791
1.149394355
1.153038308
1.158102086
1.167314146
1.176183702
1.174650502
1.144331593
0.9703997083
0.2306246598
0.05582953624
1.14802053
1.148076736
1.149498566
1.153272088
1.158511465
1.1678508
1.176685987
1.174923733
1.141138238
0.9302789676
0.2043563357
0.06954025041
1.147958818
1.148017664
1.149462779
1.153353242
1.158773485
1.168187297
1.176939024
1.174868423
1.136746536
0.8848005202
0.1903041731
0.08015817662
1.147934572
1.148006117
1.149469026
1.153418407
1.158909947
1.168356994
1.176992901
1.174533529
1.131144994
0.8366359453
0.181516078
0.09007063784
1.147777121
1.147861017
1.149340272
1.153358296
1.158953859
1.16839818
1.17689221
1.173944284
1.124100361
0.7935208772
0.1763083399
0.09897896028
1.147677727
1.147786614
1.149288146
1.153334713
1.15892957
1.168345552
1.176669242
1.173088321
1.11496915
0.7592536384
0.1738790956
0.1067335746
1.147434608
1.147567784
1.149094171
1.153194361
1.158859487
1.168224265
1.176342195
1.171902839
1.103302356
0.7328482285
0.1735703699
0.113271333
1.147274777
1.147443348
1.149003173
1.153124232
1.158750505
1.168050146
1.17591643
1.170289184
1.089620212
0.712372518
0.1748929334
0.1187286038
1.14696447
1.147164567
1.148756666
1.152925053
1.158613932
1.167831991
1.175388123
1.168144192
1.07506586
0.6963453434
0.1775414877
0.1232947471
1.146760016
1.147001215
1.148635392
1.152823857
1.158447805
1.167574831
1.174746947
1.165401897
1.060620226
0.6836371363
0.1811614548
0.1270986287
1.146406544
1.146681493
1.148350228
1.152576816
1.158262233
1.167281618
1.173978428
1.162059763
1.046827985
0.6734534577
0.1855232411
0.1302655271
1.14616599
1.1464845
1.148201006
1.152452141
1.158052488
1.166954618
1.173066569
1.158173395
1.033895769
0.6652480477
0.1904673675
0.132932227
1.145799215
1.146150406
1.147900201
1.152174871
1.157830238
1.16659451
1.171997216
1.153831786
1.021849493
0.6585108187
0.1958114996
0.1352442436
1.145515277
1.145911272
1.147712648
1.152022735
1.157588474
1.166201427
1.170761545
1.149131887
1.010631645
0.6528723065
0.2013670441
0.1373108397
1.145177828
1.14560321
1.147435435
1.151751583
1.157338954
1.165773633
1.169357496
1.14416744
1.000169809
0.6480515413
0.2070107177
0.1391978442
1.144818607
1.145290401
1.14717666
1.151537501
1.157074972
1.165311852
1.167790063
1.139023062
0.9904087989
0.6439097567
0.2127010913
0.1409496577
1.144572634
1.145068829
1.146983329
1.151349731
1.156811373
1.164821595
1.166082532
1.133767925
0.9812938662
0.6403762416
0.2184248233
0.1426069129
1.144084169
1.144637064
1.146618545
1.151031377
1.156576515
1.164335459
1.164326254
1.128464023
0.9728050307
0.6373996228
0.2241270211
0.1442071207
0.4384112082
0.342928464
0.4795421819
0.4440373799
0.5041226886
0.38643924
0.4350853068
0.4000993387
0.02986449177
0.04975679224
0.2891939047
0.0507540241
0.03155798721
0.004694987443
0.02955038158
0.3918495382
0.01848553869
0.01048678601
0.03120569507
0.01881656227
0.01198672146
0.04470906273
0.1971367494
0.1834286652
0.2160974217
0.2026905177
0.04506995349
0.06734442776
0.2348868168
0.2209683822
0.2394934803
0.0687118042
0.04857999394
0.04754570446
0.1781072191
0.1680073659
0.02360503713
0.01187464287
0.02347013275
0.01545309744
0.02973879711
0.01167921569
0.01458362817
0.01194878734
0.02977590083
0.01232105831
0.01980636134
0.5789638132
0.3963006802
0.3737061658
0.2644600889
0.008328829895
0.005309763362
0.03288379082
0.09777729018
0.09223479255
0.01121044654
0.01629166471
0.05079369191
0.03861468455
0.004395752037
0.1276727755
0.1090287895
0.09034232204
0.08586093228
0.02917823514
0.02145094388
0.01825760537
0.01138478259
0.02086816158
0.02795294399
0.002855515424
0.0307221778
0.01985357268
0.1066793055
0.09974673122
0.0366987459
0.0472823785
0.1143429168
0.1085747172
0.05012582387
0.04355254626
0.02808181157
0.08311523459
0.07432358923
0.01267939686
0.01214956327
0.01746508568
0.01175193466
0.01279083476
0.01876027235
0.03060986435
0.008167647855
0.0130239449
0.01154003532
0.01225369148
0.02068891728
0.1220357175
0.1161788759
0.04778071749
0.058613918
0.1308243135
0.1240732132
0.01960369687
0.01989825722
0.03240837823
0.01843830464
0.03099097301
0.01917209406
0.01934186471
0.01883357313
0.1395805339
0.1330766412
0.06193938809
0.07178406662
0.1474032993
0.1415239684
0.03171364868
0.03177884521
0.0489429034
0.04721929964
0.03131284802
0.03127359982
0.02236554648
0.03557309165
0.03520651063
0.008395915046
0.01421034579
0.02078213073
0.01287654096
0.01218518549
0.0182687339
0.01851391928
0.03019593259
0.01172659855
0.008515776273
0.01162990894
0.01170971768
0.02820363873
0.01777444762
0.01836104691
0.0147763552
0.01987658972
0.0196842814
0.0154733693
0.03449495682
0.02049322921
0.02141683644
0.04210514196
0.02910003923
0.003016236059
0.02918480016
0.0449018219
0.04453840782
0.01821869005
0.01132536489
0.008291477371
0.003705713771
0.01246965217
0.01258833908
0.0189425395
0.01910350659
0.0309181705
0.01926181545
0.01923615915
0.01919215797
0.01948277106
0.0194205186
0.02964947703
0.02961742697
0.04518630112
0.01842907094
0.01946268324
0.01896253537
0.01902861389
0.04289320388
0.04231546355
0.02787891865
0.01277950605
0.01053060126
0.01048448947
0.007882368461
0.01087784113
0.01227330621
0.01804838049
0.01222061373
0.01263583883
0.01248315636
0.03031622869
0.0186220516
0.01882722457
0.0114177102
0.01173392685
0.01163443437
0.01209338175
0.01213930925
0.00846888653
0.008494194318
0.01212233733
0.01176637358
0.01203558263
0.01508583732
0.01863443952
0.02826052455
0.8743972842
0.7416931255
0.703581028
0.6052408265
0.576710631
0.5025915335
0.9191078858
0.7953237325
0.7538521806
0.7576668332
0.6542038976
0.6160098311
0.6217304921
0.5251054882
0.5058002489
0.4870241791
0.4567758803
0.4689908068
0.4182308687
0.2584658193
0.2728746876
0.9958534133
0.8786161907
0.8145277233
0.8432068492
0.7421648139
0.6739151348
0.7105732514
0.6139418333
0.5405845425
0.5279539925
0.490661733
0.4723302686
0.2892651846
0.1400551764
0.1588742481
1.11728118
1.008167006
0.9065267318
0.9768203191
0.8927018052
0.7740152171
0.8674571691
0.7938514879
0.6511675089
0.7747765698
0.2420083936
0.3658302502
0.05861697791
1.172482119
1.158972915
1.048698196
1.150739533
1.106043017
0.9418482846
1.078765718
0.8784508716
0.8627120724
0.7227708686
0.09561355311
0.2036710548
0.02950354315
1.173722052
1.157781647
1.158675495
1.147240581
1.081561171
1.101072326
1.035657562
0.6760087948
0.8421720463
0.4473088683
0.0382227241
0.06971653776
0.03258176431
1.174524087
1.15722538
1.157602464
1.14494301
1.053442403
1.074094087
0.9801206004
0.4547529976
0.6114902829
0.2528024778
0.03851440172
0.03721344729
0.05036773307
1.174889074
1.155999716
1.156991488
1.142049076
1.031187135
1.048253956
0.9407731782
0.3820006417
0.4227469207
0.2089809412
0.04181882592
0.03947648305
0.06684674871
1.174910273
1.154014135
1.155575477
1.137956588
1.005073805
1.025022881
0.8966810327
0.3483288572
0.3720817279
0.193222249
0.04459620167
0.04246602256
0.0775434656
1.174641684
1.151266377
1.153400031
1.132664579
0.9741807017
0.997877278
0.848496626
0.3263401307
0.3419830981
0.1832502588
0.04781935375
0.04536437816
0.08767783835
1.174115248
1.147702997
1.150458044
1.126027633
0.9384490537
0.9655864394
0.8035056322
0.3116345953
0.3220981045
0.1773213449
0.05133448002
0.04867573107
0.0968548389
1.173329792
1.143071712
1.14666174
1.117487379
0.9027581316
0.9292826736
0.7670071387
0.3019753205
0.3087765665
0.1742664376
0.05500606473
0.05224034971
0.1049071143
1.172234936
1.136931918
1.141686298
1.106445688
0.871731947
0.8944844234
0.7388252543
0.2960623411
0.3002020949
0.1734826839
0.05873895101
0.05593449336
0.1117470408
1.170738418
1.128976491
1.135114455
1.093168984
0.8461964151
0.8648562289
0.717023665
0.2930233555
0.2950712763
0.1744287881
0.06243703917
0.0596669581
0.117452448
1.168734499
1.119442258
1.126722986
1.078724816
0.825381692
0.8405939896
0.7000035262
0.2921796464
0.2926316319
0.1767779068
0.06603640733
0.06334270538
0.1222296789
1.166144452
1.108923464
1.116880792
1.064185708
0.8082901603
0.8207998009
0.6865553005
0.2929507655
0.2922474825
0.1801849039
0.06950966975
0.06691060585
0.1262132308
1.162948911
1.098024042
1.106215151
1.050199108
0.7940947342
0.8044991529
0.6757958773
0.2948778303
0.2933381477
0.1843764677
0.0728495747
0.07034768088
0.1295293864
1.159191294
1.087172803
1.095296258
1.037045086
0.7821865646
0.7909274284
0.6671497649
0.2976909724
0.2955104675
0.1891932136
0.07606328535
0.07365051427
0.1323100198
1.154954196
1.076609602
1.084500696
1.024780565
0.7720618385
0.7795111078
0.6600774456
0.3011255026
0.2985029798
0.1944596532
0.07917730802
0.07682968131
0.1347028896
1.150334709
1.066436931
1.074029243
1.013363139
0.763296285
0.7697601912
0.6541982911
0.3049175553
0.3020483445
0.1999847142
0.08223034452
0.07991556735
0.1368302034
1.145427999
1.056691036
1.063961314
1.002717273
0.75558636
0.7612805041
0.6491909115
0.3088812889
0.3058915505
0.2056281701
0.08525357352
0.08294472793
0.1387679535
1.140321455
1.047384421
1.054324013
0.9927868625
0.7487304102
0.753794946
0.6448883173
0.3129512183
0.30987417
0.2113383314
0.08827358141
0.08594316242
0.1405653774
1.135088323
1.038526045
1.045129193
0.9835136469
0.7426429935
0.7471419759
0.6412117746
0.3171367196
0.3139494379
0.2171228106
0.0913240408
0.08893528688
0.1422655323
1.129779185
1.030094479
1.036383957
0.9748286639
0.7372113353
0.7412333641
0.6380759547
0.3214405758
0.3181115076
0.2229830203
0.09443937277
0.09195030832
0.1439106797
1.124097045
1.021543758
1.028103795
0.9661365732
0.7320163844
0.7360160411
0.6352212611
0.3261123434
0.3223096721
0.2292715315
0.09788468897
0.09501270224
0.1456552897
0.2778785468
0.2924265697
0.4469162236
0.1648309492
0.1804441711
0.3506822268
0.03626039647
0.4631154173
0.4841602141
0.4769438534
0.4686630851
0.4715519565
0.4578630396
0.4603892847
0.4656560356
0.493405529
0.4000729508
0.4450565208
0.4446305765
0.4557231549
0.4456951316
0.4086782679
0.2390643006
0.2531709567
0.4086877767
0.0300848957
0.04794557618
0.04709704823
0.07229839872
0.07095348015
0.04899360804
0.009482714354
0.009127721376
0.2469069354
0.01782924135
0.01925872206
0.04067898924
0.05110405515
0.0523636186
0.07575420523
0.07379536425
0.1491667807
0.07296107527
0.455647775
0.2972187071
0.00332583308
0.0270387512
0.01488605803
0.04622450212
0.04576086073
0.02947617283
0.384531133
0.2192193429
0.2329767989
0.01453090343
0.01374405992
0.00527806923
0.06277476058
0.06089027152
0.04281456134
0.1935218025
0.1413716842
0.1441123169
0.1196276824
0.1303871018
0.1874896195
0.2117876175
0.1579567689
0.1618676897
0.1497126617
0.1531749691
0.2067092088
0.04610689561
0.06532470283
0.06394412654
0.08994576339
0.08827585996
0.06624223807
0.2302667431
0.1753710228
0.1796632236
0.1664380278
0.1707796332
0.225518877
0.2487213119
0.1920879689
0.1838757523
0.1879916333
0.2440927032
0.06962262158
0.09309503316
0.09160388971
0.1754798281
0.1103828969
0.1168088388
0.0976822745
0.1071830978
0.1676304359
0.02356220777
0.01648324433
0.01693256772
0.01290629319
0.01306226637
0.01633625991
0.01378356115
0.01245482933
0.01271992863
0.01307342423
0.01584564205
0.5440045827
0.5140228034
0.5494401097
0.3700510351
0.4671714113
0.4926511876
0.4436454894
0.4624102644
0.3795588022
0.1292947696
0.1550822663
0.2781466145
0.008110535457
0.03709296964
0.02983230288
0.1017506103
0.1178868347
0.006626981262
0.05203963375
0.04959662183
0.03097636044
0.09584835213
0.0716443228
0.07393664977
0.06833360463
0.06963470324
0.0938292195
0.01258800746
0.03238205284
0.02360382318
0.03503754371
0.03034824552
0.01604234591
0.03232743261
0.03249039955
0.05140384079
0.009895441971
0.006931328551
0.002846922515
0.120442468
0.06250776009
0.06908783259
0.05405932526
0.06017955546
0.1141354388
0.08899356398
0.06593377118
0.06684085928
0.06365801973
0.06444583976
0.08697408914
0.02610711221
0.01778732638
0.01328286418
0.01433614275
0.01278159427
0.01178398273
0.01720455476
0.006086619185
0.007811818721
0.1044446523
0.08173697181
0.08368245147
0.07675985144
0.07930597925
0.1023003955
0.04120343953
0.05858377759
0.05551992321
0.06757680013
0.06632615285
0.04652240711
0.1123399766
0.0886122234
0.09024180358
0.08539336462
0.08705693842
0.1105494519
0.04965839101
0.03202987134
0.03210400387
0.08220398157
0.06055295334
0.06150072655
0.05221858935
0.05350901009
0.07410453121
0.01264289241
0.01261308254
0.01241697391
0.01731033983
0.01358132045
0.01415690226
0.01197405223
0.0122710677
0.01342123843
0.1200088272
0.09504817959
0.09679144455
0.09180012405
0.09343951613
0.1181396319
0.04843659923
0.06983118895
0.06862041489
0.08111770239
0.07822877214
0.05497687266
0.128474093
0.1030628008
0.1055667718
0.09864295042
0.1007241297
0.1262281145
0.1374370502
0.1124921785
0.114508902
0.1080157811
0.1103674558
0.1353730412
0.06424312967
0.08625588034
0.08383338014
0.09618138811
0.09468738891
0.07081846377
0.1454601036
0.1204764079
0.1225504051
0.1164819793
0.1184542844
0.1435816284
0.01484768659
0.01546225316
0.0217509227
0.01285395462
0.01295628223
0.01269582787
0.01375540762
0.01321300433
0.01311602407
0.01394258163
0.03166511065
0.01544273435
0.02206317953
0.01430280422
0.01511445734
0.02997119595
0.002061291031
0.00672642377
0.006485248219
0.009239451346
0.007563894704
0.003507264615
0.01151428476
0.008689357493
0.009654402327
0.01027447479
0.00941169221
0.01155303924
1.152725932
1.15532219
1.158707282
1.162692791
1.073316268
0.9237189865
1.153639553
1.156691489
1.15588819
1.160567038
1.164756241
1.163692242
1.103657441
0.9719278228
0.953174071
0.8950751212
0.8494646311
0.8384640927
0.7283555767
0.6931951775
0.6805988665
0.5971923101
0.5679395143
0.5588766225
0.4285698231
0.3815168119
0.3865575234
1.154578065
1.15798356
1.157332232
1.162170602
1.166625148
1.165680629
1.168946729
1.032039063
1.001814204
0.9499961277
0.9099011336
0.8950267885
0.793155736
0.757963563
0.7417298622
0.6574456133
0.6250458206
0.6086835841
1.15552696
1.159216985
1.158593218
1.163655186
1.16827115
1.167451599
1.171879005
1.148024153
1.076890867
1.049497609
1.010839483
0.9816667543
0.9028849858
0.8703377195
0.8372497734
0.7795622805
0.7509267658
0.7126863269
0.6595737504
0.6348874537
0.5857000377
0.07907748115
0.01486289776
0.01422442025
1.156424346
1.160339253
1.159776472
1.164980988
1.169770915
1.169066779
1.173483344
1.17412685
1.172814889
1.171719564
1.163694352
1.116176795
1.066641607
1.041272336
0.9921388777
0.9752136677
0.9576602995
0.8955612313
0.8148001938
0.6334443316
0.6942542206
0.04025067045
0.01864686556
0.01699031585
1.157211748
1.161302048
1.160824806
1.166090814
1.170972118
1.170403009
1.174860666
1.175468135
1.174512867
1.173160711
1.170011185
1.169766057
1.149038208
1.136472784
1.138266695
1.060309973
1.007236956
1.024004029
0.5959354238
0.3545705309
0.4442434694
0.02897765218
0.03615498122
0.02913046027
1.157856183
1.16207855
1.161697997
1.16696672
1.171903036
1.171470964
1.175823771
1.176354785
1.175735688
1.174190391
1.170836977
1.170663266
1.14593363
1.129040255
1.130766853
1.006927959
0.9119770082
0.9385138398
0.3252434868
0.1550833307
0.1899537322
0.0393568732
0.08976851458
0.07242666517
1.158341117
1.162662745
1.162380254
1.167612342
1.172572563
1.172268715
1.176469195
1.176841774
1.176508294
1.174753922
1.1711811
1.171138288
1.14364615
1.123821209
1.125281735
0.9608206589
0.827142411
0.8426335879
0.2201138543
0.09545571716
0.1017707607
0.06118573869
0.1477723831
0.1375094822
1.158671072
1.16306299
1.162872576
1.168044708
1.173004707
1.172816175
1.176840498
1.177014344
1.176910917
1.174939092
1.171092705
1.171151693
1.140153307
1.116794201
1.118727909
0.919444339
0.7640435119
0.7798309522
0.2002174769
0.08790367819
0.08941563301
0.07223985908
0.1621051628
0.1591017464
1.15886246
1.16330145
1.163190049
1.168292731
1.173231424
1.173141206
1.176987838
1.176934139
1.177015714
1.174809918
1.170627556
1.170777136
1.135462791
1.107905693
1.11030086
0.872720991
0.705226944
0.7189675197
0.1876422012
0.08351602325
0.0843685654
0.08271758053
0.1721619988
0.1699025493
1.158945935
1.16341009
1.163360485
1.16839302
1.173290828
1.173279322
1.176959544
1.176645421
1.17688064
1.17441003
1.169812692
1.170048818
1.129539071
1.097013443
1.09995695
0.8251233434
0.6589272439
0.6691881761
0.1799235896
0.0813596532
0.0817302356
0.09239755315
0.1798363043
0.1781008992
1.158949636
1.163423404
1.163418442
1.168383205
1.173222626
1.173270209
1.176794558
1.176166756
1.176544515
1.17375717
1.168639118
1.168968639
1.122044411
1.083307639
1.087055135
0.7841203302
0.6252628785
0.6326941357
0.1754750779
0.08078975408
0.08080383902
0.1010277912
0.1857585413
0.1844203343
1.158899169
1.163368558
1.163395932
1.168293506
1.173059861
1.173151311
1.176518152
1.175482858
1.176017657
1.172826409
1.167030147
1.167480681
1.112288244
1.066152648
1.070732583
0.75199812
0.6006764208
0.606137771
0.1736297422
0.08145786531
0.08118492262
0.1084804384
0.1902982841
0.1892781359
1.158806514
1.163263939
1.163315408
1.168144152
1.172824118
1.172950077
1.176141761
1.174550965
1.175276894
1.171543973
1.164833361
1.165447703
1.100030807
1.046702505
1.051664381
0.7272419015
0.5824602023
0.5865257493
0.1737651382
0.08315823007
0.08264392048
0.1147276495
0.1937034912
0.1929526033
1.158682877
1.163119657
1.163191056
1.167947161
1.172526737
1.172682566
1.1756657
1.173312761
1.174274479
1.169806265
1.161870197
1.16269173
1.086019289
1.027011704
1.031864415
0.7080011437
0.5689109887
0.5719302405
0.175448395
0.08574058413
0.08501335145
0.1199475911
0.196143688
0.1956129191
1.158529892
1.162942412
1.163030346
1.167709078
1.172172118
1.172356225
1.175082646
1.17170855
1.17295035
1.167515867
1.158036887
1.159078071
1.071417469
1.008465603
1.012955109
0.6928962959
0.558859835
0.5611035482
0.1783728185
0.08910274045
0.08819216675
0.1243120181
0.1978533502
0.1974801583
1.158354009
1.162735611
1.162838554
1.167433942
1.171760617
1.17197306
1.17437995
1.169695183
1.171247177
1.164621254
1.153356389
1.154599734
1.057099063
0.9915899666
0.9956443573
0.6808808763
0.5514040542
0.5530626231
0.1821937284
0.09312133941
0.09205249568
0.1279464747
0.1990553381
0.1987927522
1.158156471
1.162503938
1.162618581
1.167124448
1.171290091
1.171531929
1.17354212
1.167259089
1.169128516
1.161135991
1.147966354
1.149370603
1.043512147
0.9764406574
0.9800708041
0.6712371964
0.5459143211
0.5471281644
0.1867184843
0.09773248454
0.09651791029
0.1309769074
0.1998965724
0.1997114609
1.15794057
1.162249579
1.162374744
1.166782735
1.170756674
1.171029474
1.172553737
1.164417435
1.16658872
1.157126452
1.142047547
1.143565242
1.03080335
0.9628738192
0.9661311639
0.6634330714
0.5419335609
0.5428111239
0.1917835169
0.1028655949
0.1015231813
0.1335456102
0.2005073478
0.2003653628
1.157714038
1.161977575
1.162108148
1.166409731
1.170155433
1.170460724
1.171403366
1.161210554
1.16365155
1.152686467
1.135775673
1.137369661
1.018971682
0.9506378462
0.9535855181
0.6570147857
0.5390401368
0.5396813462
0.1972018619
0.1084234268
0.1069764259
0.135793572
0.2010058308
0.2008814418
1.157468744
1.161688295
1.161823326
1.166005771
1.169481167
1.16981993
1.170085441
1.157691718
1.160361684
1.14791201
1.129285666
1.130921956
1.007948336
0.9395043981
0.9421946258
0.6516002535
0.5368926018
0.5373719254
0.2027980471
0.1142990163
0.1127656034
0.1378188368
0.2014565549
0.2013353554
1.15723113
1.16138659
1.161517603
1.16556882
1.168728061
1.169101936
1.168598803
1.153919713
1.156774187
1.142895109
1.122690777
1.124344282
0.9976674084
0.9293058761
0.9317742785
0.6469587356
0.5352865225
0.5356400589
0.2084759379
0.1204044706
0.1187905512
0.1396810852
0.201894851
0.2017678159
1.156959203
1.16106578
1.161199211
1.165093219
1.167886061
1.168305008
1.166939471
1.149949762
1.15294811
1.1377173
1.116078242
1.117729285
0.9880722478
0.9199375016
0.9222062589
0.6429773581
0.5341427791
0.5343793157
0.2142218137
0.1266961777
0.1249836939
0.1414244065
0.2023347062
0.2021963764
1.156708052
1.160713463
1.160867263
1.164556376
1.166926434
1.167437949
1.16507519
1.145824507
1.148936931
1.132442634
1.109509382
1.111146224
0.9791059949
0.9113141008
0.9134092938
0.6395858237
0.5334214554
0.533545205
0.2200445271
0.133146464
0.1312973032
0.143092061
0.2027854481
0.2026320121
1.156387626
1.160323913
1.160565204
1.163931271
1.165769667
1.166539871
1.162844729
1.141321435
1.144789896
1.127076765
1.102966455
1.104655755
0.9706192046
0.9032564187
0.9053403149
0.636645948
0.5330395071
0.5330868804
0.2259444444
0.1397255185
0.1376583944
0.1447249005
0.2032531979
0.2030895524
0.3917195765
0.3968084841
0.4385142906
0.2707035742
0.2830567129
0.3375220709
0.4525743957
0.4546444778
0.4480292286
0.3963806015
0.4041808365
0.4001678331
0.4412651651
0.4344861073
0.4258430775
0.3512801837
0.3559379625
0.3997700262
0.4643868292
0.4238110286
0.3944252051
0.3417392405
0.3456177349
0.01831056472
0.3946676695
0.394307284
0.3704238237
0.01190174974
0.01088571389
0.005639785424
0.01151801935
0.01598683041
0.01508781068
0.02304843928
0.01813725379
0.0147825657
0.02216139497
0.825604025
0.8161732142
0.8671085855
0.7300916576
0.7705705744
0.7813185919
0.6686051388
0.6575896863
0.6923267741
0.5954861087
0.6253629161
0.6358835246
0.5502383821
0.5425122653
0.5678633849
0.4988789503
0.5197187426
0.5261597037
0.877385438
0.8623799366
0.9099500149
0.7790215919
0.8196065358
0.8354567337
0.7949332495
0.8065032592
0.7658761035
0.7218112765
0.7058309924
0.7413386132
0.6395525248
0.6718790073
0.6873606317
0.6472241754
0.6596950841
0.6279293274
0.590482776
0.5780339893
0.6081211263
0.5155790738
0.5498300507
0.5600554255
0.5331583756
0.5412597356
0.5101637916
0.3713496532
0.3763627243
0.419004267
0.2630619605
0.3203383397
0.3154195619
0.3304418753
0.3254730257
0.2681632112
0.9563521971
0.9312392782
0.9736884298
0.8525848653
0.8907358407
0.9157488571
0.8538680393
0.8687263453
0.8299020587
0.8083283177
0.7810654175
0.815783355
0.7138782542
0.7470725427
0.7747713861
0.7072777065
0.7234850871
0.6904022586
0.6788953088
0.6490553701
0.6812937291
0.5821809167
0.6173592352
0.6479180802
0.576757726
0.5930051936
0.557554873
0.2149562419
0.2102293049
0.1536407927
1.076150906
1.041084507
1.082291274
0.9708628113
1.004757883
1.040365447
0.9431464366
0.9724141957
0.9364966329
0.9472247548
0.9067197031
0.9379129196
0.8483663948
0.8767809428
0.9191715031
0.8052213364
0.8389442205
0.8090097371
0.8429785358
0.7944235454
0.8208630692
0.7401253997
0.7686587591
0.8182092363
0.683212538
0.7234236878
0.6933722976
0.7195639921
0.6874194271
0.7107470099
0.2894365542
0.5556479742
0.5033760379
0.5336583759
0.5736553711
0.3212887136
0.01606467627
0.01525825568
0.06830415137
0.0384379659
0.04227380412
0.03336326245
0.03596864741
1.169536734
1.169273538
1.172105911
1.147866164
1.165048998
1.165117556
1.079581281
1.125802325
1.094114774
1.139868632
1.096478854
1.120436041
1.057413414
1.075523551
1.125481651
0.9662331704
1.017660083
0.9957181171
1.038583863
1.037777482
1.044288288
0.9144394633
0.9968710849
0.9766094282
0.8747792546
0.9489026964
0.9350773917
0.5032088641
0.5894673029
0.785065859
0.1285043496
0.3379360665
0.2633192162
0.4674383586
0.388788154
0.1575736195
0.02425005862
0.02079958338
0.03309217672
0.06782875576
0.08238474542
0.04816445423
0.05616125813
1.170449976
1.170237327
1.173442627
1.158033302
1.165205139
1.16530211
1.165147095
1.165179272
1.158349484
1.132589272
1.13456277
1.148127495
1.088767239
1.115735637
1.111863369
1.122616793
1.119346293
1.095332636
0.9641524321
0.9866224479
1.048586956
0.7377023316
0.889512504
0.8503998855
0.9528379144
0.9244119286
0.7925031615
0.2336682434
0.2934733771
0.5238927776
0.04279275973
0.1266158091
0.09369191441
0.2136782488
0.157332689
0.05299145385
0.0578118981
0.0455173075
0.03044493279
0.136611889
0.1559585258
0.09908030137
0.1173612649
1.171067745
1.170967679
1.174370142
1.157415385
1.165538931
1.165539572
1.165399332
1.165500321
1.157545318
1.126624521
1.127834442
1.145478271
1.05922967
1.101015854
1.098421743
1.108006777
1.104277413
1.066526986
0.8611060799
0.8857171239
0.992815446
0.4958311702
0.7178561492
0.6798103167
0.806183307
0.7619534754
0.5509292305
0.1140673886
0.1325390056
0.28249039
0.03750712661
0.05171700199
0.04797335011
0.07299803212
0.05974131605
0.03702675544
0.1240363414
0.1069885888
0.04436876677
0.2075321758
0.221023097
0.1745849718
0.1920614401
1.171186734
1.171196835
1.174832112
1.156377759
1.165329075
1.165192171
1.16550394
1.165433149
1.156707999
1.120544297
1.12224249
1.142884792
1.037132009
1.089741052
1.086479358
1.09571436
1.092819259
1.042821464
0.7957094942
0.8115232592
0.9509420814
0.3932660064
0.6109534025
0.5935713842
0.6493248936
0.6293987537
0.4060628687
0.09115128146
0.09315280884
0.2141981371
0.04120224835
0.04563968748
0.04569681598
0.04627444145
0.04564725943
0.04057900671
0.1558537087
0.1523206153
0.06413713755
0.2413567098
0.2432776752
0.2310600144
0.2386840299
1.170904792
1.171010216
1.174933687
1.154582055
1.164587843
1.164323774
1.165022646
1.16482077
1.155102097
1.112579712
1.114744619
1.139092088
1.011982238
1.075651968
1.071703667
1.083041104
1.079430206
1.018623154
0.7334442235
0.7485265673
0.9082417052
0.3554066753
0.5488438534
0.5364711971
0.5773896662
0.5624637711
0.3632554452
0.08536787888
0.08653342914
0.1965482236
0.04385692921
0.04615657227
0.04637890223
0.04580698144
0.04595884855
0.043149185
0.1674839369
0.1648972226
0.07490003029
0.2485509864
0.2501654438
0.2451072832
0.2468735646
1.170263232
1.170456288
1.174733816
1.152026025
1.163344023
1.162955292
1.164028402
1.16370149
1.152736532
1.102743909
1.105390184
1.134102396
0.9824381247
1.058743679
1.053986035
1.067580036
1.063265493
0.9903372901
0.6803106153
0.6923237955
0.8605707923
0.3310412577
0.5060219382
0.4977265045
0.5252863754
0.5151694266
0.3362195686
0.08220850007
0.08279985431
0.1853614362
0.04697901174
0.04717101401
0.04747859051
0.04662051684
0.04688555747
0.04616083239
0.1762496552
0.1742738149
0.085227625
0.2543399852
0.2555336714
0.2516636271
0.2530526353
1.169273434
1.169554522
1.174270412
1.148679174
1.16159344
1.161070921
1.162534539
1.162080676
1.149595853
1.090580584
1.093894552
1.12783604
0.9476272265
1.038109887
1.032236529
1.048977263
1.043689484
0.956704768
0.6407440893
0.6494656009
0.8140529648
0.314770154
0.4769643648
0.4711857473
0.4901711951
0.4832798774
0.3182639975
0.08090184557
0.08108378392
0.1785069313
0.05043517933
0.04850120666
0.04887685277
0.04780195037
0.04814449816
0.04954993705
0.1829902171
0.1814642285
0.09466204982
0.2586183676
0.2594957562
0.2566413777
0.257667939
1.167897043
1.168282382
1.173552511
1.144354902
1.159259795
1.15856509
1.160509489
1.159907818
1.145549468
1.075135626
1.079332328
1.11984169
0.9113508011
1.013112218
1.006395426
1.026086231
1.01969635
0.9202140283
0.6120287249
0.6183897356
0.7752860929
0.3039379844
0.4565324232
0.4524473527
0.4658684824
0.461005103
0.3062574649
0.08098332076
0.08084875397
0.1747915961
0.05407729682
0.05008475635
0.05051804828
0.04926448456
0.04966954852
0.05315742836
0.188183312
0.1870122229
0.1030061623
0.2617225747
0.2623391386
0.2603034982
0.2610449048
1.166016606
1.166543196
1.172542473
1.138635366
1.15613253
1.155192633
1.157813987
1.157004172
1.140217809
1.056583558
1.061425238
1.109444597
0.8789617355
0.9860830427
0.9794447473
0.9996124345
0.9928210639
0.8865454018
0.5908981254
0.5956078323
0.7451979181
0.2972334172
0.4421601238
0.4393029634
0.4487123499
0.4452867258
0.2985952123
0.08219056247
0.08179129026
0.1734958212
0.05780230245
0.05189655917
0.0523869673
0.05096149066
0.05142459874
0.05687044574
0.1921348028
0.1912481356
0.1101534324
0.2638556993
0.2642590673
0.2628983935
0.2634031993
1.163456967
1.164170753
1.171156491
1.131132131
1.151920588
1.150670208
1.154179478
1.153089297
1.133179403
1.036776247
1.041730603
1.096646049
0.852099829
0.9604497338
0.9544931224
0.9729421095
0.9666026872
0.858313807
0.5751833533
0.5786837535
0.7219724049
0.2935564577
0.4322078116
0.4302992272
0.4367103632
0.4343299581
0.2942354456
0.08434401674
0.08372164678
0.1740473753
0.06151649762
0.05391899105
0.0544603198
0.05288335492
0.05339870846
0.06059784279
0.1950327049
0.1943975392
0.1161204552
0.2651926329
0.2654179344
0.2646159499
0.2649263528
1.160064052
1.160993951
1.169288512
1.121943319
1.146436552
1.14488736
1.149344533
1.147918938
1.124373838
1.017547316
1.022235901
1.082381043
0.8301993999
0.9378633807
0.9327300089
0.9487410471
0.9431980318
0.8352641823
0.5635125219
0.5661097103
0.7038817396
0.2922166084
0.4255757672
0.4243501114
0.4285295062
0.4269603295
0.2923621862