/*--------------------------------*- C++ -*----------------------------------*\
| =========                 |                                                 |
| \\      /  F ield         | OpenFOAM: The Open Source CFD Toolbox           |
|  \\    /   O peration     | Version:  v2012                                 |
|   \\  /    A nd           | Website:  www.openfoam.com                      |
|    \\/     M anipulation  |                                                 |
\*---------------------------------------------------------------------------*/
FoamFile
{
    version     2.0;
    format      ascii;
    class       volScalarField;
    location    "0.57";
    object      p;
}
// * * * * * * * * * * * * * * * * * * * * * * * * * * * * * * * * * * * * * //

dimensions      [0 2 -2 0 0 0 0];


internalField   nonuniform List<scalar> 
3259
(
744.9674258
749.0904492
757.628872
769.7615935
797.912175
821.8361081
851.9545672
899.6293306
948.4686699
1001.792069
1060.36705
1159.744104
700.5480304
703.2743328
709.1083507
716.9865289
739.8627088
754.7551735
770.9809883
803.2659882
829.1114519
850.3870855
859.7002796
883.6844061
653.2333677
654.4909142
657.2855757
660.6759292
678.5142492
683.7677571
687.2074057
702.3855072
705.8523756
697.0939272
657.1372509
541.1654334
604.2760388
604.1845252
604.0927135
603.3160524
616.3480639
613.4028201
606.353267
605.6236539
589.5587779
558.1270871
494.0766376
378.4264843
554.8930588
553.6817273
551.1883462
546.9743965
555.4968374
546.0591538
530.9122485
518.2675624
486.013865
439.0413344
367.1508814
263.6190315
506.1613024
504.075664
499.7076393
492.8657517
497.564875
483.4281233
462.7580563
443.4149145
401.0806438
344.9274489
272.0939756
181.7888658
458.92527
456.1996188
450.4580941
441.7575253
443.5224544
426.3673751
402.4908128
379.8070708
336.0770441
278.9904164
208.7195305
132.4458954
413.8067196
410.6635645
404.0235771
394.1571649
393.8366399
375.0668187
349.6691471
326.0629422
283.6655697
231.1978945
169.2201534
103.9347615
371.2296123
367.8660602
360.7517
350.3076417
348.6141973
329.3113403
303.783393
280.5891454
240.8699391
193.6633866
139.9183971
84.06438148
331.4447188
328.0195388
320.7769826
310.2369438
307.6814836
288.6633146
264.0114409
241.9219418
205.5259925
163.5513976
116.8103445
69.20918118
294.5518767
291.1849076
284.0726517
273.796859
270.7920191
252.6010989
229.4932208
208.8625178
175.9883989
138.9200977
98.26244757
57.49494143
260.5319153
257.310206
250.5113138
240.7497334
237.6072122
220.5922247
199.3096061
180.4211976
151.0257275
118.4396165
83.09256302
48.0432594
229.2818847
226.266057
219.9053441
210.8216488
207.7714616
192.1356023
172.8160288
155.779332
129.7091836
101.1728637
70.48165178
40.28770695
200.6427553
197.8720936
192.0294646
183.7227416
180.9246563
166.7658647
149.4422317
134.2730326
111.3240581
86.43659105
59.84782533
33.83389903
174.415876
171.9130514
166.6341174
159.1561894
156.7239149
144.0704389
128.7115957
115.3677822
95.31669089
73.7206993
50.76868102
28.39805338
150.3769407
148.152557
143.458081
136.8278419
134.8401861
123.6761272
110.2138036
98.62391524
81.24877392
62.63200701
42.92709306
23.76832681
128.2893834
126.3459408
122.2399214
116.4544411
114.967926
105.2515287
93.59897135
83.67744945
68.77044087
52.86417486
36.07940981
19.78285721
107.9124189
106.2471633
102.7229113
97.76594165
96.82197511
88.49923592
78.57352411
70.21571968
57.59433503
44.16987962
30.0329581
16.3146981
89.00204804
87.60987648
84.65507709
80.5005973
80.14332016
73.14838885
64.9066697
57.97703987
47.48350554
36.34681191
24.63236078
13.26196723
71.33503806
70.20802846
67.80771716
64.42840516
64.67613289
58.94872993
52.31030149
46.75404528
38.24075723
29.22651729
19.7489608
10.5407304
54.62417257
53.76113627
51.90600683
49.26714763
50.22597233
45.67287706
40.48524511
36.35853488
29.69018183
22.66234298
15.27183879
8.079419223
38.84693034
38.2263877
36.89884714
35.01977647
36.4018897
33.11375461
29.30594922
26.58005507
21.66826936
16.52296957
11.10395166
5.816716446
23.05151177
22.73185622
21.94513333
20.81385815
23.22357596
21.0812119
18.60341244
17.25076125
14.02571846
10.68557082
7.156840935
3.699658875
10.21528775
9.977501295
9.602740509
9.060885326
10.3461315
9.301132381
8.124053751
8.214839957
6.625353035
5.026970403
3.345678731
1.687022272
1174.606868
914.7099705
1107.122581
1169.626899
910.7770144
916.9975645
1142.050394
1053.968745
1111.044282
1234.789636
610.9172093
1242.045668
1248.009834
1045.660425
1101.538423
1036.041293
1108.008992
955.1904837
1240.739186
1116.580612
-297.2234121
1174.053057
1135.046954
1082.903763
1196.135244
1151.040923
1181.57804
1285.632319
1250.811733
1210.195284
1263.933798
1293.35581
1298.270401
1290.029898
1063.611176
1003.196207
964.4885442
986.9751647
491.1095327
192.444172
1188.305034
-285.0853612
148.9840247
-198.6019145
1181.389239
-232.9921573
115.9958259
704.5171545
648.0370629
879.5119604
759.7993811
773.6451962
990.6739213
1139.079158
1122.44254
1093.667491
899.8370512
674.9137507
1327.776915
1258.973829
822.498594
985.2404
938.4529776
1083.3433
1048.258085
1063.249259
159.2211547
1071.632763
447.7652044
720.134571
528.667185
609.43765
1214.022735
1144.602468
1156.718585
1131.563815
1144.68297
1201.687696
1187.582344
1165.100791
1321.729225
1267.49946
1045.447461
1035.180879
996.3771989
636.6965929
545.3687951
1055.807812
273.0898798
426.5173553
325.005934
1204.764616
-440.6321381
-3.014429193
218.2803846
-48.00275706
1144.009219
1217.295453
1195.597044
1210.178422
1257.323193
1244.080815
1224.684857
1253.579108
1261.607925
1254.31786
1097.914082
1233.464809
1240.889207
1246.855856
1122.453782
1271.192347
1251.162763
1263.925447
1315.243536
1297.851066
1278.46498
1302.927202
1312.551218
1306.74182
1282.259064
1286.53832
1294.233198
984.4369099
994.0689407
972.4505462
691.5335808
992.9369261
367.0066932
493.5597609
614.4380473
1195.067814
1198.338143
1193.644507
-350.1631483
-190.9922171
-168.3122059
-184.1164419
1172.348303
1179.682547
1188.964731
-83.10612433
1344.05165
1341.10072
1262.77201
1257.018775
1264.133315
1257.409151
981.3867581
1011.089751
1116.676508
1077.942739
1070.615429
1056.249597
1086.330425
392.6828156
378.2948878
1089.164454
967.222965
739.141263
1215.632026
1230.314123
1224.571034
1133.50012
1317.82646
1306.0043
1337.083477
1329.417079
1272.783408
1278.920576
1274.541948
1282.180906
1276.365039
1296.782714
1289.341761
1039.423956
1020.863241
1025.564751
594.4023401
608.027395
666.6937581
549.5738007
556.9463935
541.1551367
1038.416012
368.9102203
317.6880124
250.8972886
1198.436713
1200.435153
1204.852538
-418.0643602
88.3743293
29.51727879
201.2387203
189.4588389
201.5535126
10.79656425
-123.5737316
-104.1035238
-1.494696946
1157.000017
1171.342619
1163.598731
922.6482827
962.8888574
977.2296177
1022.418574
1038.223131
1088.96495
827.1127103
850.5620355
935.7773016
858.4517206
880.9438872
988.0627129
887.7798215
905.8328249
1045.397953
1012.154533
1017.934732
1096.967675
1117.160235
1141.611049
1186.493018
727.3452852
734.603619
822.7805167
736.2672783
736.5584444
845.9158961
734.3176214
716.1152733
859.1277926
806.610316
801.9264873
875.3900524
841.9014257
831.6088019
906.8879939
629.0519765
621.4181445
705.8179611
617.6615413
600.0105037
701.3055262
591.1056357
550.5876786
671.7008266
531.1551446
451.3096677
585.8438181
412.4563624
538.9461456
518.6199344
594.5067542
510.5432145
479.9380957
568.244479
466.9124121
416.4992334
514.2858942
395.7760229
317.6745568
412.5570651
289.6815283
461.0148994
431.5833507
495.038706
420.1949079
380.8865979
452.7850705
365.7454143
313.522022
387.7196611
292.9530474
224.4281922
291.2102312
198.781022
394.7092172
363.2051946
413.0111912
350.9825916
308.8185082
360.3497621
293.0866074
241.7799842
292.7029981
221.6155987
163.0737309
206.1172412
142.3732999
338.6476037
307.5091876
348.2223385
295.7712031
256.4459257
294.483362
242.0739605
195.2412935
228.466989
177.911506
127.0247713
152.4032007
109.7907127
291.2489741
261.7035581
295.2199118
250.7947144
215.0465575
245.1845004
202.2576492
161.3015785
185.8093599
146.6172039
103.23767
120.3618274
88.41350044
251.0047772
223.6906652
251.5422088
213.76128
181.7680677
206.0605248
170.5021749
134.7559789
154.0698528
122.1049759
85.15042611
98.26891721
72.58361054
216.6435445
191.8202344
215.2024445
182.9016267
154.5328607
174.4581662
144.644774
113.4563639
129.0017932
102.5437012
70.90146873
81.27839671
60.18408623
187.1330316
164.8302489
184.6576811
156.8923483
131.890238
148.4881176
123.226902
96.04146941
108.7812318
86.61773259
59.41576496
67.80326458
50.22858559
161.6106578
141.7522123
158.7267157
134.7386687
112.8036772
126.8188686
105.2290802
81.5697639
92.17760577
73.42956515
49.99145553
56.88835016
42.09139424
139.3761836
121.8342632
136.5019698
115.6779215
96.51529619
108.4940898
89.91356815
69.37191095
78.32873098
62.34604466
42.14194942
47.89702001
35.34224508
119.8664947
104.4903324
117.2771109
99.12125946
82.46204236
92.81127037
76.73344419
58.96178189
66.61795649
52.9114968
35.51991355
40.38266395
29.67413894
102.6204175
89.25360807
100.4996904
84.60459175
70.21159561
79.24500643
65.26982183
49.97383116
56.5935892
44.78595322
29.86891077
34.02465602
24.85983123
87.25621228
75.74774006
85.72763404
71.75766071
59.42558215
67.38908687
55.19671611
42.12888278
47.91471081
37.70942775
24.99304509
28.58373333
20.72627214
73.45116364
63.66451017
72.60448746
60.2799992
49.83338201
56.92505544
46.25451717
35.20713033
40.31949682
31.47845639
20.740159
23.87662775
17.1391603
60.92878833
52.74714378
60.8348646
49.92255736
41.21249662
47.5948817
38.23052153
29.03060844
33.5993514
25.92930966
16.98839586
19.75946101
13.99101838
49.471279
42.78488008
50.1746216
40.47990388
33.37885168
39.18687965
30.94902015
23.45327041
27.5853041
20.92762453
13.63812739
16.11672747
11.19406277
38.88855389
33.59252204
40.42157662
31.77203457
26.17301117
31.52437771
24.25857827
18.35041123
22.13760508
16.35846485
10.60446649
12.85307528
8.673872191
28.97320917
24.99519562
31.39410133
23.6325823
19.45254436
24.4527257
18.02480158
13.61289761
17.13584573
12.12183771
7.814275552
9.886724012
6.366823155
19.54719783
16.83282664
22.91970569
15.90839213
13.08541845
17.83263291
12.12309485
9.140876883
12.47381155
8.127429701
5.203551923
7.147046399
4.21781777
10.45476399
8.962024642
14.84313356
8.460508949
6.945504223
11.53413409
6.432858031
4.840058318
8.053346362
4.292107776
2.718660034
4.572185017
2.182514892
1.782935856
1.446900733
7.023083593
1.337730705
1.001037479
5.429519389
0.8918063626
0.6813988069
3.778875861
0.7064783576
0.5819021658
2.106320806
0.310113163
1200.584679
1241.110615
1213.493229
929.3460845
980.365509
964.8218443
630.6810106
1121.891784
1192.103021
1152.181795
1245.842326
1204.495775
1132.832622
904.8683719
990.3215526
961.3950774
1018.976198
996.7463573
907.5164381
1107.20052
1025.546838
1051.661862
1074.46351
1125.719475
1100.786024
1120.031398
1114.886626
1104.879201
1228.624176
1221.170468
1227.160484
473.9946696
680.594053
719.135712
626.2782394
439.6766929
612.5369138
592.0523137
1248.0206
1241.948136
1235.69116
1304.598057
1321.466221
1227.129025
1254.107568
978.2440114
997.9201688
952.3276855
1094.571755
1083.258819
1090.464435
986.1796683
998.9966789
1056.15937
932.921641
915.797031
1060.369369
1167.903187
1159.322513
1165.111512
1118.361904
1128.240372
1144.985579
1088.738393
1118.419777
1100.959789
1181.58175
1191.547495
1206.142563
1160.970424
1176.421543
1166.524702
1188.123442
1182.880641
1175.686548
1281.02724
1273.810428
1278.127187
1237.446616
1247.139795
1260.64868
1220.103306
1233.653126
1223.921507
1289.060098
1299.477104
1274.004802
1286.963197
1276.694578
1301.091843
1295.600345
1288.340562
1043.603427
1045.451145
1078.686786
1000.400793
1033.673577
1023.270692
445.2216495
490.2136645
528.406765
223.986685
276.1315913
238.4615969
100.0734616
138.9524957
181.1493775
-193.6368377
-31.63418552
689.4937658
744.6080852
754.4355199
725.5744088
733.2484297
671.6181728
875.9231638
782.1710118
763.0358566
750.3854016
790.9381207
800.4146633
853.9890862
776.9542014
717.1130003
916.706792
839.8178775
753.0532575
1133.335404
1124.706662
1130.568763
1112.888034
1118.6273
1127.605076
1099.051887
1109.078915
1103.427984
707.154932
678.3153055
699.4122322
613.9378955
642.8738709
709.873208
1334.559099
1339.278792
1333.402376
957.1780978
970.9991883
693.4521978
975.512877
988.4650832
989.6533605
943.9419178
970.0949377
959.078684
1072.37198
1077.347046
1088.571704
1051.634685
1065.089172
1060.695841
282.4922441
743.0408534
859.305176
811.226483
656.743852
885.4364531
672.2686164
762.7013905
704.7295122
1148.835727
1153.881543
1162.288404
1136.411473
1145.293887
1139.890863
1155.739134
1150.497332
1141.554902
1197.424681
1189.946674
1194.46246
1180.383619
1185.12572
1192.719553
1170.164648
1177.722452
1172.374826
1314.742035
1321.746673
1329.059036
1021.859385
1021.377734
1036.846445
989.7017162
1004.391755
1008.394771
397.9796739
356.9435588
377.7810835
283.333397
321.8191844
363.4979976
13.40366779
67.45014636
43.51365541
1210.522811
1215.61688
1222.907789
1200.424384
1208.142787
1202.737027
1218.99429
1213.445395
1205.404776
1253.478375
1247.533603
1252.375703
1237.93931
1242.613062
1248.987053
1229.860481
1236.387697
1230.942575
1264.74015
1269.239735
1276.256997
1255.564658
1262.330297
1257.497892
1270.774072
1266.739216
1259.985719
1309.231994
1302.604889
1308.470487
1291.87599
1297.003738
1303.514707
1283.279027
1290.242718
1284.804817
408.5299451
452.7676856
413.5387215
520.0257043
488.2178439
449.355241
567.1515859
534.0836527
571.3777478
-143.2748402
981.8159332
979.2581041
975.4241252
1033.206136
1019.96496
999.366369
1348.409186
1120.622582
1071.905931
1034.30291
1004.661817
1112.898149
939.3060314
1039.715637
1029.480319
757.592532
786.1416674
725.8542324
827.265746
838.5335159
853.6103385
870.8601302
890.8459471
910.2551892
770.4948752
778.1438289
809.0410342
788.449822
799.4618243
835.9700799
811.0154197
819.6892669
888.5260918
875.9735863
886.3261969
911.3109029
919.0954571
930.3821623
961.4283383
964.6537388
976.2069374
1015.801077
1146.57545
1153.887293
1168.22875
709.698477
714.1752049
746.9509036
719.4732546
724.6620474
762.9598909
729.1859684
724.4901351
796.7766859
777.935727
783.1351381
809.7609709
798.1129464
802.4570611
835.157104
811.3737839
812.3956701
854.0911217
647.2385511
647.9341285
681.2922368
648.2851947
647.8093601
685.946932
646.1644969
630.8290375
700.8919485
677.6202828
677.7865893
703.7587269
675.9594197
674.0274056
705.3839725
660.7067328
652.7559282
691.0180468
612.483936
591.4063031
638.3955676
490.0932383
472.655787
529.6343879
585.3932051
582.8617949
615.4206992
579.2137174
574.1608882
610.4899929
567.8415488
544.812381
608.6833011
582.725925
578.4490582
602.3731638
562.3266351
555.3218878
583.6920054
526.4759351
513.3434838
546.0093576
459.186224
435.5669166
470.4989271
347.2209934
300.2930675
331.9775924
525.8729247
520.7433638
551.6126282
514.0560934
505.5752136
539.1028001
495.8392179
469.0693361
525.1017205
498.4134134
490.3951359
511.0255668
462.6804698
451.8935425
476.0825044
412.794879
397.028771
423.6688588
340.5256019
316.9936874
343.6902887
239.6662105
203.9730758
223.6654824
469.8230654
462.8776319
491.4910795
454.1564248
443.5008717
473.6923112
431.6737738
403.6283401
451.9267175
426.4902509
417.0700232
434.1873573
383.3351778
370.2211129
388.3600305
325.9019755
309.4581003
328.5278448
253.264295
230.9552464
249.2751173
166.8545975
141.3936102
155.0706465
417.9386625
409.8740432
435.9994016
399.9813123
388.1695332
414.9930458
375.1649152
347.7075354
388.9760661
365.495756
355.7291193
370.0473884
321.9354407
309.1010448
323.0730745
265.9178927
250.1577173
262.8504896
197.864139
177.6552962
187.8080183
123.7353302
101.0166705
108.8627002
370.4873753
361.8750097
385.4862674
351.500905
339.3701151
362.9852354
325.913346
299.9920382
335.2658515
313.9631941
304.4101524
316.4017325
272.1585236
260.2031358
271.4639297
220.9751605
206.937899
216.7128877
161.2600669
144.977892
151.9896105
98.29597385
80.67835244
85.38553904
327.4172712
318.7127324
339.9264806
308.3610413
296.4792211
317.2275863
283.1784517
259.1792662
289.4257476
270.3188569
261.2997604
271.3978562
231.4071478
220.5280016
229.7133486
185.5274403
173.1969275
180.923102
133.6284506
119.9106877
125.632613
79.99260863
65.3219416
68.74041848
288.5425841
280.0672843
299.0549594
270.0762283
258.7958907
277.0322796
246.1650415
224.1478024
250.1572511
233.1565794
224.8407042
233.4038504
197.6514221
187.8913725
195.4872768
156.9400321
146.1328608
152.3812063
111.7988698
100.0667241
104.6178804
66.0282551
53.61490192
56.27571406
253.5519147
245.518607
262.4969533
236.1065556
225.5946575
241.6718539
213.9015693
193.9390613
216.3968142
201.3406254
193.7884216
201.101787
169.359647
160.685112
167.0479128
133.4529953
123.9905028
129.1367222
94.1904656
84.10500279
87.79203367
54.94588321
44.37599544
46.49601167
222.0943526
214.6327042
229.8173152
205.9361798
196.2954763
210.4904207
185.6397435
167.7164907
187.2331921
173.9206081
167.1383472
173.4340472
145.385894
137.7299202
143.122365
113.8519382
105.5818091
109.884435
79.72620431
71.03114588
74.07069269
45.96313279
36.9325163
38.65214096
193.8077735
186.9899871
200.5894567
179.0791772
170.3583005
182.937257
160.7710084
144.8022657
161.8753048
150.1207346
144.0853702
149.5480936
124.8621776
118.1439784
122.7644035
97.27403085
90.06533567
93.71013434
67.65661289
60.15211074
62.69583468
38.56488947
30.83914744
32.25473736
168.3380274
162.196614
174.4040356
155.0970143
147.3037858
158.4966159
138.7740245
124.6459331
139.6789684
129.311743
123.9857738
128.7627874
107.1181683
101.2544749
105.254368
83.08530657
76.82408153
79.94831661
57.44620469
50.9727853
53.12970323
32.38880266
25.78325748
26.96347971
145.3469252
139.8879903
150.8841505
133.5970588
126.7138702
136.7237373
119.2069525
106.791765
120.1202193
110.9859327
106.3253104
110.5354157
91.63291779
86.54521168
90.04192393
70.80927611
65.39696685
68.10464406
48.70286927
43.13374325
44.98386423
27.17211837
21.5382178
22.533521
124.5163139
119.7294406
129.6788479
114.2276881
108.2222476
117.2256959
101.6910639
90.85944039
102.7636241
94.72413377
90.68324996
94.42374655
77.99237291
73.61043255
76.69647621
60.07680389
55.42905106
57.80032721
41.13030038
36.36328259
37.9680873
22.71704895
17.93436213
18.78282738
105.5507104
101.4161553
110.4691595
96.67558013
91.50985853
99.66095903
85.90317557
76.52355343
87.24565747
80.17738261
76.7123545
80.06474007
65.86437214
62.12721148
64.87729339
50.59852936
46.64374965
48.74222422
34.49928902
30.45074923
31.85816994
18.87166435
14.84227861
15.57326785
88.17694626
84.66881627
92.96337125
80.65701735
76.29479181
83.73099584
71.58864011
63.50317556
73.24840698
67.04388614
64.11686176
67.15067302
54.97476331
51.8304849
54.30624374
42.13931891
38.81728993
40.69474662
28.62754114
25.22988669
26.47814746
15.51603231
12.16029054
12.79714654
72.13785226
69.22839463
76.89417842
65.91223252
62.30377844
69.16184799
58.49178822
51.58640856
60.50130181
55.07937217
52.65534162
55.42516053
45.09857367
42.50264371
44.7543361
34.50690253
31.76704782
33.46566802
23.36761619
20.56632748
21.68648249
12.55357124
9.806569418
10.36814965
57.20604961
54.8558772
62.00978194
52.20246437
49.29456725
55.68918389
46.32111697
40.58257093
48.80564331
44.08249943
42.12727794
44.68116976
36.04485693
33.95873739
36.03046696
27.53871499
25.33923407
26.89541567
18.59559238
16.34652631
17.36546775
9.90360663
7.713082105
8.215355771
43.08669848
41.3013468
48.07675169
39.30858134
37.08047495
43.09573726
34.82095559
30.24637301
37.98467789
33.85968896
32.34344669
34.73039137
27.64125107
26.03345479
27.96527408
21.09259752
19.39999458
20.84572335
14.20443286
12.47216744
13.41323871
7.497345297
5.822251007
6.278761636
29.65396204
28.43349648
34.86427958
27.04512925
25.48545228
31.21774697
23.9121359
20.41705807
27.78663625
24.20925034
23.11323876
25.37731733
19.72764001
18.57482585
20.40356685
15.04001222
13.82885877
15.19343334
10.09975512
8.857016714
9.740865866
5.275693389
4.084952434
4.507296122
16.82319785
16.01339764
22.24401648
15.22624823
14.32636153
19.84608552
13.4083747
10.93636381
18.05558323
14.96705163
14.27675675
16.45678265
12.15816378
11.4425434
13.20226249
9.259369215
8.511715396
9.823365477
6.194768763
5.423525794
6.268753956
3.187995143
2.459742518
2.857395579
5.006710948
4.60073815
9.837266513
4.267584334
3.963052939
8.728382309
3.642817844
1.891368805
8.635304889
5.982440524
5.691129587
7.817549633
4.804846289
4.510494683
6.227510924
3.627903596
3.331486109
4.619154724
2.419740041
2.118198847
2.918961828
1.205555495
0.9188109432
1.297706578
1182.213159
1195.887266
1187.190614
916.5744371
937.4272745
932.7951816
1196.071381
1182.52124
1156.615068
950.8484108
945.3682713
913.6283322
1129.699144
1101.737375
1113.235183
1059.356267
1076.151448
1069.095359
1251.869319
1259.870577
1020.424747
1024.736947
1042.191197
65.77335459
878.1011967
841.5227395
840.8099794
918.8038184
888.9160617
910.3508307
843.6407837
853.7808028
899.2045557
204.2255652
577.9254958
551.1736356
579.8215692
935.5557887
959.5853204
945.3565623
989.6836927
974.3579969
948.9458568
991.9366427
1021.856015
1005.523292
1055.940221
1038.660001
1006.995728
1054.484195
1092.09531
1073.729544
1131.05684
1111.144855
1071.353798
834.8085641
860.4579371
851.4443086
879.1123529
869.6818525
842.6392923
923.383055
896.9771977
907.9280953
866.20481
898.1753515
888.6476237
916.9768185
907.6397854
873.7326167
974.6321501
941.7623281
953.1922834
894.1602645
935.1873745
926.1694839
953.3369717
944.159516
900.1495906
1030.273903
988.0239574
1000.410122
1124.022972
1139.14454
1130.972809
1157.013084
1147.856134
1132.583501
1177.163893
1162.734972
1171.990739
729.9570291
756.3715124
752.5048982
763.7527397
760.1673769
732.4206177
816.2841913
788.3037398
793.347817
737.3990415
769.6273735
766.9547012
772.5783899
771.5215039
737.3713756
840.7995665
806.2205079
809.261772
730.3834067
770.843711
772.3739074
762.4281825
767.6097559
724.4271719
857.0162442
812.1638708
810.5143499
901.2780157
879.7443659
883.376114
626.9351186
652.0878864
653.0607054
648.979058
650.7838431
624.4574854
704.9066145
677.5085305
677.0364432
613.0071776
643.1670728
646.5121133
632.8528468
638.696955
607.2101357
703.9801112
671.0237652
666.6779034
580.1555264
615.7585964
625.3265638
588.8980849
603.7498747
566.7813883
682.6869338
642.4123949
629.2636767
508.0481242
548.2166033
570.5492713
493.4386009
522.5545715
481.1745953
616.0235324
567.0118392
536.8847263
367.9280174
413.6002833
450.180076
357.6820502
319.5416241
443.7651802
401.2403309
532.6663043
555.1883733
560.4896704
543.1078263
549.4510782
525.9411161
598.7280713
573.7240872
568.4031099
501.5329976
527.9661444
536.0054745
508.2597834
518.7907482
491.3999554
576.6719699
547.1745438
537.6485211
452.1040536
482.0433649
496.0994558
447.2770772
465.8275633
435.3177104
531.5307193
497.8870322
479.8569755
372.3698856
402.9316237
426.4224492
346.5500421
375.3231576
344.9192591
442.9103399
407.8479741
377.9282248
245.9772698
271.5091571
317.6464124
237.0255197
215.2718495
287.9484279
260.9634857
452.0818048
470.7826591
479.360398
451.4370843
461.4364191
442.2441627
503.3272164
481.7969348
472.5995289
408.0177113
429.1931931
440.7290228
403.1317571
416.7029162
394.9483948
465.0681078
440.0869849
427.1048166
349.4713806
372.3012684
388.361972
336.2789541
354.9333018
332.0877859
406.5563842
379.7464233
360.996772
269.707993
292.3154837
315.7868478
244.6706961
267.5877819
246.3415446
316.7821742
291.0149592
266.9233992
170.0133225
186.2400743
218.0219934
158.1095966
141.4477717
195.0842731
176.0528461
385.0276549
400.6888807
410.2790394
378.9567483
390.2704269
374.5392593
424.0700902
406.7665678
395.5320864
337.8408887
353.4921497
366.7045465
324.3699755
339.3441789
323.774656
374.8080498
356.2809833
341.5163625
276.7312456
292.2179236
308.6392529
256.8622335
275.1220144
259.8078581
311.1926344
292.220743
273.8213429
200.2705723
214.6316931
236.4436297
175.4663273
194.4671061
180.9587895
227.1440249
209.8653592
189.7898199
118.2166215
129.0776038
153.7784175
101.4980152
91.82779559
126.3432204
112.998285
328.9353775
342.0328978
351.8042144
320.414227
331.5808458
318.5588279
359.5349539
345.2283857
333.972208
283.3390554
295.8704411
308.5140868
268.3906044
282.487034
270.2207798
309.2003825
295.4655553
281.0511609
227.1517839
238.2937211
253.6400281
205.5763222
222.3105168
211.5841403
246.1520864
233.8144317
216.6850054
159.6495559
168.4267847
187.5963203
134.6152835
150.7030779
142.5083035
169.2485362
159.4520417
143.1219853
90.02563807
94.69729682
115.9909362
72.95508239
69.29237563
83.9105846
77.66064392
281.9338199
292.9278075
302.3880919
272.3498693
282.9202825
272.082883
306.128482
294.2593128
283.5112573
239.364823
249.5161773
261.2132453
224.534125
237.2771704
227.4352198
258.6264057
247.6601725
234.5641615
189.0971783
197.7542891
211.3470701
168.9791079
183.6743571
175.4861334
201.6287894
192.3634624
177.1209226
131.7355104
138.2184273
153.7412492
108.569295
123.1533194
117.3034421
135.5522474
129.246444
114.2723327
72.38090939
76.31954105
93.11840973
58.73035757
55.64563803
65.7146856
62.11078075
242.3239697
251.6144509
260.4867637
232.560947
242.3078357
233.2140122
261.7189139
251.8013895
241.8359841
203.4424519
211.780773
222.3801964
189.452544
200.7898427
192.7628828
218.0959911
209.2240491
197.5394628
158.9572885
165.8862842
177.8179962
140.8329869
153.5841627
147.0630531
167.7621916
160.4724098
147.259107
109.4309856
114.5223211
127.7031758
89.25867508
101.7969947
97.21572412
111.8018962
106.6481507
93.62240759
59.10200278
62.11180115
76.17142402
47.58923785
45.2285125
52.78888357
50.10731042
208.7060585
216.6119115
224.7558657
199.2866798
208.1225952
200.4258906
224.4983304
216.1408695
207.0743525
173.6912984
180.632854
190.1165707
160.8627747
170.8674546
164.2217026
185.1162863
177.8253295
167.4974272
134.5306068
140.189638
150.6449376
118.3722935
129.440891
124.1403874
140.8811517
135.0143289
123.547464
91.67146633
95.75763662
107.0499373
74.17057093
84.9259607
81.25702642
92.88763644
88.79707153
77.62428489
48.7359537
51.10546444
63.02447867
38.96076646
37.10482995
43.01246977
40.92697175
179.9673389
186.7460639
194.1193957
171.1772875
179.098231
172.5270164
193.0335493
185.929649
177.7820225
148.7366583
154.5859367
162.9987734
137.1824491
145.9704801
140.3938622
157.8687987
151.7907943
142.7104008
114.378214
119.0754947
128.226522
100.0878903
109.6965106
105.3160486
119.0940779
114.2847734
104.3302152
77.25580102
80.59673511
90.31297054
62.07095722
71.32295154
68.32898761
77.77552462
74.46831467
64.86360584
40.46144725
42.36693543
52.5265931
32.12030667
30.63055946
35.35105633
33.69188678
155.2058717
161.0645592
167.6701882
147.1993185
154.2396413
148.5801396
166.2016547
160.1098514
152.8536653
127.5620678
132.5469794
139.9606823
117.2872474
124.9838785
120.2460652
135.0458941
129.9133495
121.9552553
97.50495695
101.4588676
109.452051
84.95204191
93.29010222
89.61624173
101.1292785
97.12430459
88.48470019
65.35193163
68.12773865
76.50825179
52.18365957
60.15597017
57.67294437
65.47586172
62.75435916
54.48024998
33.73902982
35.29662577
43.98126504
26.59803423
25.3839601
29.21689581
27.87426784
133.7007913
138.8048309
144.6705392
126.5523698
132.7635853
127.8472779
143.1207018
137.8516668
131.4384159
109.39723
113.6913552
120.1882282
100.3588308
107.0792995
103.0078962
115.6891936
111.3033655
104.3488212
83.19190855
86.56206292
93.52379693
72.2374003
79.46414316
76.34231176
86.09303934
82.71172768
75.22054251
55.37490088
57.71396806
64.94707947
43.97773605
50.84692712
48.75863104
55.29808311
53.02479321
45.89431287
28.1972217
29.48800356
36.91797014
22.0771363
21.07547563
24.22812555
23.12696014
114.8789054
119.3591035
124.5247597
108.6123627
114.0528882
109.747643
123.0954799
118.4998537
112.8722114
93.65491503
97.39029021
103.0529178
85.79132101
91.6355114
88.10110874
99.08202082
95.29358215
89.23890191
70.90813621
73.81273366
79.85302899
61.41848249
67.66585618
64.98236595
73.33984713
70.44974639
63.96874363
46.90432961
48.89919891
55.13577852
37.07559111
42.98329693
41.20617242
46.75520089
44.83157577
38.69523562
23.5710827
24.65342737
31.00334881
18.33310652
17.49818796
20.11937567
19.20606782
98.27533077
102.2395888
106.7501431
92.88715098
97.61660068
93.81443042
105.5773248
101.5356847
96.63389005
79.87797608
83.15905477
88.06410035
73.12502073
78.17895616
75.07997865
84.68410651
81.37856943
76.13445784
60.24950453
62.78015896
67.9939671
52.10390203
57.48204738
55.14962168
62.39388565
59.8953312
54.30910049
39.62944348
41.3501398
46.70993009
31.20218498
36.26378178
34.73442209
39.49629821
37.84998689
32.58645396
19.66506689
20.58280617
25.99358158
15.20102064
14.49822107
16.69918486
15.93408498
83.508506
87.04557036
90.94659678
78.97970446
83.05491473
79.66776251
90.12313692
86.53849535
82.30473337
67.70516297
70.61480262
74.83019741
62.00046427
66.33803146
63.59431556
72.0763109
69.16394592
64.65360647
50.90366402
53.13141544
57.59968381
43.99575297
48.59606507
46.54718037
52.89353948
50.71034254
45.92326592
33.3110438
34.81187128
39.39209408
26.14823462
30.45774871
29.12717069
33.25868802
31.83408727
27.34437814
16.33124854
17.1177426
21.7036991
12.55538644
11.95815193
13.82396653
13.1768696
70.25936744
73.44445848
76.77890905
66.5668628
70.0391626
66.99331654
76.3722688
73.16419573
69.5455228
56.84525136
59.45107985
63.0354897
52.13240345
55.81664206
53.36299551
60.92871392
58.33738248
54.4951755
42.62298526
44.60501596
48.39637896
36.86136099
40.75991507
38.94056123
44.56028611
42.63220339
38.56459744
27.76293082
29.08642299
32.9664568
21.75206744
25.38673908
24.21658386
27.83994923
26.59385879
22.7969569
13.45555682
14.13683364
17.99096831
10.29931443
9.786784941
11.3838641
10.83130789
58.25749624
61.15274955
63.9567152
55.3792618
58.29271045
55.52731283
64.02263868
61.12340164
58.07397564
47.05765388
49.41540386
52.4186572
43.28718295
46.37158334
44.1543265
50.97306993
48.64342658
45.41361873
35.20534386
36.98840956
40.16050873
30.51326769
33.77298208
32.13910869
37.17137529
35.44953942
32.03538108