/*--------------------------------*- C++ -*----------------------------------*\
| =========                 |                                                 |
| \\      /  F ield         | OpenFOAM: The Open Source CFD Toolbox           |
|  \\    /   O peration     | Version:  v2012                                 |
|   \\  /    A nd           | Website:  www.openfoam.com                      |
|    \\/     M anipulation  |                                                 |
\*---------------------------------------------------------------------------*/
FoamFile
{
    version     2.0;
    format      ascii;
    class       volScalarField;
    location    "1.16";
    object      nut;
}
// * * * * * * * * * * * * * * * * * * * * * * * * * * * * * * * * * * * * * //

dimensions      [0 2 -1 0 0 0 0];


internalField   nonuniform List<scalar> 
3259
(
1.148093842
1.147838637
1.148269963
1.149996879
1.152443636
1.158394256
1.111255109
0.9105377066
0.7161349811
0.5774827842
0.4830987947
0.4071355442
1.14805275
1.14783961
1.148436007
1.150461825
1.153421539
1.159950836
1.162599388
0.960208444
0.7829721951
0.64033226
0.5272709094
0.2782464667
1.148069945
1.147891942
1.148644072
1.150980314
1.154336023
1.161348796
1.167755126
1.043879771
0.8842051809
0.7500354719
0.635682377
0.09590034644
1.148208847
1.148065618
1.148951973
1.151557264
1.155248591
1.162605316
1.168760437
1.163966756
1.033002528
0.9331176832
0.8048016872
0.05501668851
1.14832431
1.148202266
1.149199217
1.152069361
1.156094798
1.163630549
1.169390934
1.163421813
1.131813509
1.039639628
0.7031026009
0.03309983986
1.148507945
1.148405788
1.149486473
1.152556753
1.1568189
1.164404741
1.169504514
1.162277064
1.124522458
1.004346507
0.526804099
0.02921474619
1.148603645
1.14850916
1.14964866
1.152903815
1.157392014
1.164905142
1.169279402
1.160469383
1.117516941
0.9660196662
0.3677726057
0.03376612731
1.148746062
1.148664181
1.149842514
1.153206273
1.157800157
1.165137964
1.168621711
1.158082134
1.109425066
0.928870815
0.303818753
0.03880787036
1.14876279
1.14868818
1.149891402
1.153353266
1.158050938
1.16512128
1.167611796
1.155196209
1.100075548
0.8827864688
0.2619154215
0.04487557913
1.148831205
1.14877593
1.149999705
1.153492585
1.158162335
1.164889444
1.166306727
1.151882975
1.089347964
0.8274870895
0.2308866927
0.05278042444
1.148750701
1.148713436
1.149956028
1.153491589
1.158163717
1.164480711
1.16475819
1.148185864
1.076586438
0.772442341
0.2064651774
0.06231960116
1.148742959
1.148737677
1.150004563
1.15353046
1.158075515
1.16393043
1.163009401
1.14409165
1.060719154
0.7241165471
0.1872213743
0.07296636068
1.148569655
1.148593529
1.149885384
1.153429552
1.157920918
1.16326922
1.161096787
1.139531192
1.041399789
0.6824245183
0.1720209471
0.08442438669
1.148499074
1.148565394
1.149891787
1.153409564
1.157710427
1.162526467
1.159057004
1.13439887
1.01961446
0.6462163212
0.1599182674
0.09620206469
1.148250965
1.148353372
1.149711488
1.153237768
1.157465287
1.161733067
1.156921862
1.128582195
0.9967423996
0.6144690953
0.1501856649
0.1079497154
1.148136846
1.148289573
1.149694851
1.15319513
1.157194406
1.160920188
1.154707656
1.12199899
0.9737681825
0.5864400388
0.1417932936
0.1194069589
1.147843715
1.148036602
1.149480153
1.152987813
1.156922787
1.160113468
1.152399773
1.114615323
0.9511573582
0.5613665629
0.1346224852
0.1304482068
1.147704893
1.147956041
1.149463549
1.152964292
1.156656475
1.159328033
1.149948453
1.106413683
0.9289819434
0.5385574366
0.1283758506
0.1410651504
1.147411342
1.147705635
1.149259243
1.152770392
1.156420411
1.158565845
1.147272682
1.097361718
0.907083042
0.5172995133
0.1227800028
0.1513613824
1.14725701
1.147619157
1.149257653
1.152798304
1.156212815
1.15781864
1.144277685
1.087391666
0.8851476541
0.4968285767
0.1175261983
0.1617142292
1.147025608
1.147432631
1.149126107
1.152679595
1.156054341
1.157071859
1.140888727
1.076444758
0.8628300015
0.4763900886
0.1124496991
0.1724085831
1.146843679
1.147329552
1.14912963
1.152752233
1.155935998
1.156314747
1.137068362
1.064619974
0.8401914311
0.4560319258
0.1079340559
0.1834042812
1.146743453
1.147274205
1.149137432
1.15278992
1.155875777
1.155548325
1.132942945
1.052270336
0.8179614595
0.4368011423
0.1041307654
0.1942148791
1.14660359
1.147242563
1.149260821
1.153022436
1.155885884
1.154807278
1.128746664
1.040024204
0.7974724092
0.4201434033
0.1016301241
0.2041184414
0.4114075252
0.3220001013
0.4750976281
0.4412564892
0.5129969412
0.3939938499
0.4342844359
0.3762971671
0.03029396723
0.04986328159
0.2755898745
0.05082769685
0.03194634261
0.004717173676
0.02999138656
0.3716967591
0.01883105663
0.01115962574
0.03159720934
0.01916099178
0.01296733797
0.04498337734
0.1871740803
0.1748673909
0.2041518348
0.192157253
0.04533108005
0.06672964113
0.2209756961
0.2085172508
0.2251037367
0.06802539902
0.04866558113
0.04766529117
0.1700565299
0.1611081758
0.02407964473
0.01208567576
0.01887107833
0.01372812071
0.03016242696
0.01253971778
0.01343462817
0.012956932
0.03019800613
0.0131460399
0.0159890299
0.5970740398
0.3735589039
0.3839681412
0.2523903707
0.008714810947
0.005321493209
0.03331669426
0.09576822157
0.09062670568
0.01202967187
0.01703559162
0.05080200663
0.03895716462
0.004382456622
0.1241208132
0.1074210364
0.08887493924
0.08471351409
0.02964577198
0.01699069304
0.01859465358
0.0118767741
0.01792956445
0.02168587503
0.002828579408
0.03113003032
0.02020526319
0.1040241678
0.09759531883
0.03712607263
0.0474734903
0.1110956034
0.1057747547
0.05015873362
0.043789869
0.02855433571
0.08215916694
0.07393187567
0.01343772579
0.01277991889
0.01781387743
0.01227846725
0.0137804232
0.01546427755
0.03101957923
0.009013471157
0.01337377222
0.01214885775
0.01339383331
0.02103840723
0.1181643291
0.1127854248
0.04795687315
0.05839843214
0.1262131438
0.1200340706
0.01996087222
0.02025549424
0.03278939676
0.01877916248
0.03138903243
0.01951853379
0.01969487623
0.01918584427
0.1341983514
0.1282730086
0.06157936925
0.07093350916
0.141272718
0.1359627064
0.03210792619
0.03216742429
0.04901677793
0.04735114436
0.03171342557
0.03166662286
0.02278357227
0.03620742025
0.03564408193
0.008776669503
0.01451570319
0.01678924118
0.01391837371
0.01340570782
0.0185965715
0.01883934572
0.0306136617
0.01269703353
0.009251625124
0.01254852182
0.01292867938
0.02863046795
0.01809443412
0.01868112332
0.01341563111
0.0202303642
0.02003431959
0.01577272833
0.03486315955
0.02085015409
0.0217685754
0.04249458184
0.02954536079
0.002985466461
0.0296483575
0.0452850236
0.04494327071
0.01856405181
0.01182450861
0.008692548881
0.003484068759
0.01339847166
0.01371229813
0.01927881146
0.01944646871
0.03131919804
0.01960923932
0.0195743952
0.01952883776
0.01982858969
0.0197631713
0.03004095546
0.03001990615
0.04537008632
0.01876257569
0.01979714342
0.01929467297
0.01936085829
0.04334669876
0.04279773857
0.028348849
0.01361808767
0.01113010851
0.01086108844
0.008290995215
0.01136955207
0.01295773136
0.01838228171
0.01293962805
0.01400308378
0.01369786249
0.03073237165
0.01895380477
0.01915736212
0.0124133373
0.01239258994
0.01245551181
0.01320693352
0.01302023347
0.008872056659
0.009120858993
0.01332297959
0.0125255607
0.01298250294
0.01537440531
0.01895983088
0.0286543411
0.8980379974
0.7466883494
0.7031752629
0.5952730698
0.5656947817
0.4934885628
0.9417931412
0.8031789406
0.7591749264
0.7616406391
0.6517629858
0.607710592
0.619394228
0.5305167156
0.4995031652
0.4905193267
0.4624116343
0.4679227179
0.3937874456
0.2427733539
0.2555874167
1.017656951
0.8913098762
0.8237608425
0.8527394694
0.7457591893
0.6734930431
0.7142185824
0.6272265192
0.5492101757
0.5427782523
0.5101603825
0.4924291932
0.2734853153
0.1368099401
0.1539857331
1.14073655
1.024145667
0.9209025272
0.9910184882
0.904744774
0.7791219367
0.880354434
0.8223609779
0.6657675437
0.8172384507
0.2486009373
0.3463575515
0.0626417969
1.163622292
1.144361769
1.064143422
1.133409823
1.077510112
0.9547583718
1.046380129
0.8599673446
0.9021367616
0.7368723865
0.13689172
0.2193506453
0.03766420364
1.162627974
1.139669059
1.14328182
1.126366941
1.055709842
1.072863639
1.014205637
0.751563133
0.8378772749
0.5771370477
0.06293500677
0.118534
0.02891218127
1.160966499
1.134871237
1.13850131
1.119382934
1.030643578
1.049229682
0.9744989484
0.6002851411
0.7143968378
0.3983875892
0.03898334795
0.05275505218
0.03235915972
1.158728412
1.129189177
1.133515537
1.111568145
1.007270763
1.025172072
0.938818062
0.4992673593
0.5668087645
0.3167846518
0.03745688275
0.03779783643
0.03753255441
1.155960008
1.122612811
1.127626949
1.102531692
0.9793741357
1.000781609
0.8953640647
0.4322624555
0.480331535
0.2711306799
0.03809499223
0.03755887134
0.04321355073
1.152747684
1.115150165
1.120830873
1.092182439
0.9443479352
0.9714171066
0.8417230668
0.383056572
0.4186207288
0.2379243861
0.0391649104
0.03831384765
0.0506345068
1.149145129
1.106639761
1.113133636
1.080026653
0.9012368664
0.9341976261
0.7856588485
0.3446445393
0.372620118
0.2120407631
0.04085351876
0.03952524557
0.05981070542
1.145154681
1.096572788
1.104295566
1.065021472
0.8557890263
0.8898075344
0.7355338569
0.3138545573
0.3363022203
0.1916164255
0.04328703285
0.04138526799
0.07021524776
1.140719591
1.084280528
1.093727901
1.0465148
0.8132665837
0.8447753756
0.6922857323
0.2888651625
0.3071120866
0.1754750637
0.04650937447
0.04402535178
0.08151072602
1.135741033
1.06956572
1.080819205
1.025212957
0.7751521594
0.8033234085
0.6548171892
0.2684991289
0.2833903986
0.162694848
0.05052344531
0.0474291785
0.09325439827
1.130105065
1.05290634
1.065553346
1.002498113
0.7410640587
0.7662716598
0.6220270816
0.2516765465
0.2639905674
0.1524519854
0.05551770234
0.05167113205
0.1050359981
1.123718572
1.035055131
1.048526555
0.9794877152
0.7104642739
0.7331063115
0.5931435472
0.2376309163
0.2479399258
0.1437841173
0.06155619438
0.05693222429
0.1165759752
1.116536315
1.016606857
1.030480446
0.9567665068
0.6827561315
0.703285615
0.567393506
0.2254751337
0.2344240735
0.1363158121
0.06858992284
0.06322537056
0.1277376036
1.10854093
0.9978764612
1.011943496
0.9344915721
0.6573447392
0.6762101195
0.544086666
0.2148040985
0.2226749137
0.1298735443
0.0765659923
0.07049851708
0.138456754
1.099706143
0.9789304258
0.9931597404
0.912544473
0.6335740155
0.6512705787
0.5225028113
0.2051629284
0.2123109205
0.124121956
0.08542536477
0.07869699188
0.1488021816
1.089973535
0.9596379175
0.9741482549
0.8906583601
0.6107542922
0.6278088236
0.50192473
0.1960849965
0.2028707505
0.1187964942
0.09520712593
0.08777582943
0.1591106118
1.079270085
0.9397318515
0.9547261293
0.8684522791
0.5880838188
0.6050913107
0.481509261
0.1870372612
0.1938402734
0.1136195044
0.1059515734
0.0977894368
0.1697175394
1.067642202
0.919205219
0.9346446775
0.8458514479
0.5653558453
0.5823907591
0.4610553172
0.1780456072
0.1847964471
0.1089593051
0.1174723996
0.1087374134
0.1806977614
1.055374735
0.898580917
0.9140244045
0.8234079723
0.5433352001
0.5597375567
0.4413923989
0.1698195674
0.1759855053
0.1049312129
0.1291920498
0.1203167781
0.1917062908
1.042973302
0.8787908754
0.8935291958
0.8021520466
0.5232775853
0.53812882
0.4237225746
0.1623571236
0.1679655715
0.1020383943
0.1403744544
0.1318262734
0.2021486171
1.030319254
0.859788052
0.8743368681
0.7821367909
0.5055675059
0.5191443228
0.4084849692
0.1566216189
0.1611495016
0.1004829348
0.1509720901
0.1424462207
0.2119565176
0.2600499136
0.2730052114
0.4243792966
0.158930486
0.1728130686
0.3281598785
0.02958821888
0.4612065876
0.4791216009
0.4673953081
0.4600085008
0.466025475
0.4560886325
0.4775653506
0.4738399294
0.4999767364
0.4160438699
0.4565905126
0.4652048792
0.4559853906
0.4544139173
0.4180262962
0.2255412532
0.2380444501
0.3894365925
0.0305111097
0.04822419884
0.04739654529
0.07153241347
0.07026129107
0.04912891379
0.009959623389
0.009546566446
0.237262927
0.01823512285
0.01847533795
0.0330638362
0.04025806548
0.05237966887
0.07479721373
0.07294849267
0.1428556737
0.07204365106
0.4283536856
0.2772730325
0.00327663337
0.02757920917
0.01538161162
0.04655989622
0.04610968182
0.02992359304
0.3589692352
0.2079191176
0.2200922406
0.01585325066
0.01459995548
0.004968885216
0.06249575647
0.06068894285
0.04313364378
0.1839553044
0.1361183693
0.1386866128
0.116297995
0.1261786307
0.1785106534
0.2002996955
0.1512019292
0.1547435472
0.1437233416
0.146887016
0.1957485052
0.0463357906
0.06492235038
0.06360717775
0.0881268892
0.0865659871
0.06568232582
0.2168393812
0.1669312356
0.1707969838
0.1588706325
0.1627888007
0.2125855486
0.2333714369
0.181995188
0.1745923181
0.1782994357
0.229224172
0.06888952967
0.0910638147
0.0896737595
0.1677301298
0.1077903127
0.1136999338
0.09607820902
0.1048375496
0.1606819024
0.01883890188
0.01439292395
0.01457338185
0.01346433734
0.01327811212
0.01411336715
0.01317589842
0.01380022769
0.01358632007
0.01335418544
0.01386750588
0.5685393268
0.5345762428
0.5663413627
0.3492393685
0.4979908638
0.5274874718
0.4656982123
0.4901072001
0.3572088953
0.128625599
0.1518320353
0.263958494
0.008415434255
0.03840174633
0.03114629158
0.1008627089
0.1160176884
0.006867952796
0.05217887861
0.04981631376
0.03139485316
0.0939770275
0.07106364581
0.07323584563
0.0679335946
0.06916876945
0.09210688124
0.01403007819
0.02700107954
0.02015524585
0.02834579596
0.02527929929
0.01721090086
0.03270277344
0.03286244829
0.05139180841
0.009995969161
0.006937550227
0.002813069711
0.1176704361
0.06275602162
0.06895783377
0.05489068511
0.0605946547
0.1119961953
0.08762069293
0.0656672948
0.06652957849
0.06351868339
0.064270382
0.08575104427
0.02017873824
0.01568954357
0.01386863618
0.01494884576
0.01386793027
0.01320210389
0.01534371923
0.006207683092
0.008115808774
0.1019571688
0.08058896782
0.08241983189
0.07589872271
0.07830444358
0.09996816773
0.04157482818
0.05848636712
0.05553347881
0.06706081953
0.0658741668
0.04673951016
0.1092512855
0.08703401816
0.0885560138
0.08402158999
0.08558044333
0.107599751
0.04970642775
0.03241406902
0.03248595404
0.08132026277
0.06056449184
0.06149086016
0.05268630684
0.05389034762
0.07369852705
0.01376025178
0.01375929819
0.01324117355
0.01453052159
0.01333683728
0.01349169773
0.01313466824
0.01349827096
0.01330483626
0.1163056642
0.09303554783
0.0946565686
0.09001004738
0.09153746089
0.1145876605
0.04858935046
0.06919780121
0.06805166689
0.0798491689
0.07713165205
0.05490509375
0.1240646984
0.1004800053
0.1028009041
0.09637775757
0.0983096433
0.1220065224
0.1322487657
0.1092104281
0.111073037
0.1050701839
0.107245957
0.1303675016
0.06377845216
0.084674453
0.08240212969
0.09393376055
0.09254493537
0.07001939417
0.1395227682
0.1165783757
0.1184909013
0.1128941436
0.1147137049
0.1378260233
0.01365139926
0.01381001991
0.01755628917
0.01394567444
0.01368645681
0.01360154359
0.01398748704
0.0135901068
0.01426158803
0.01338719928
0.0320210484
0.01562324126
0.02231017158
0.01456639346
0.01532498493
0.03037233466
0.002041884043
0.006830586775
0.006598691035
0.01021543862
0.008099461166
0.003218700833
0.01240161978
0.009516709202
0.01041432898
0.01087953465
0.01023974235
0.01233341446
1.15213322
1.154426248
1.157465636
1.16123111
1.108259635
0.9522898543
1.15299382
1.155707819
1.155016465
1.159225503
1.162949921
1.16192702
1.132924972
0.9980148269
0.9783157418
0.9180714828
0.8667073283
0.8546621005
0.7301181036
0.6911576258
0.677238017
0.5901346221
0.5613882943
0.5496821918
0.4025942203
0.3543559464
0.3588797116
1.153891525
1.156930029
1.15632388
1.16065858
1.16451711
1.163765805
1.167128516
1.057158492
1.026140594
0.971598367
0.927502435
0.9129282846
0.7998803643
0.761709543
0.7443959535
0.6582465889
0.6271691741
0.6093958244
1.154815806
1.15809616
1.157520036
1.161986348
1.165845707
1.165226347
1.168289325
1.16657619
1.100663426
1.070206013
1.030338256
1.000685949
0.9163326397
0.8798886283
0.8477992684
0.7891499867
0.7622202641
0.7220869524
0.6833518069
0.6712517265
0.6156446852
0.08029958029
0.01558815199
0.01503957299
1.15570375
1.159170696
1.158638454
1.163153146
1.166871467
1.166436969
1.169096646
1.16668767
1.166659319
1.16390194
1.159711646
1.138004447
1.080678242
1.0551696
1.004901245
0.9949766689
0.9853069422
0.9137515243
0.7851185388
0.6290903303
0.6587775123
0.04871201516
0.01788213285
0.01709594486
1.156491447
1.160072402
1.159629274
1.164056692
1.16764285
1.167288532
1.169459197
1.166220665
1.166628416
1.16319789
1.158217945
1.158658357
1.130073925
1.114466424
1.11698802
1.032035745
0.9829573052
0.994132179
0.6676286048
0.4673294795
0.513896404
0.0303119007
0.02379432407
0.02168604407
1.157139836
1.160775142
1.160435259
1.164692428
1.168026467
1.167872763
1.169461669
1.165132705
1.166006228
1.16188569
1.156172256
1.156750321
1.122818106
1.103452791
1.106163446
0.9942296729
0.9250590695
0.9410250355
0.4792610767
0.2787377653
0.3173267402
0.0299756476
0.04050638211
0.03470039656
1.157626202
1.161267149
1.161034781
1.165057532
1.168088495
1.168097384
1.168998369
1.163522579
1.16478557
1.159923409
1.153421313
1.154162542
1.115610235
1.093255097
1.09592663
0.9573571267
0.8656547
0.8790872317
0.3468992839
0.185021086
0.199201593
0.03523988351
0.06741855119
0.06076651803
1.157949872
1.16154996
1.161422454
1.165161554
1.167839063
1.168000414
1.168157093
1.16143713
1.16304541
1.157403935
1.150037245
1.150937658
1.10720471
1.081427599
1.084554224
0.9183609715
0.8046243933
0.8210562349
0.2920172948
0.153981028
0.1605444687
0.0401802693
0.08592528437
0.08130206748
1.15812263
1.161642685
1.161608016
1.165032071
1.167313496
1.167607968
1.16699272
1.158956958
1.160853359
1.154404867
1.146102316
1.147134312
1.097535141
1.067695959
1.071327493
0.8695592681
0.735713263
0.752849654
0.2533720254
0.1327413909
0.1374815607
0.04666954737
0.1042103887
0.09970516556
1.158172531
1.161575858
1.161617797
1.164706754
1.166553009
1.166959789
1.165560019
1.156145995
1.158285944
1.15099324
1.141670525
1.142824217
1.086388079
1.051356027
1.055770611
0.8132933283
0.6728402841
0.6875521168
0.2242313221
0.115604419
0.1195307756
0.05503815998
0.1210385023
0.1170011603
1.158122396
1.161381337
1.161484191
1.164222847
1.165598771
1.166097402
1.163906455
1.153035129
1.155399432
1.147200455
1.136730435
1.13801784
1.072947618
1.030781193
1.036395534
0.7596816543
0.620666629
0.6327737261
0.2012189934
0.102307687
0.10528806
0.06489501384
0.1360126377
0.1324327926
1.157997634
1.161086019
1.161237158
1.163613212
1.16449019
1.165061288
1.162071279
1.149622135
1.152214755
1.142997843
1.131161913
1.132623711
1.056191799
1.005426001
1.012141549
0.7131115641
0.5773318284
0.5874736983
0.1830901037
0.09235530211
0.09456455333
0.07577493518
0.1491360672
0.1460557341
1.157810396
1.160713003
1.16090125
1.162907309
1.163265442
1.163889791
1.160090535
1.145881897
1.148723422
1.138305196
1.124757141
1.126449288
1.036128011
0.9771474959
0.9843493667
0.6729032394
0.5407108136
0.5493169232
0.1687264993
0.08479459495
0.08651696659
0.08735846924
0.1604209614
0.157730256
1.157581226
1.160283487
1.160498221
1.162135198
1.161963724
1.162621558
1.157999932
1.141769427
1.144895629
1.133011854
1.117310295
1.119277635
1.013949259
0.9483033509
0.9554759082
0.6378890327
0.5093763806
0.51677995
0.1572551396
0.07919994993
0.08042239713
0.09915498865
0.1705173985
0.1680845698
1.157319211
1.159820714
1.160049931
1.161328362
1.160622816
1.161295733
1.155824671
1.137216421
1.140680181
1.127009238
1.10872723
1.110978953
0.9909814196
0.9202490722
0.92715242
0.6071423898
0.4823176808
0.4887198107
0.1479838417
0.07533852782
0.07613815757
0.1108529862
0.1797488613
0.1775003317
1.157047887
1.159346894
1.15957946
1.160516227
1.159271358
1.159946869
1.153567692
1.132145933
1.136003908
1.120228048
1.099056282
1.101569854
0.9680724156
0.893464967
0.9000342887
0.5799178591
0.4587394315
0.4643575533
0.1398819396
0.07288746792
0.07338695522
0.1222057231
0.1885287057
0.1863523814
1.156776442
1.158883452
1.159108423
1.159719772
1.157917748
1.15859446
1.151197003
1.126481307
1.130793866
1.112641199
1.088414602
1.091160052
0.9455769413
0.8680027105
0.87425308
0.5554779734
0.4378399086
0.4428525173
0.1329863242
0.07133278283
0.07162210268
0.1331481704
0.1972257621
0.1950457568
1.156526585
1.158444996
1.158655329
1.158947924
1.156545456
1.157234326
1.148645115
1.12013612
1.124969414
1.104230745
1.076895183
1.079855104
0.9234880016
0.8436776847
0.8496716776
0.5331199832
0.4189134656
0.4235012939
0.1269164364
0.07059468273
0.07068809986
0.1436607892
0.2060409561
0.2038146795
1.156307332
1.158043355
1.158231809
1.158197279
1.155117298
1.155838797
1.145820947
1.113013695
1.118440199
1.09495716
1.06451914
1.067696165
0.9016184298
0.8200888533
0.825945647
0.5121439682
0.4012849675
0.405606526
0.1214411057
0.07045787389
0.07040181749
0.1539374642
0.2152055972
0.2128617405
1.156127739
1.1576811
1.157845899
1.157455583
1.153584842
1.154364332
1.142628392
1.10502669
1.111108671
1.084744746
1.051218484
1.054635401
0.8796103731
0.7966669698
0.8025397984
0.4917254624
0.3841525345
0.3884361939
0.1162113479
0.07080341368
0.07059562925
0.1643643336
0.2250097523
0.2224825674
1.15600473
1.157361387
1.157496587
1.156706072
1.151903028
1.152767309
1.138990393
1.096187641
1.102901963
1.0735597
1.036953359
1.040604355
0.8571814198
0.7729793179
0.7789266881
0.4712571665
0.3669552917
0.3712761079
0.1112266646
0.07151621159
0.07124580223
0.1751736925
0.2355456337
0.2328376196
1.155916333
1.157075392
1.157188128
1.155931692
1.150046107
1.151021669
1.134945059
1.086692235
1.093872609
1.061559821
1.021931966
1.025734757
0.8345492911
0.7492708051
0.7551583058
0.4510493625
0.3500443579
0.3542043912
0.1068488351
0.07249694635
0.07210511374
0.1862357405
0.2465010548
0.2437138935
1.155891935
1.156808951
1.156918549
1.155110055
1.147997868
1.149148334
1.13049005
1.076912535
1.084269049
1.04915616
1.006682838
1.010484496
0.8125654479
0.7264988666
0.7320642891
0.4322311572
0.3344558159
0.3382644514
0.1032973876
0.07403549122
0.0734537225
0.1970345173
0.2571967496
0.254451999
1.155944497
1.156588145
1.156716088
1.154213371
1.145649729
1.147236308
1.125420272
1.066730267
1.074554467
1.036823719
0.9918037279
0.9956570763
0.792161528
0.7056933446
0.7111228321
0.4159184275
0.3212374253
0.324609795
0.1011232807
0.0761067537
0.07536055037
0.2070060807
0.2669842773
0.2642017025
0.363439195
0.3680205671
0.4158822311
0.2552998456
0.266616251
0.3167670953
0.4480061175
0.4510059458
0.4461009587
0.4004007118
0.4284774388
0.4298065843
0.4413557119
0.4369562957
0.4274824044
0.3276142165
0.331716122
0.3805888842
0.4357795992
0.3922088368
0.3676153126
0.3192430064
0.3225597569
0.01511551084
0.4267280633
0.4275664028
0.3748761231
0.01229673383
0.01127847183
0.005716842133
0.01268480327
0.01752145565
0.01650213755
0.01806177067
0.01529353082
0.01347314083
0.01785902641
0.8430456196
0.8324131695
0.8891134851
0.7343590638
0.780694601
0.7924012616
0.6641195897
0.6517549503
0.6911442567
0.5835636397
0.6159148925
0.6280936181
0.5391521954
0.529055396
0.5546069433
0.4875389417
0.5072314085
0.5161984443
0.8945755057
0.8794451403
0.9319524187
0.786499438
0.8317745759
0.8477396117
0.8052299656
0.8183354375
0.7723301647
0.7226745295
0.7056447819
0.7446002382
0.6353327396
0.6691223842
0.686013207
0.6409459949
0.6547265205
0.6212558999
0.5889732066
0.5741601519
0.6034700233
0.5169857925
0.5480000037
0.5605997628
0.525518788
0.5362467744
0.507436172
0.3453345109
0.3498151632
0.3983119121
0.2468498444
0.298755297
0.2943943882
0.3077391945
0.3033218851
0.2514003365
0.9751737463
0.9495696939
0.9950405647
0.8636638423
0.9056793323
0.9320191331
0.8672403015
0.8824009035
0.8398254656
0.8170923864
0.7866114828
0.8240079221
0.7169115695
0.7514288921
0.7812092708
0.7079767746
0.7254984159
0.6916309232
0.6856706046
0.6528886559
0.6831119315
0.5939552612
0.6243807361
0.6575412159
0.5791470567
0.5971777517
0.5676847276
0.2051077088
0.2009094667
0.1490119262
1.097310223
1.061879085
1.103932017
0.9875158319
1.024758429
1.059520502
0.9595669583
0.990820598
0.9535686591
0.9598348843
0.9181998529
0.9514037092
0.858881385
0.8874403611
0.9311212245
0.8115362419
0.8470294824
0.8173201799
0.8571631353
0.8074085348
0.8323531952
0.7593152281
0.7833926118
0.8355289661
0.6947940342
0.7367248287
0.7093419205
0.677154179
0.697895685
0.7428120737
0.2795888691
0.5153995747
0.4866742031
0.5530699793
0.5339203528
0.3112826693
0.01651615279
0.01598911879
0.07051738586
0.03236380838
0.03447070002
0.02891124911
0.03066531527
1.159066589
1.159420842
1.163782678
1.14532278
1.153379336
1.152763128
1.09871713
1.145112364
1.110631358
1.119280724
1.113231784
1.134827899
1.079609077
1.093974633
1.101087357
0.9787741407
1.031918857
1.011296029
1.004088968
1.01246356
1.052129913
0.8776865164
0.9570995125
0.9448301677
0.9018802225
0.9677477576
0.893319709
0.5603160916
0.5990522609
0.7630481608
0.1636977752
0.3810792347
0.3341738649
0.4600052963
0.4179123952
0.1885553505
0.02009484174
0.01882175003
0.04256023601
0.04483670837
0.05034037142
0.03703908851
0.04041538702
1.157280253
1.15776195
1.162934423
1.140894659
1.15054624
1.149781967
1.15206962
1.151319572
1.142113682
1.10896968
1.111768608
1.128237459
1.061888398
1.090283873
1.086129952
1.097832682
1.094214667
1.067649745
0.956132244
0.9701373875
1.023500316
0.7837879714
0.8941427409
0.8731766934
0.9299965886
0.9135442149
0.8136359858
0.3657177302
0.4130893876
0.6228886431
0.07801418269
0.2112216915
0.1798608684
0.29203848
0.2511451562
0.09599469047
0.0301459309
0.02648305744
0.02928587547
0.07735348357
0.08953434099
0.0577858393
0.06662373051
1.154864644
1.15555052
1.161440493
1.136140221
1.147321169
1.14638568
1.149013753
1.148192141
1.137351251
1.098523338
1.101004177
1.121134663
1.036365461
1.073748667
1.070103438
1.08188036
1.077669642
1.042761513
0.8931574555
0.9090478278
0.9841005601
0.6364546316
0.7983998772
0.7728120596
0.8494168446
0.8247691123
0.6764773624
0.2197158769
0.2461085051
0.4349476188
0.04097494111
0.109933519
0.09454048494
0.1493424712
0.1296313509
0.04536062107
0.05405466223
0.04687798696
0.03097274454
0.1259415384
0.1366317107
0.1019688679
0.1144014568
1.151802563
1.152630804
1.159342835
1.130694895
1.143327854
1.142214309
1.145403865
1.144393877
1.132132908
1.087567825
1.090471176
1.113635494
1.013489731
1.058533344
1.054341753
1.066410583
1.062562312
1.019456506
0.8367285251
0.8515827741
0.948292868
0.519805864
0.7069927515
0.6860285902
0.7484579388
0.7278046481
0.5419104249
0.1678875398
0.175941104
0.3310413402
0.03741864563
0.07225797931
0.06890989498
0.08369778288
0.07630930103
0.0374329656
0.07672169724
0.07217070872
0.03638498989
0.1571325589
0.1609527481
0.1453428984
0.1527353201
1.148134606
1.149102553
1.15669666
1.124339027
1.138615616
1.137332496
1.141057111
1.139857492
1.126010778
1.074819806
1.078184202
1.104907768
0.9868789573
1.040727185
1.035800842
1.049983183
1.045449701
0.9939994525
0.770231371
0.7875996001
0.9072116818
0.4469903172
0.6254879356
0.6070040201
0.6652433451
0.6449717825
0.4629678864
0.1424151861
0.1479278028
0.2811450544
0.03789406622
0.06102981802
0.0589487542
0.06593159863
0.06325913022
0.03771998567
0.09513682865
0.09053806233
0.04163445342
0.1715295774
0.1748285961
0.164607948
0.1681268679
1.143947132
1.145039883
1.153589143
1.117101995
1.133242861
1.131799276
1.136009113
1.134645996
1.11899492
1.059944479
1.063909527
1.094907598
0.9539347111
1.019515765
1.013447727
1.030647634
1.025232965
0.9629485101
0.7029602999
0.7190373159
0.8558124458
0.3941366715
0.5580104301
0.5436697356
0.5895997299
0.5732882668
0.405954719
0.1236985003
0.1281235646
0.2454122167
0.03885072707
0.05437724315
0.05329528719
0.05719485568
0.05568745282
0.03856402575
0.1128326975
0.1085947249
0.0485952889
0.1842240544
0.1872236685
0.1780377898
0.1811705121
1.139268799
1.140485882
1.150081646
1.108886995
1.127211762
1.125587359
1.130314365
1.128786332
1.111049068
1.041690058
1.046670581
1.08328758
0.9125294877
0.9927374819
0.9849631427
1.006981272
1.000082106
0.9235562226
0.6454809159
0.6588247158
0.7993039619
0.3534510773
0.5053369465
0.4938968753
0.5301647435
0.5174105839
0.3627706249
0.1084915882
0.1119114851
0.2179515627
0.040360203
0.05104643145
0.05053790597
0.05241380098
0.05166906983
0.03992077463
0.1287528587
0.1249444429
0.05738098546
0.1958551038
0.1985898409
0.1901513947
0.1930266958
1.134036527
1.135404373
1.146191463
1.099274595
1.120367553
1.118490897
1.123909067
1.122171543
1.101845421
1.018629873
1.024852581
1.069096321
0.8670017067
0.9595452466
0.9506035415
0.9767957743
0.9683006991
0.8783676588
0.598056464
0.609108354
0.7473836685
0.3209554137
0.4629387503
0.4535853354
0.4830442202
0.4727448278
0.3284257346
0.09697005077
0.09956084123
0.1962948763
0.04261020238
0.04954143965
0.04935335364
0.05011571082
0.04979253181
0.04197572536
0.1428493249
0.1395011967
0.06752122612
0.2063413499
0.2087921469
0.2012476792
0.2038284249
1.128078328
1.129648133
1.141875575
1.087585685
1.112357971
1.110124978
1.116534922
1.114492908
1.090734554
0.9914884321
0.9985269135
1.051452061
0.8234963224
0.9233448031
0.9142983462
0.941546921
0.9324418669
0.8340069993
0.5582731179
0.5676037831
0.7025088904
0.2946351334
0.4280044005
0.4202301589
0.4446618872
0.4361471325
0.3007254055
0.08830711607
0.09024562417
0.1791637274
0.04563057246
0.04917237292
0.04923568108
0.04924402907
0.04918210946
0.04479552832
0.1549625081
0.1520992185
0.07862307412
0.2158316547
0.2180927786
0.2111870257
0.2135313145
1.121173393
1.122999531
1.137043703
1.07345439
1.102804623
1.100151444
1.107790282
1.105350888
1.077208789
0.9626869291
0.9699183215
1.030725304
0.7842800121
0.8877635756
0.8791809303
0.9053360725
0.8964869012
0.7936673544
0.5244603482
0.5324312208
0.6637087601
0.2732126477
0.3989057423
0.3923905094
0.4128072776
0.4057085943
0.2781829749
0.08177284395
0.08321803154
0.1656081627
0.04944999974
0.04967399138
0.04989813245
0.04932475378
0.04946585863
0.04842374538
0.1655873359
0.1630343385
0.09030313739
0.2246779722
0.2268208441
0.2203182748
0.2225116168
1.113160546
1.115271345
1.131582321
1.057211638
1.091578698
1.088529324
1.097394148
1.094535417
1.061431799
0.9341322298
0.9411840328
1.008238406
0.7492368164
0.8543728865
0.8464253587
0.8707519936
0.862482083
0.7576379866
0.4953565841
0.5022380173
0.6298309134
0.2555785648
0.3743893021
0.3688684254
0.386141146
0.3801459456