/*--------------------------------*- C++ -*----------------------------------*\
| =========                 |                                                 |
| \\      /  F ield         | OpenFOAM: The Open Source CFD Toolbox           |
|  \\    /   O peration     | Version:  v2012                                 |
|   \\  /    A nd           | Website:  www.openfoam.com                      |
|    \\/     M anipulation  |                                                 |
\*---------------------------------------------------------------------------*/
FoamFile
{
    version     2.0;
    format      ascii;
    class       surfaceScalarField;
    location    "0.58";
    object      phi;
}
// * * * * * * * * * * * * * * * * * * * * * * * * * * * * * * * * * * * * * //

dimensions      [0 3 -1 0 0 0 0];
oriented        oriented;


internalField   nonuniform List<scalar> 
5975
(
-0.05800125697
0.006366512104
0.05749995642
-0.01237158163
0.006506370069
0.01524509694
-0.1237995289
0.2439049989
-0.02641836796
0.01481330579
-0.1237455048
-0.2628782211
0.02257731058
0.2629655682
-0.02266949163
-0.2723439135
0.01984928972
0.2713241054
-0.01883760581
-0.2642493709
0.0158817603
0.2631234332
-0.01476297967
0.01089878584
-0.2415060551
0.2400308193
-0.009425162411
-0.4657011935
0.01470064431
0.463621148
-0.01262059873
-0.4624314745
0.01100777918
0.4609353084
-0.009511613041
-0.01298352363
0.9116150416
0.008695835047
0.008244396593
-0.0083689556
0.9053782552
-0.00411885509
0.9034909968
0.9024970757
-0.1113619918
0.008324110513
0.1112297145
-0.0162596152
0.008067782034
0.02538249684
-0.2369125952
0.2359079962
-0.02437849497
-0.260915414
0.0210199443
0.2608159645
-0.02093863719
-0.2684603497
0.01992438045
0.2713608479
-0.02284685
-0.2593917351
0.02027713892
0.2558348707
-0.0167311681
0.01085205252
-0.2338538707
0.2324935873
-0.009491848428
-0.4617917901
0.01553874859
0.4601514176
-0.01389837611
-0.4594259284
0.01230098924
0.4576785499
-0.01055361071
-0.0124668791
0.9068258343
0.008561582045
0.008694504309
-0.009080837326
0.9019922135
-0.004446410788
0.8988565703
0.8980506649
-0.2248547895
0.0166506637
0.2254308773
-0.01722675145
-0.2392877443
0.02251904153
0.2415769592
-0.0248192028
-0.2625283407
0.02829176895
0.2626459292
-0.02844050467
-0.2683545546
0.02646282957
0.2669861335
-0.02513038484
-0.2492586475
0.0196668816
0.2491751288
-0.01959904623
0.01160931086
-0.2312333887
0.2288992373
-0.009275159464
-0.4586959153
0.01720197439
0.4555765819
-0.01408264102
-0.4559122184
0.01260791419
0.453897095
-0.01059279079
-0.01284572482
0.9021374917
0.008842268701
0.008691798735
-0.009132594092
0.8982790828
-0.004650598159
0.8943745743
0.8934000668
-0.2319152713
0.02967453104
0.2337484998
-0.03151686059
-0.2477648227
0.03708193679
0.2490800069
-0.03841922942
-0.2620923012
0.03934148988
0.2612217365
-0.03850411508
-0.2608697356
0.03275062295
0.2580186237
-0.02992974185
-0.2403153903
0.01978288388
0.2366284747
-0.01610635135
0.01104232025
-0.2269727594
0.2263745042
-0.01044406498
-0.4548445631
0.01750241531
0.4521696795
-0.01482753173
-0.4510620039
0.01144846675
0.4494947863
-0.009881249111
-0.01201410022
0.8960009249
0.009336969881
0.00881369722
-0.006713277819
0.8929782604
-0.004697788978
0.8923590855
0.8887022778
-0.2366509122
0.05246255969
0.2368230089
-0.05264989962
-0.2497449482
0.05192108219
0.2487654795
-0.05096627681
-0.2555450688
0.04523090003
0.252575931
-0.04228921347
-0.2468433452
0.0307831244
0.2423163672
-0.02627385997
-0.2256303128
0.01248242863
0.2248886328
-0.01174077991
0.01021717196
-0.2247640506
0.2242709825
-0.009724103904
-0.4485057798
0.01653339357
0.4467996981
-0.01482731177
-0.447942522
0.01319986929
0.4463680959
-0.01162544314
-0.01116226008
0.8889989311
0.009969178388
0.008195075502
-0.006295534804
0.8881115351
-0.004321498537
0.8903850493
0.8843807792
-0.2354099959
0.05560698379
0.2344358092
-0.05464596955
-0.2427326877
0.04903709057
0.2398975332
-0.04621911883
-0.2409202671
0.03502744362
0.2363774015
-0.03049809979
-0.2271535383
0.01535984469
0.2238778639
-0.01208560573
-0.2235160749
0.01088764517
0.2231167351
-0.01048830536
0.009288750461
-0.2229578546
0.2225581778
-0.008889073673
-0.4452130114
0.01529655479
0.4437435392
-0.01382708258
-0.4449104963
0.01239524282
0.4435004436
-0.01098519019
-0.0139509638
0.8839533148
0.009380527013
0.009616053008
-0.009162168816
0.8833227401
-0.00172302542
0.8829459059
0.8826577538
-0.2306864125
0.03038858993
0.2293356598
-0.02904250545
-0.2301206291
0.02185447534
0.2267906849
-0.01852784489
-0.2241098873
0.0116733392
0.22390676
-0.01147021194
-0.2229207088
0.01074806463
0.222649223
-0.01047657882
-0.2220641416
0.009597750699
0.2217558466
-0.0092894558
0.008340191836
-0.2214952883
0.2211695289
-0.008014432423
-0.4423860549
0.0139347376
0.4411353354
-0.01268401807
-0.442208008
0.01144145157
0.4409643446
-0.01019778817
-0.0130589721
0.8793525072
0.008687432376
0.008972347339
-0.008616950611
0.8788807186
-0.004277671917
0.8786066272
0.8783800819
-0.22770197
0.01053943007
0.2277075921
-0.01054505215
-0.2253319072
0.01042950853
0.2252519643
-0.01034956566
-0.2233834318
0.009999732029
0.2232329375
-0.009849237821
-0.2219416847
0.009309624814
0.2217362131
-0.009104153229
-0.2209375412
0.008427630407
0.2206959136
-0.008186002796
0.007427091836
-0.2203066381
0.2200391372
-0.00715959097
-0.4399832563
0.01256101451
0.4389227616
-0.0115005198
-0.4398312143
0.0104294147
0.4387429
-0.009341100417
-0.01205689666
0.8752076779
0.007949595888
0.008252130021
-0.007990935431
0.8748147574
-0.003976981861
0.8745926736
0.8744031001
-0.2277099994
0.009049560492
0.2277063867
-0.009045947757
-0.2250393987
0.008945009617
0.2249760586
-0.008881669573
-0.2228381044
0.008610986803
0.222722497
-0.008495379415
-0.2211937085
0.008079478459
0.2210341375
-0.007919907415
-0.2200495339
0.007388301563
0.2198571508
-0.007195918427
0.006582361274
-0.2193344127
0.2191136319
-0.006361580483
-0.4379457518
0.0112451387
0.4370449554
-0.01034434225
-0.4377553129
0.009422672658
0.4368065085
-0.008473868257
-0.01101576501
0.8715031703
0.007209153575
0.007511119083
-0.007329083937
0.8711280763
-0.003655737177
0.8709193268
0.8707473629
-0.2276853573
0.007816434646
0.2276755346
-0.007806611937
-0.2248038855
0.007714662872
0.2247516164
-0.007662393789
-0.2224143891
0.007445461891
0.2223228369
-0.007353909718
-0.2206080482
0.007024950494
0.2204813833
-0.006898285637
-0.2193387169
0.006472958472
0.2191833259
-0.006317567434
0.005816364349
-0.2185346512
0.2183519763
-0.005633689439
-0.4362134088
0.01001796959
0.4354459214
-0.00925048219
-0.435947671
0.008456969193
0.4351216512
-0.007630949396
-0.009983700856
0.8682094239
0.006494406584
0.006783040645
-0.006664528085
0.8678089036
-0.003330819809
0.8675856186
0.8674165431
-0.227639703
0.006784087575
0.2276260341
-0.006770418739
-0.2246074736
0.006685520452
0.2245631751
-0.006641221982
-0.2220756605
0.006462664514
0.222001334
-0.006388337974
-0.220139838
0.006122391016
0.2200373667
-0.006019919692
-0.2187616248
0.005674050268
0.2186343762
-0.005546801735
0.005132689641
-0.2178717524
0.2177191369
-0.004980074066
-0.4347365931
0.008897633392
0.4340808698
-0.008241910089
-0.4343748842
0.007557374192
0.4336555126
-0.006838002657
-0.008996126656
0.8652900349
0.005823068437
0.006092447249
-0.006022360228
0.8648351371
-0.003015126182
0.8645783845
0.8644014169
-0.2275811613
0.0059116919
0.2275651663
-0.005895696829
-0.2244398548
0.005816874592
0.2244016297
-0.005778649523
-0.2217986658
0.005628759967
0.2217371459
-0.005567240113
-0.2197588405
0.005348385749
0.2196746159
-0.00526416112
-0.2182869734
0.004978970982
0.2181815087
-0.004873506293
0.004527816107
-0.2173171598
0.217188562
-0.004399218323
-0.4334736422
0.007888781914
0.4329111317
-0.007326271438
-0.4330056153
0.006734134635
0.4323783514
-0.006106870757
-0.008073428334
0.8627066524
0.005205258977
0.005451551838
-0.005417707754
0.8621794165
-0.002716560743
0.8618772375
0.8616848561
-0.2275149267
0.005167766098
0.2274975859
-0.005150425359
-0.2242945328
0.005077039131
0.2242611306
-0.005043636986
-0.2215681567
0.004915990359
0.2215164875
-0.004864321124
-0.2194442381
0.004681710254
0.2193741269
-0.004611599104
-0.2178921815
0.004373776519
0.2178039016
-0.004285496611
0.003994426373
-0.2168493316
0.2167401942
-0.003885288967
-0.4323890611
0.006990176952
0.4319043528
-0.006505468647
-0.4318117631
0.005991627466
0.4312637334
-0.005443597768
-0.007228002054
0.8604211619
0.004646253723
0.004867238749
-0.004860249927
0.8598116644
-0.00244030924
0.8594572968
0.8592445469
-0.2274443523
0.004531494571
0.2274263138
-0.004513456055
-0.224167058
0.004444991683
0.2241375866
-0.004415520252
-0.2213736813
0.004305592613
0.2213297805
-0.004261691804
-0.2191812844
0.004107604803
0.2191223052
-0.004048625565
-0.2175606236
0.003848406735
0.2174860955
-0.003773878616
0.003526936724
-0.2164517819
0.2163585671
-0.003433721838
-0.431453397
0.006196821786
0.4310337945
-0.005777219337
-0.4307685275
0.005329717167
0.4302884589
-0.004849648551
-0.006464116378
0.8583977228
0.004145609391
0.004341946156
-0.004354068556
0.8577016166
-0.002188736666
0.8572919649
0.8570558102
-0.2273716665
0.00398889066
0.2273533486
-0.003970572862
-0.2240542135
0.003906540002
0.224027987
-0.003880313497
-0.2212078077
0.00378472184
0.2211701302
-0.003747044373
-0.2189592824
0.003615731523
0.2189091952
-0.003565644364
-0.2172798535
0.003395594178
0.2172164233
-0.00333216397
0.00312110585
-0.2161117348
0.2160316048
-0.003040975857
-0.4306425135
0.00550209957
0.430277499
-0.005137085115
-0.4298544185
0.004745762279
0.4294324726
-0.004323816339
-0.005784232084
0.8566025884
0.003703914808
0.003875451583
-0.003901800445
0.8558191849
-0.001963437748
0.8553536022
0.8550923725
-0.2272983082
0.003526880491
0.2272799787
-0.003508550984
-0.2239535088
0.003448480608
0.223929985
-0.003424956759
-0.2210649877
0.003341103331
0.2210323598
-0.003308475485
-0.218770167
0.00319556789
0.2187272614
-0.003152662267
-0.2170402411
0.003007045218
0.2169858379
-0.002952641978
0.002770950836
-0.2158189874
0.2157496622
-0.002701625687
-0.4299362365
0.004898662764
0.4296170206
-0.004579446822
-0.4290505672
0.004235630937
0.4286781586
-0.003863222345
-0.005186345912
0.8550048123
0.003318288457
0.003465833532
-0.003502864716
0.8541357037
-0.001764338473
0.853615076
0.853328034
-0.227225206
0.003133692019
0.2272070435
-0.003115529577
-0.2238629529
0.003058999236
0.2238416984
-0.003037744755
-0.2209409579
0.002963598625
0.2209124709
-0.002935111691
-0.2186077177
0.002837230186
0.2185706662
-0.002800178724
-0.2168342072
0.002674508854
0.2167871954
-0.002627497047
0.002469964314
-0.2155652941
0.215504927
-0.002409597244
-0.4293177062
0.004379278319
0.4290368678
-0.004098440001
-0.428340558
0.003794661524
0.4280101477
-0.003464251284
-0.004667346598
0.8535760648
0.002985777695
0.0031103164
-0.003155740699
0.8526240978
-0.001590845968
0.8520501812
0.851737188
-0.2271529612
0.002802113561
0.2271350837
-0.002784236102
-0.2237809032
0.002730842253
0.2237615512
-0.002711490203
-0.2208323312
0.00264537305
0.2208072434
-0.002620285217
-0.2184669943
0.002534682441
0.2184347172
-0.002502405408
-0.2166556289
0.002393014536
0.2166146601
-0.00235204568
0.002214296281
-0.2153437684
0.2152907386
-0.002161266417
-0.4287726682
0.003937680355
0.4285238393
-0.003688851416
-0.4277099712
0.003418543441
0.4274148618
-0.003123434079
-0.004223555324
0.8522901376
0.002703267027
0.002806215551
-0.002858383179
0.8512589257
-0.001442056714
0.8506338548
0.8502951313
-0.2270819841
0.002524994196
0.2270644755
-0.002507485601
-0.2237059761
0.002456873026
0.2236882186
-0.002439115535
-0.2207363362
0.002379632684
0.2207140355
-0.002357331939
-0.2183439727
0.002281750012
0.2183155843
-0.002253361615
-0.2164994901
0.002157248354
0.2164634693
-0.002121227529
0.001999841853
-0.2151485777
0.2151019616
-0.001953225787
-0.4282885883
0.003567154211
0.4280657516
-0.003344317488
-0.4271459588
0.00310164495
0.4268801329
-0.002835819009
-0.003850135681
0.8511237555
0.002467488605
0.002549029108
-0.002607875712
0.8500166657
-0.001316633223
0.8493426123
0.8489784981
-0.2270125431
0.002298369623
0.2269954405
-0.002281266993
-0.2236369911
0.002233062978
0.2236205469
-0.002216618754
-0.2206506527
0.002162527557
0.2206306002
-0.002142475072
-0.2182353027
0.002074936831
0.2182100279
-0.002049661989
-0.2163616474
0.001964188162
0.2163296049
-0.001932145657
0.0018240419
-0.2149754701
0.2149342806
-0.001782852404
-0.4278538583
0.003263064791
0.427652009
-0.003061215509
-0.4266369761
0.002840992113
0.4263951385
-0.002599154611
-0.003543587514
0.8500533902
0.002276140809
0.002337812036
-0.002402144298
0.8488752225
-0.001213517068
0.848153985
0.847764981
-0.22694475
0.002117985781
0.2269280592
-0.002101294941
-0.2235728682
0.002055109899
0.2235574751
-0.002039716806
-0.2205732323
0.00198989052
0.2205549462
-0.001971604417
-0.2181380381
0.00191035128
0.2181151866
-0.001887499832
-0.2162383528
0.001810283366
0.2162093862
-0.001781316811
0.001683303253
-0.2148201902
0.2147826338
-0.001645746791
-0.4274592202
0.003019240178
0.4272746345
-0.002834654562
-0.4261725841
0.002632199123
0.4259489824
-0.002408597408
-0.003300833997
0.8490656244
0.002124421025
0.00216417873
-0.002239389081
0.8478137775
-0.001132184122
0.8470467801
0.8466327969
-0.2268785987
0.001979657688
0.226862304
-0.001963363006
-0.2235125887
0.001918803421
0.2234980022
-0.001904216932
-0.2205022285
0.001857631994
0.2204852766
-0.001840680092
-0.218049547
0.001784149429
0.2180285104
-0.001763112778
-0.216126188
0.001692078428
0.2160995296
-0.00166542003
0.00157504897
-0.2146778986
0.2146431797
-0.001540330125
-0.4270968884
0.002833735019
0.4269251951
-0.002662041733
-0.4257429148
0.002473593951
0.4255353138
-0.002265992928
-0.00311732491
0.848129055
0.002014693122
0.002039201153
-0.002115658227
0.8468121108
-0.001069717105
0.8460008389
0.8455630798
-0.2268139744
0.001881004132
0.2267980414
-0.001865071189
-0.2234551742
0.001821739478
0.2234411621
-0.001807727407
-0.2204359425
0.00176342793
0.2204199247
-0.001747410199
-0.217967456
0.001694166332
0.2179476783
-0.001674388616
-0.2160221854
0.00160765059
0.2159971396
-0.001582604877
0.001497616628
-0.214545513
0.214512781
-0.001464884661
-0.4267582933
0.002703169293
0.4265955426
-0.002540418659
-0.4253412302
0.002361450511
0.4251435827
-0.002163802985
-0.003000643721
0.8472379458
0.001933173026
0.0019585799
-0.00203790126
0.8458493684
-0.00103324766
0.8449961853
0.8445298321
-0.2267507236
0.001821065365
0.2267351092
-0.001805451035
-0.2233997119
0.001762966684
0.22338605
-0.001749304868
-0.2203728058
0.001706368023
0.2203573391
-0.001690901255
-0.2178895882
0.001639576632
0.217870539
-0.001620527435
-0.2159235985
0.001556261254
0.2158994798
-0.00153214262
0.00145027847
-0.21441995
0.2143885543
-0.001418882744
-0.4264360474
0.002625600794
0.426279339
-0.002468892441
-0.4249591168
0.002296837558
0.4247731807
-0.002110901453
-0.002906357366
0.001856231068
0.001911546025
-0.001970624759
-0.0009930274677
-0.006593684343
0.02886966018
-0.0290205973
0.006744621463
0.006611508746
-0.01271500523
-0.05849144483
0.1232452677
-0.01577964443
-0.1243578952
0.01689227193
-0.008869967498
0.05492056743
-0.05490058819
0.008849988263
0.006593837593
0.02864233469
-0.01769078638
0.0009305033941
-0.05171863473
-0.05175304161
0.2313373932
-0.02126195742
0.01305822123
0.01268619711
-0.1180846547
-0.1177351995
0.01628135433
0.1222090104
-0.009309792509
0.1114323802
-0.1110763747
0.008953786982
0.008393793647
0.0548508843
0.1216649019
-0.02043780315
-0.1229305866
0.01075742269
0.01094606513
-0.05373596323
-0.009393825731
0.009753862614
0.05337592635
-0.009700229828
-0.05420106143
0.01016532803
0.05489655352
-0.009398454461
-0.05519832888
0.1183358075
-0.01697161405
-0.1187437777
0.01737958423
-0.01968703437
0.1204454865
0.01035598924
0.01055046057
-0.03036944863
-0.007165017139
0.007515029786
0.03001943598
0.05539218647
-0.01165087808
-0.05584849634
0.006025964463
0.006081223492
-0.007221465309
-0.03065421052
0.007506227203
0.0302662305
-0.00700880319
-0.03047889261
0.0611433269
-0.01226553809
-0.06155231592
0.01267452712
-0.011325783
0.01168011765
0.05503785183
-0.01977256579
0.009815944349
-0.1118678931
-0.1123400674
-0.02118331225
0.232958719
-0.2310515346
0.01927404126
0.2330644539
0.01343956016
0.01021587605
0.05949375536
-0.0114728414
-0.05989710085
0.01187618689
-0.01212440104
0.01254874481
0.06071898313
0.03003963378
-0.006938420422
0.1152147557
-0.01122194067
-0.1152724132
0.01127959819
-0.01609652095
0.01602962501
0.1184027034
0.05447082853
-0.008968100735
-0.01254522178
0.110190247
-0.1098759141
0.0122308889
0.0174448868
-0.01695688018
-0.0004880066117
0.03041230407
-0.00725512532
-0.03061526373
0.007458084974
0.0487278101
-0.008479104732
-0.04894860394
0.05167631151
-0.007873009648
-0.05243632733
0.008633025475
0.006861974966
-0.02586665931
0.02696577735
-0.007961092996
0.006340300828
0.0278796626
-0.006927027152
-0.02729293627
0.02941037265
-0.006909304122
-0.02947214208
0.006971073546
0.02575275866
-0.02419190379
0.00477944596
-0.017561684
0.02481360165
-0.0003899426818
0.02745844439
-0.007496868592
-0.027466685
0.007505109196
-0.005655262092
0.003901556073
0.02750646468
0.02861354118
-0.006208144596
-0.02197831229
0.02711244191
-0.00683149056
-0.02715904782
0.006878096471
-0.00733080893
0.007249646957
0.02753960637
0.027213882
-0.006175558783
-0.02726333175
0.006225008529
-0.006627914576
0.00666587786
0.02707447863
0.02154430412
-0.006424472666
-0.01712451335
-0.0004371706501
-0.007121801815
0.007077594631
0.03045651126
0.02292064876
-0.005184268541
-0.0002914934229
-0.008524148123
-0.03446702454
-0.01484398151
-0.1247351918
-0.02174760707
0.2581790989
-0.2592796158
0.02284567934
-0.006678853508
0.006859172744
0.02923005342
0.02877431247
-0.006549911971
0.02846234636
-0.007219034043
-0.02874018091
-0.006095276038
0.004375605056
0.02945152561
-0.006889353534
0.03044837576
0.03072697421
-0.007113577847
-0.03086852168
0.0307534618
-0.006727171938
-0.03084742375
0.00682113389
-0.01637198099
0.02310402727
-0.00635450936
-0.0003775369128
-0.01579045222
-0.0005815287676
-0.01500863696
0.01560202638
-0.03023152432
0.02283028402
-0.007607396669
-0.006742115369
-0.0003853816796
-0.005913802459
0.02655562733
-0.02665224477
0.006010419908
-0.00605473816
0.006300942643
0.02696767752
0.02810018456
-0.0002109055903
-0.03507277696
0.02605469989
-0.007938803117
-0.006729638026
-0.0002429543711
0.01574451534
-0.03231862922
-0.00761778991
0.01624046864
-0.0004959533037
0.02134010797
-0.0003201933628
-0.007140879743
-0.0003641478209
0.007928260735
-0.02790612478
-0.00748882095
0.02429602869
-0.03215822017
0.02544662852
0.02555877019
-0.0003171061543
-0.006210058893
-0.0003893910872
-0.006609718992
-0.02399144665
0.02444929844
-0.006665996386
0.005937311199
-0.00709847382
-0.005386388346
0.02305760143
-0.02461315663
0.02525290005
-0.006026131764
-0.00658833086
-0.004183722466
0.0274623774
-0.0003580061712
-0.02751203429
0.02929538792
-0.005967076092
-0.006641602945
-0.0296017546
-0.007907256805
0.02898486328
0.006663456887
-0.006969823564
-0.0003411902584
-0.02050961157
-0.2641201696
-0.0175562615
0.2720336613
-0.2728255694
0.0183406948
-0.01850395999
-0.271401431
-0.01702941191
0.2681363165
-0.2689657991
0.01785869837
-0.0161029803
-0.2651747696
0.2482797451
-0.01168579588
-0.2501107399
0.01351909224
0.05636698151
-0.01131763682
-0.05670022277
0.0580784741
-0.01032581757
-0.05847937669
0.01072672016
-0.01121925578
0.01159298408
0.05912002706
-0.01984036099
-0.2383342438
-0.01998056793
0.2554514343
-0.2578914391
0.02240751966
0.02247250375
0.2582796487
-0.02071969194
-0.2601920688
-0.02326336311
0.2703911617
-0.2702784139
0.02313370909
0.02074161416
0.2711337855
-0.0204740573
-0.2712664175
-0.01696522985
0.2635752328
-0.2648606275
0.01823331908
0.01716592266
0.2668442472
-0.01567173531
-0.2607002433
0.2403120907
-0.0117124017
-0.2427081466
0.01410694407
0.01240928163
0.2467659745
0.1114127656
-0.01266452261
-0.1112934648
0.1139026541
-0.01255230265
-0.1140641543
0.01271380285
-0.01510208961
0.01554817494
0.1147686703
-0.02320132082
-0.2372773903
-0.02598871069
0.2577834367
-0.2573442741
0.02552423369
0.02090793449
0.2555493555
-0.02606742804
-0.2624796061
-0.02439540124
0.269122608
-0.2700017159
0.02523757427
0.02056198815
0.2697276604
-0.02624939532
-0.2665324119
-0.02367473781
0.2574168899
-0.2590605731
0.02530165774
0.02147332226
0.2623660509
-0.01701297387
-0.2559326676
0.2312312567
-0.009925253797
-0.2332945787
0.0119875729
0.01287869933
0.2382813869
-0.02327482751
0.228215166
-0.2262171051
0.2228517446
-0.1103668137
-0.02557369776
-0.2296227176
-0.03259888713
0.2433533271
-0.2411850471
0.03041466929
0.0196423677
0.2358298371
-0.03438917962
-0.2459944559
-0.03657525333
0.2595231031
-0.2593970812
0.03641840807
0.02766831184
0.2583799163
-0.03615042338
-0.2625503881
-0.03166469596
0.2630989062
-0.2651156308
0.03364710285
0.02748561222
0.2680630278
-0.02927550843
-0.2632912073
-0.02035576675
0.2469042313
-0.2501167569
0.02354894725
0.0216938207
0.2553645401
-0.01703979502
-0.2436445633
0.2271949408
-0.01121356677
-0.2278397016
0.0118583276
0.01349257732
0.2293483556
-0.04792092115
0.2331589023
-0.2324200644
0.2299252591
-0.04848847602
-0.2360978417
-0.04929259307
0.2467757865
-0.2467772045
0.04927141246
0.03533984956
0.2450768931
-0.04893256875
-0.2501299853
-0.04492988099
0.2552262921
-0.2571237839
0.04679780229
0.03959775107
0.2592354913
-0.04252594345
-0.2579787484
-0.03242116452
0.2505665739
-0.2543886326
0.03621831543
0.0351631282
0.2606537312
-0.02829257106
-0.2509933786
-0.01482193966
0.2304587981
-0.2350398537
0.01939660617
0.02336623937
0.2433042941
-0.01205467819
-0.2283982178
0.2249165498
-0.0104389663
-0.2254421561
0.01096457262
0.01165671144
0.2265805496
-0.05745540707
0.2330315528
-0.2334452615
0.2335560429
-0.05671716983
-0.2361626548
-0.05206633042
0.2415320317
-0.2435372787
0.05405252131
0.05245871705
0.2462155038
-0.04961398501
-0.2452049052
-0.03943859798
0.2424544891
-0.2463165712
0.04328157491
0.04766168531
0.2527677358
-0.03518133357
-0.2451951198
-0.02054312192
0.2316674062
-0.2367904214
0.02565711117
0.0350070705
0.2463212014
-0.01531558686
-0.232386036
-0.01122885777
0.2236790867
-0.224103724
0.01165349506
0.01677109771
0.2261675107
-0.01080186356
-0.2239430691
0.2230795197
-0.009528436032
-0.2235008063
0.009949722574
0.01071552611
0.2244181956
-0.03913988003
0.230162344
-0.2309733183
0.2324495826
-0.03781173001
-0.2320217409
-0.03065830841
0.2308480966
-0.2337563018
0.03355890589
0.05137477754
0.2391775944
-0.02730711273
-0.2334788614
-0.01502883885
0.2250622023
-0.2294353413
0.01939918337
0.03918337571
0.2382832278
-0.01222003664
-0.2269204609
-0.01114405643
0.2231845393
-0.2234624933
0.01142201048
0.02058209375
0.2264406514
-0.01085168002
-0.2232130852
-0.009910243232
0.2222468734
-0.2225692988
0.01023266866
0.01128336999
0.2232833619
-0.009581774353
-0.2223926104
0.2216113883
-0.008576603876
-0.2219481674
0.00891338298
0.009687291585
0.2226809786
-0.01095978408
0.2283443507
-0.2283210887
0.2293510292
-0.01096802898
-0.2276937251
-0.0108470673
0.2258879681
-0.2259518738
0.01091097296
0.02474872695
0.2279496963
-0.01076159206
-0.2254173825
-0.01038624635
0.2238256536
-0.2239696968
0.01053028954
0.01244289942
0.2242921487
-0.01022464817
-0.2235450299
-0.009646196443
0.2222586227
-0.2224657677
0.009853341392
0.01100555061
0.2229270533
-0.009426519945
-0.2221613612
-0.008705887327
0.221147926
-0.2213970599
0.008955021141
0.009899533606
0.2219450904
-0.008449535705
-0.2211938928
0.2204323579
-0.007648610319
-0.2207034936
0.007919746104
0.008659562289
0.2212920179
-0.00939257744
0.228402017
-0.2283932285
0.228364551
-0.009390996975
-0.2277115799
-0.009287271541
0.2256659928
-0.2257172163
0.009338495056
0.01048968954
0.2258277871
-0.009220460136
-0.2251062101
-0.008932977824
0.2233394586
-0.2234492588
0.00904277802
0.01013385866
0.2236915269
-0.008809902794
-0.2229611794
-0.008367293913
0.2215556681
-0.2217147332
0.008526359053
0.009503077969
0.2220651695
-0.008197726666
-0.2213632758
-0.007634246134
0.2202890112
-0.2204851303
0.007830365259
0.008661960096
0.2209135964
-0.007430922227
-0.2202528578
0.219477237
-0.006785253216
-0.2196975824
0.007005598612
0.007685053182
0.2201743965
-0.008105531656
0.2284090571
-0.2284109042
0.228407678
-0.008097000722
-0.2276938882
-0.008003040029
0.2254819051
-0.2255251789
0.00804631374
0.008993958484
0.2256170439
-0.007948350481
-0.224858575
-0.007719677711
0.2229606639
-0.22304736
0.007806373822
0.008714198312
0.2232362471
-0.007622857068
-0.2225112098
-0.007274741222
0.2210073772
-0.2211326618
0.007400025777
0.008229025522
0.221406121
-0.007140777571
-0.2207420118
-0.006691698536
0.2196057832
-0.2197628291
0.006848744366
0.007573576805
0.2201037359
-0.006527980226
-0.2195024352
0.2186969251
-0.006001821628
-0.218877531
0.00618242758
0.006792553645
0.2192670446
-0.007027611291
0.2283841531
-0.2283926222
0.2284052535
-0.007014730847
-0.2276525834
-0.006928158785
0.2253236019
-0.22536117
0.006965726881
0.007756340874
0.2254402271
-0.006882067596
-0.2246535648
-0.006694946437
0.2226564295
-0.2227267808
0.006765297676
0.00752753809
0.2228785877
-0.006616781361
-0.2221538256
-0.006336751909
0.2205699341
-0.2206706992
0.00643751703
0.007143350728
0.220888977
-0.006228849969
-0.22024774
-0.005865044722
0.2190536751
-0.2191813301
0.005992699769
0.006621840523
0.2194569012
-0.005731409445
-0.2188952601
0.2180535364
-0.005297894901
-0.2182030273
0.00544738585
0.005989033083
0.2185242563
-0.006115598561
0.2283392321
-0.2283518823
0.2283744565
-0.006100079243
-0.2275966806
-0.006019820589
0.2251846962
-0.2252178433
0.006052967661
0.006721878249
0.2252872441
-0.005980220567
-0.2244794548
-0.005823893353
0.222406268
-0.222464548
0.005882173331
0.006529653698
0.2225894403
-0.005759505482
-0.2218630537
-0.005530094841
0.2202142363
-0.2202966914
0.005612549913
0.006218068033
0.2204742571
-0.005441769614
-0.2198471657
-0.005142888175
0.2186011781
-0.2187063024
0.005248012459
0.005795494494
0.2189322309
-0.005032490026
-0.2183973715
0.2175177694
-0.004671675204
-0.2176426606
0.004796566334
0.005276005921
0.2179102201
-0.005341580929
0.2282816028
-0.2282969102
0.2283257967
-0.005324509932
-0.2275319977
-0.005249835556
0.2250612269
-0.2250908085
0.005279417163
0.005849069996
0.2251525008
-0.005215331168
-0.2243290371
-0.005082640688
0.2221968896
-0.2222459542
0.005131705249
0.00568452403
0.2223505039
-0.005028745166
-0.2216220522
-0.004837944983
0.2199204874
-0.2199889461
0.004906403725
0.005427015751
0.2201356063
-0.004764640743
-0.2195175423
-0.004516070968
0.2182258263
-0.2183133991
0.004603643732
0.005079327468
0.2185008216
-0.004423882121
-0.2179843704
0.2170676161
-0.004120740523
-0.2171728762
0.004226000603
0.004647905241
0.2173976803
-0.004682114337
0.2282159732
-0.2282329372
0.228265799
-0.00466420004
-0.2274622666
-0.00459453869
0.2249504427
-0.224977071
0.004621167059
0.005105837598
0.2250324285
-0.004564149957
-0.2241974467
-0.004450125653
0.2220192265
-0.2220610576
0.004491956735
0.004963095493
0.2221497845
-0.004404436738
-0.2214193702
-0.004243792968
0.2196747952
-0.2197323151
0.004301312826
0.004747198375
0.2198549993
-0.004182254127
-0.2192428232
-0.003973371905
0.217911248
-0.2179849209
0.004047044817
0.004457590317
0.2181420125
-0.00389567004
-0.2176383255
0.2166863709
-0.003638867168
-0.2167757795
0.003728275813
0.004095862723
0.2169661798
-0.004117573805
0.2281455266
-0.2281634607
0.2281987168
-0.004099291359
-0.2273899489
-0.004034178674
0.2248503128
-0.224874444
0.004058309902
0.004470950351
0.224924484
-0.0040071896
-0.2240812025
-0.003908257626
0.2218668369
-0.2219028552
0.003944275982
0.004345843002
0.2219789761
-0.003869136481
-0.2212469288
-0.003732549839
0.2194671504
-0.2195159464
0.003781345788
0.004162746577
0.2196196535
-0.003680404171
-0.219011428
-0.00350336119
0.2176452901
-0.2177077798
0.003565850859
0.003919039574
0.2178406151
-0.003437356028
-0.2173458587
0.216361213
-0.003218265925
-0.2164376684
0.003294721353
0.003613227587
0.21660008
-0.003635730281
0.228072407
-0.2280908509
0.228127433
-0.003617383177
-0.2273166553
-0.003556360188
0.2247592111
-0.2247812201
0.003578369125
0.003930102665
0.2248267501
-0.003532203602
-0.2239776654
-0.003445619677
0.2217349007
-0.2217661892
0.003476908198
0.003819458728
0.2218321
-0.003411821415
-0.2210987859
-0.003294655018
0.2192900412
-0.2193318004
0.003336414238
0.003662615984
0.219420266
-0.003250088579
-0.2188147334
-0.00309881693
0.2174186165
-0.2174720358
0.003152236249
0.003455624393
0.2175852599
-0.003042323863
-0.2170967342
0.2160819964
-0.002854099037
-0.2161478155
0.002919918118
0.003195030879
0.2162872879
-0.003225175153
0.2279980667
-0.2280167037
0.2280538891
-0.003206962579
-0.2272434185
-0.003149600065
0.2246757947
-0.2246959914
0.00316979675
0.003470010009
0.2247376817
-0.003127820252
-0.2238847327
-0.003051434973
0.2216196997
-0.2216471006
0.003078835906
0.003371349171
0.2217046548
-0.003021995118
-0.2209703977
-0.002920660335
0.2191376908
-0.2191737203
0.002956689813
0.003235784957
0.2192498241
-0.002882264285
-0.2186461137
-0.002752011473
0.2172239217
-0.2172699333
0.002798023061
0.003058472626
0.2173671891
-0.002703302074
-0.2168829166
0.2158405831
-0.002540459414
-0.2158976326
0.002597508974
0.002834722049
0.2160182252
-0.002878946704
0.2279235111
-0.2279421234
0.227979413
-0.002860993184
-0.2271709147
-0.002806863192
0.2245989244
-0.2246175818
0.002825520658
0.003078792208
0.2246560018
-0.002787071244
-0.2238006952
-0.002719103613
0.2215182664
-0.2215424718
0.002743309042
0.002990147836
0.2215931505
-0.002693234047
-0.2208582008
-0.002604811019
0.2190055206
-0.2190368833
0.00263617372
0.002872010664
0.2191029103
-0.002571438083
-0.2185003672
-0.002458309352
0.2170553365
-0.2170953084
0.002498281208
0.002718904537
0.217179526
-0.002415953468
-0.2166979848
0.2156302462
-0.002273874673
-0.2156801166
0.002323745013
0.002525360724
0.2157851866
-0.002589856285
0.2278494914
-0.2278679132
0.2279049293
-0.002572247151
-0.2270995932
-0.002520963903
0.2245276216
-0.2245449743