/*--------------------------------*- C++ -*----------------------------------*\
| =========                 |                                                 |
| \\      /  F ield         | OpenFOAM: The Open Source CFD Toolbox           |
|  \\    /   O peration     | Version:  v2012                                 |
|   \\  /    A nd           | Website:  www.openfoam.com                      |
|    \\/     M anipulation  |                                                 |
\*---------------------------------------------------------------------------*/
FoamFile
{
    version     2.0;
    format      ascii;
    class       surfaceScalarField;
    location    "2.97";
    object      phi;
}
// * * * * * * * * * * * * * * * * * * * * * * * * * * * * * * * * * * * * * //

dimensions      [0 3 -1 0 0 0 0];
oriented        oriented;


internalField   nonuniform List<scalar> 
5975
(
-0.05823069385
0.006441631175
0.05773655
-0.01253183876
0.006584351434
0.01581979431
-0.1241593421
0.2447392073
-0.02770342614
0.0154142803
-0.1241105136
-0.2560750966
0.02200007437
0.2551368246
-0.02092553967
-0.2583500618
0.01761629628
0.2575730857
-0.01658752717
-0.2520350378
0.01406046298
0.2514079719
-0.01321103971
0.01040027665
-0.2389499809
0.237929031
-0.009328406775
-0.46652944
0.01481249317
0.4644133831
-0.01269643626
-0.4631066792
0.01105712312
0.4615896183
-0.00954006223
-0.01299207689
0.912731213
0.008713080321
0.008257450159
-0.008369441778
0.9063753051
-0.004117270885
0.9044064734
0.9033704227
-0.1120810165
0.008650861051
0.1119741721
-0.01694931753
0.008405300855
0.02710050368
-0.2379132326
0.2365403339
-0.02572153497
-0.2520936282
0.01995132197
0.2517911728
-0.01946964621
-0.2557786564
0.01795313729
0.2576144746
-0.01953354775
-0.2492712124
0.01709220024
0.2472388428
-0.01487780895
0.01065668694
-0.2337450662
0.2326872989
-0.009591421448
-0.4625496169
0.01567636928
0.4608777484
-0.01400450073
-0.4600567649
0.01238110062
0.4582881343
-0.01061247002
-0.01252153201
0.9079010996
0.00861234271
0.008739302718
-0.009112064403
0.9029658375
-0.00446007111
0.8997544801
0.8989103516
-0.2264292185
0.01885459305
0.2270157154
-0.01944108998
-0.2374042985
0.02259473259
0.2387106935
-0.02383017714
-0.2522697012
0.02522573688
0.2523076409
-0.02504596476
-0.2553656905
0.02303283572
0.2545478433
-0.02195424682
-0.2427940679
0.0178092714
0.2426243995
-0.01750374543
0.011710216
-0.2316565759
0.2293123662
-0.009366006319
-0.4593955149
0.01734618663
0.4562508589
-0.01420153056
-0.4565010709
0.01270551794
0.4544679426
-0.01067238954
-0.01293625613
0.9031654704
0.008914393674
0.008757491706
-0.009188042629
0.899217624
-0.004676883059
0.8952433206
0.8942334685
-0.2317990766
0.02614512452
0.2331790045
-0.02749089793
-0.2427228707
0.03123898537
0.2436703118
-0.03206007793
-0.2520699022
0.03229935777
0.2515653709
-0.03158095419
-0.2507184914
0.02721429552
0.2488531807
-0.02514259977
-0.2365758162
0.01778643077
0.2339951313
-0.0151323272
0.01112870814
-0.2273712676
0.2267702745
-0.01052771508
-0.4555012627
0.01764572616
0.4528080812
-0.01495254464
-0.4516161895
0.01155521365
0.4500357765
-0.009974800654
-0.01213151593
0.8969769716
0.009423965187
0.008896049529
-0.00678651881
0.8938726269
-0.004734770164
0.8931915719
0.8894986984
-0.2355155877
0.04215467234
0.2357220151
-0.04231284542
-0.244354497
0.04170654512
0.2437561548
-0.0409805526
-0.2478841928
0.03661859374
0.2458524435
-0.03442168951
-0.2412302653
0.02591707696
0.2380332236
-0.0226054079
-0.2260370595
0.01248841938
0.2253665823
-0.01181729652
0.01029788159
-0.2251541808
0.2246602168
-0.009803917633
-0.4491267518
0.01667852144
0.447408715
-0.0149604846
-0.448471078
0.01332107513
0.4468848892
-0.01173488635
-0.01130390514
0.8899189773
0.01007082444
0.008291074942
-0.006386829029
0.8889555508
-0.004367765794
0.8911725087
0.8851309326
-0.2348733605
0.04493572551
0.2341933325
-0.04421729237
-0.2395617755
0.03997221563
0.2375055404
-0.03783343569
-0.2375504318
0.02938381433
0.234216822
-0.02597361618
-0.2269945113
0.01461704159
0.2245175085
-0.0121316594
-0.2240075967
0.01096141927
0.2236119311
-0.01056575374
0.009370745781
-0.2233456528
0.2229460587
-0.008971151678
-0.4458117027
0.01545268725
0.4443324423
-0.01397342688
-0.4454155542
0.01253089475
0.443994154
-0.01110949454
-0.01412166518
0.8848135924
0.009497600442
0.009729449706
-0.009274717261
0.8841086029
-0.001776590885
0.8836743824
0.8833543417
-0.2314511013
0.02613402218
0.2304345976
-0.02510471075
-0.2302191973
0.01958716257
0.2276803115
-0.01703352556
-0.2249900892
0.01173228661
0.2247934066
-0.01153560406
-0.2235825366
0.01082969112
0.2233151745
-0.01056232895
-0.2225668216
0.009691475166
0.2222597086
-0.009384362185
0.008434634485
-0.2218808785
0.2215535475
-0.008107303495
-0.442965587
0.0141127299
0.4417043696
-0.01285151252
-0.4426893636
0.01159705647
0.4414329395
-0.01034063238
-0.01325768411
0.8801452303
0.00882324921
0.009102796979
-0.008748784227
0.879599703
-0.004343505724
0.8792691039
0.879010836
-0.2291963243
0.01066487594
0.2292014951
-0.01067004677
-0.2265131624
0.01055458437
0.2264333087
-0.01047473072
-0.2242796788
0.01012559954
0.2241294929
-0.00997541364
-0.2226131262
0.009436145428
0.2224073683
-0.00923038759
-0.22144083
0.00855121309
0.2211976479
-0.008308031089
0.007542384105
-0.2206847002
0.220414043
-0.00727172689
-0.440540088
0.01277203336
0.4394652677
-0.01169721301
-0.4402851746
0.01061093157
0.4391809784
-0.009506735332
-0.01228714055
0.8759230031
0.008107415664
0.008401952074
-0.008143914506
0.875456477
-0.004053374615
0.875178564
0.8749574614
-0.2291964924
0.009275459628
0.2291887605
-0.009267727713
-0.2262131747
0.009152967344
0.2261451174
-0.009084910051
-0.2237284077
0.008800748805
0.2236086359
-0.00868097701
-0.2218583969
0.00825326198
0.2216949709
-0.008089835944
-0.2205427171
0.007546425929
0.2203462478
-0.007349956676
0.006723670726
-0.2196985351
0.2194736694
-0.006498804955
-0.4384712296
0.01149681564
0.4375505604
-0.01057614648
-0.4381752317
0.009634887545
0.4372066356
-0.008666291388
-0.01128096529
0.8721283704
0.007391297986
0.007684300008
-0.007505018931
0.8716805306
-0.003743498112
0.8714170432
0.8712139632
-0.2291515134
0.008124931558
0.22913519
-0.008108608134
-0.2259536474
0.007993893427
0.2258934897
-0.007933735774
-0.2232829057
0.007693695637
0.2231839932
-0.007594783131
-0.2212528791
0.007244877762
0.2211195443
-0.007111542881
-0.2198120879
0.00666680649
0.2196503663
-0.00650508488
0.005985200387
-0.2188787689
0.2186901454
-0.005796576892
-0.4366969182
0.01031224792
0.4359049054
-0.009520235053
-0.4363254334
0.008702490184
0.4354753366
-0.0078523934
-0.01028608749
0.8687307013
0.006702379068
0.006981377507
-0.006864770715
0.8682592138
-0.003430581489
0.8679828539
0.8677833818
-0.2290771898
0.007161820276
0.2290553647
-0.007139995195
-0.225722156
0.00702623728
0.2256677831
-0.006971864344
-0.2229110482
0.006763453374
0.2228270598
-0.006679464998
-0.2207545113
0.006385718348
0.2206431682
-0.006274375237
-0.2192067072
0.00590291016
0.219071225
-0.005767427993
0.005329412117
-0.2181888976
0.2180287356
-0.0051692501
-0.4351685668
0.009236041568
0.4344833432
-0.00855081807
-0.4347019034
0.007837373986
0.43395412
-0.007089590588
-0.009336863337
0.8656931754
0.006057535063
0.006316854112
-0.006247666491
0.865170017
-0.003127255051
0.8648624425
0.8646561267
-0.2289841343
0.006348050104
0.2289588096
-0.006322725385
-0.2255117502
0.006210792534
0.2254619013
-0.006160943652
-0.2225927196
0.005976351148
0.2225198555
-0.005903487024
-0.2203353159
0.005651669794
0.220240503
-0.005556856898
-0.2186966551
0.005241093654
0.2185813771
-0.005125815693
0.004751752774
-0.2176012389
0.2174636885
-0.004614202423
-0.4338442188
0.008270905301
0.4332474784
-0.007674164929
-0.4332732968
0.007048660695
0.4326134025
-0.006388766397
-0.008452668686
0.8629774923
0.00546613274
0.005702219065
-0.005668207685
0.862385556
-0.002841128492
0.8620353633
0.8618149982
-0.2288792686
0.005653759799
0.2288517844
-0.005626275638
-0.2253181711
0.005516847312
0.2252720461
-0.005470722347
-0.2223148646
0.005304860835
0.2222506132
-0.005240609391
-0.2199762631
0.005021146568
0.2198942325
-0.00493911603
-0.2182605891
0.004666746118
0.2181611995
-0.004567356512
0.004244157496
-0.2170950632
0.2169757639
-0.004124858174
-0.4326889757
0.007414379291
0.4321657215
-0.006891125117
-0.432011834
0.006339784802
0.4314271997
-0.005755150517
-0.00764505405
0.8605460079
0.004932865141
0.005143673249
-0.005135552485
0.8598760544
-0.002577140087
0.8594769509
0.8592378581
-0.2287672222
0.005059502276
0.2287384861
-0.005030766244
-0.2251385629
0.004924284975
0.2250955998
-0.00488132191
-0.2220686057
0.004730648209
0.2220112122
-0.004673254741
-0.2196640051
0.004479391204
0.2195920786
-0.004407464645
-0.2178829368
0.004169541348
0.2177962418
-0.004082846289
0.003800643113
-0.2166546346
0.216550224
-0.003696232504
-0.4316742425
0.006660714863
0.4312122387
-0.00619871109
-0.4308932466
0.005709955491
0.4303729068
-0.005189615748
-0.006917511151
0.8583636554
0.004456734341
0.004643129325
-0.004653288635
0.8576118319
-0.00233741622
0.8571610785
0.8569004419
-0.2286511312
0.004552675388
0.2286217418
-0.004523286001
-0.2249708839
0.004419927043
0.2249306344
-0.004379677533
-0.221847683
0.004241521286
0.2217958423
-0.004189680528
-0.21938895
0.004016387151
0.219325121
-0.003952558144
-0.2175521429
0.003742294467
0.2174756835
-0.003665835082
0.003416903164
-0.2162678477
0.2161756392
-0.003324694697
-0.4307768116
0.006002859121
0.4303659905
-0.005592038029
-0.4298966954
0.005156097003
0.4294311477
-0.004690549281
-0.00627206363
0.8563975927
0.004038122905
0.00420000337
-0.004223761696
0.8555635299
-0.002123407353
0.8550607241
0.8547770345
-0.2285330798
0.00412118809
0.2285034293
-0.004091537563
-0.2248135012
0.003991296133
0.2247755961
-0.003953391008
-0.2216474236
0.003825686122
0.2216001433
-0.003778405758
-0.2191438972
0.003621867821
0.2190866388
-0.003564609386
-0.2172593132
0.003376792251
0.2171911793
-0.003308658384
0.003086917799
-0.215925081
0.2158429252
-0.003004761965
-0.4299773901
0.005433263888
0.4296093794
-0.005065253191
-0.4290039878
0.004673830702
0.4285849837
-0.004254826631
-0.005706346
0.8546178622
0.003673933821
0.003812142675
-0.003846142603
0.8537033265
-0.001934913508
0.853149495
0.852842121
-0.2284144274
0.003753820588
0.2283847753
-0.003724168519
-0.2246650533
0.003626954223
0.2246291917
-0.00359109262
-0.2214642364
0.003472230139
0.2214207537
-0.003428747436
-0.2189233121
0.003286035079
0.2188714475
-0.003234170463
-0.2169974793
0.003064751038
0.2169361731
-0.003003444846
0.002804072129
-0.2156185942
0.2155447639
-0.002730241775
-0.4292599302
0.00494465888
0.4289276775
-0.004612406259
-0.4281993801
0.004258381338
0.4278196999
-0.003878701173
-0.005217053386
0.8529971657
0.00336112434
0.003476625502
-0.003518770481
0.8520050436
-0.001771268757
0.8514019933
0.8510708523
-0.2282960307
0.003444192881
0.2282665371
-0.003414699202
-0.2245243619
0.003320330035
0.2244902736
-0.003286241673
-0.2212952535
0.003174859751
0.2212549366
-0.003134542814
-0.2187227919
0.003003246452
0.2186753552
-0.002955809676
-0.2167610155
0.002801453819
0.2167052952
-0.002745733497
0.002564663688
-0.2153419571
0.2152749486
-0.002497655188
-0.4286108861
0.004530886918
0.4283083517
-0.004228352481
-0.4274690882
0.003905480584
0.4271223295
-0.003558721841
-0.004800462658
0.8515102971
0.003096568985
0.00319076228
-0.003239555895
0.8504441368
-0.001631542122
0.8497939795
0.8494393102
-0.2281784287
0.003185571825
0.2281492024
-0.003156345535
-0.2243903887
0.003064632758
0.2243578426
-0.003032086661
-0.2211380991
0.002927046601
0.2211004242
-0.002889371777
-0.2185387216
0.002767503248
0.218494918
-0.002723699638
-0.2165452857
0.002581676112
0.2164941419
-0.002530532251
0.002364550737
-0.2150896372
0.2150284906
-0.002303404143
-0.4280184873
0.004185041721
0.4277400687
-0.003906623093
-0.426800855
0.003609385774
0.4264812888
-0.003289819566
-0.004451666422
0.850135066
0.002876990642
0.00294990684
-0.003005513906
0.8489979843
-0.001514365615
0.8483028312
0.8479249445
-0.2280619809
0.002974686833
0.2280330787
-0.002945784604
-0.2242622326
0.002856480471
0.2242310058
-0.002825253634
-0.2209907726
0.002725505914
0.2209552665
-0.002689999807
-0.2183680815
0.002575779711
0.2183272036
-0.002534901859
-0.2163464764
0.002402785108
0.2162990146
-0.002355323319
0.002201606862
-0.2148576388
0.2148015272
-0.00214549525
-0.4274717048
0.003903207725
0.4272125261
-0.003644029062
-0.426183707
0.003367474309
0.4258863578
-0.003070125095
-0.004167308794
0.8488481483
0.002700358702
0.002753867814
-0.002814664483
0.84764534
-0.001418703476
0.8469068702
0.8465062411
-0.2279468915
0.002807567404
0.2279183433
-0.002779019184
-0.2241390507
0.002691861732
0.2241089357
-0.002661746712
-0.2208514819
0.002566334542
0.2208177172
-0.002532569816
-0.2182081861
0.002424398886
0.2181695977
-0.002385810493
-0.2161611333
0.002261388382
0.2161165112
-0.002216766348
0.002072323951
-0.214642145
0.2145893955
-0.002019574464
-0.4269615735
0.003679100486
0.4267181639
-0.003435690906
-0.4256076854
0.003175327726
0.4253267068
-0.002894349154
-0.003944359887
0.847638822
0.002561228832
0.002592457282
-0.002665305304
0.8463662854
-0.001344150114
0.845585715
0.8451620909
-0.2278332759
0.002679989389
0.2278051059
-0.002651819354
-0.2240200479
0.002566561939
0.2239908531
-0.002537367105
-0.220718592
0.002445416655
0.2206861822
-0.002413006859
-0.218056612
0.002309456473
0.2180197511
-0.002272595557
-0.2159860614
0.002153942811
0.215943563
-0.002111444436
0.001973970486
-0.2144384668
0.2143882927
-0.001923796351
-0.4264809932
0.003510903217
0.4262493319
-0.003279241948
-0.4250631204
0.003031730055
0.4247971975
-0.002765807187
-0.00377859264
0.8464737023
0.002463034044
0.002480678267
-0.002553473145
0.8451411659
-0.001287584685
0.8443198265
0.8438745062
-0.2277211785
0.002589947507
0.2276933992
-0.002562168226
-0.2239044073
0.002478521586
0.2238759265
-0.00245004077
-0.2205905318
0.002360656028
0.2205590955
-0.002329219647
-0.2179111339
0.002228926898
0.2178754787
-0.002193271711
-0.2158184838
0.00207863959
0.215777468
-0.002037623864
0.001905007058
-0.2142437188
0.2141952982
-0.001856586523
-0.4260219682
0.003395490594
0.4257983212
-0.003171843587
-0.4245443914
0.00293269982
0.4242872946
-0.002675603037
-0.003677308392
0.8453477154
0.002388806515
0.002414488766
-0.002485938339
0.8439497958
-0.001256878947
0.8430907671
0.8426176273
-0.2276106225
0.002537291201
0.2275832223
-0.002509891039
-0.2237912434
0.002427441358
0.2237632175
-0.002399415432
-0.2204657494
0.002311569761
0.2204348803
-0.002280700669
-0.2177696925
0.002182290029
0.2177347334
-0.002147330913
-0.2156558989
0.002035037876
0.2156157599
-0.001994898909
0.001865240918
-0.2140548042
0.2140076248
-0.001818061512
-0.4255775048
0.003331686698
0.4253585155
-0.003112697406
-0.4240432167
0.002879999862
0.4237988183
-0.002635601468
-0.003602164791
0.002314822113
0.002379571738
-0.002431892284
-0.001222095314
-0.006666478431
0.02899279721
-0.029142652
0.006816333225
0.006682484367
-0.0128662743
-0.05871338234
0.1236087163
-0.01632848176
-0.1246901744
0.0174099398
-0.009179875099
0.05529578387
-0.05526942901
0.009153520241
0.006667590542
0.02876683784
-0.01832899279
0.001157544264
-0.05202963959
-0.05205980345
0.2324564608
-0.02279566966
0.01380757449
0.01340077558
-0.1186124199
-0.1182567213
0.01682675627
0.1226017544
-0.01034566358
0.1122922561
-0.1119283347
0.009981742181
0.008712083539
0.05523456138
0.1220478253
-0.02085611413
-0.1232777633
0.01095180606
0.01113424614
-0.05403101253
-0.009617598453
0.009972101787
0.0536765092
-0.009914886194
-0.05449131407
0.01037518773
0.05518233835
-0.009620040865
-0.05547718367
0.1188541813
-0.01752239922
-0.1192287788
0.01789699673
-0.02013738133
0.1208626436
0.01056738668
0.01075517632
-0.03048704914
-0.007223574831
0.007574497286
0.03013612669
0.05566612212
-0.01183105288
-0.05611702516
0.006114638904
0.006167317022
-0.007278062096
-0.03077283418
0.007563847141
0.03037106232
-0.007066096587
-0.03058302783
0.0613079804
-0.01240987499
-0.06170730748
0.01280920207
-0.01151582878
0.01186427229
0.05531767861
-0.02181609235
0.01081297366
-0.1126599693
-0.1131117941
-0.02228334625
0.233113587
-0.2321625899
0.02134618905
0.2342890851
0.01427645544
0.01099142395
0.05969365516
-0.01164978633
-0.06008853313
0.0120446643
-0.0122768272
0.01269201888
0.06089278871
0.03014543305
-0.006997945554
0.1158405491
-0.01190323214
-0.1158684318
0.01193111485
-0.01668321548
0.01658137052
0.1189560263
0.05476317249
-0.009198432598
-0.01338641005
0.111025005
-0.110702444
0.01306384909
0.01756632185
-0.01708583948
-0.0004804823636
0.0305316721
-0.007304635345
-0.03073759835
0.0075105616
0.04911843106
-0.008707918112
-0.04933513452
0.05198919368
-0.008120231921
-0.05274650227
0.008877540514
0.006926925025
-0.02604261127
0.02714447129
-0.008028785043
0.006404011671
0.02805152447
-0.00699133525
-0.02746420089
0.02952842126
-0.006973163342
-0.02958920324
0.007033945327
0.02594436185
-0.02437381683
0.004833466655
-0.01769863332
0.02501006207
-0.0003845037243
0.02764743106
-0.007574016846
-0.02766005785
0.007586643641
-0.00571523066
0.003950445264
0.02770914725
0.02892513949
-0.006293369764
-0.02221412102
0.02728700107
-0.006912311881
-0.0273359108
0.006961221616
-0.007408348356
0.007330320883
0.02772545853
0.02738622824
-0.006263076715
-0.02743603338
0.00631288186
-0.006709955039
0.006749651677
0.02724730443
0.02176527895
-0.006514577948
-0.01727082877
-0.0004278045457
-0.007172483472
0.007129291099
0.03057486447
0.02308377824
-0.005231215383
-0.0002862410091
-0.008595466304
-0.03471797374
-0.01541866072
-0.1250691631
-0.02158861976
0.2540830594
-0.2557010855
0.02328182497
-0.006744981846
0.006924082076
0.02934932103
0.02894954193
-0.006613248122
0.02862765458
-0.007292161442
-0.02890950998
-0.00613946498
0.004413335686
0.0296043868
-0.006934597489
0.03057227303
0.03082828996
-0.007163100465
-0.03096982484
0.03083362442
-0.006782445968
-0.03092476627
0.006873587815
-0.01652820816
0.02332895573
-0.006430687204
-0.0003700603564
-0.01595843351
-0.0005697746486
-0.0151863635
0.01576568582
-0.03052968319
0.0230417326
-0.007698412913
-0.006823422945
-0.0003773045159
-0.006010807493
0.02672392032
-0.02682080901
0.006107696185
-0.006144346891
0.006392365098
0.02713821003
0.02828131052
-0.0002050622435
-0.03530033653
0.02621313788
-0.007998640832
-0.006781473015
-0.0002375529859
0.01589295552
-0.03257647721
-0.007690295146
0.0163787565
-0.0004858009779
0.02152597468
-0.00031375152
-0.007208037978
-0.0003583771598
0.008012637537
-0.02810821422
-0.007564481174
0.02450055016
-0.03244634613
0.0256565066
0.02578484957
-0.0003084296227
-0.006278742396
-0.0003827541706
-0.006677809365
-0.02420972581
0.02466740353
-0.006751047482
0.006017912353
-0.007185905559
-0.005467509256
0.02329267532
-0.02482772482
0.02547022288
-0.006110007307
-0.006674899244
-0.004224924986
0.02766044515
-0.0003517419278
-0.02767623026
0.02946785898
-0.0060165537
-0.00669430777
-0.02977212311
-0.007969339694
0.0291459965
0.006721519772
-0.007025783901
-0.000336008817
-0.01991396041
-0.2576271156
-0.01630640844
0.2590702802
-0.2597540849
0.01722384369
-0.01610122276
-0.2583125293
-0.01428115285
0.254583237
-0.2551236509
0.01506836008
-0.01354454971
-0.2525464795
0.2428356455
-0.01055911664
-0.2439493952
0.01178313964
0.05662636821
-0.01150530568
-0.05695211541
0.05831179275
-0.01053673141
-0.05870506305
0.0109300017
-0.01140519792
0.01177037221
0.05932848087
-0.02134292535
-0.239364988
-0.01974444303
0.2490420504
-0.2517374899
0.02257065725
0.02293079964
0.2532427496
-0.0195874942
-0.2520819377
-0.01980144294
0.2568462359
-0.256997827
0.02020668466
0.01862576259
0.2582946867
-0.01800959931
-0.2573179952
-0.01513900517
0.251786812
-0.2525505551
0.01613465301
0.01511939319
0.2537697519
-0.01419591949
-0.2500124925
0.2375286193
-0.01108195137
-0.2390990781
0.01271897926
0.01152444441
0.2418139533
0.1121986612
-0.0135164943
-0.1120685769
0.114607565
-0.01343639583
-0.1147526443
0.01358147508
-0.01586092311
0.01628497603
0.1154164962
-0.0232311088
-0.2364052124
-0.02393507993
0.2493425991
-0.249216895
0.02398828151
0.02038501339
0.2487461557
-0.02365791906
-0.2523325756
-0.02175298806
0.2560189833
-0.2565431936
0.02254761386
0.01864249849
0.2564178731
-0.02261034863
-0.2542526143
-0.02023711283
0.248011554
-0.2490771806
0.02149673999
0.01804226213
0.2510585508
-0.01512143254
-0.2477616823
0.2311792779
-0.0100286305
-0.2326867503
0.01155059488
0.01211268118
0.2361273644
-0.02198430165
0.2290875655
-0.2275347435
0.2246794845
-0.1112943676
-0.02364580639
-0.2301124218
-0.02831516847
0.2397300451
-0.2382481028
0.02692251706
0.02093732343
0.2348058371
-0.02940944127
-0.2415113353
-0.03042347671
0.2504602959
-0.2503204472
0.03048216509
0.02510764904
0.2496467356
-0.02997089883
-0.2523040346
-0.02645102427
0.2523424985
-0.2536084802
0.0279521933
0.02392340414
0.2553932094
-0.02467893632
-0.2522670043
-0.01819710555
0.2410515877
-0.2432224698
0.02050530195
0.01932144049
0.2466866613
-0.01580373787
-0.238874815
0.2276099208
-0.01130283213
-0.2282579817
0.0119508931
0.01316399106
0.2297302406
-0.03881689327
0.233041518
-0.2324088705
0.230419412
-0.03925444484
-0.2350306624
-0.03974649909
0.2423926007
-0.2423260534
0.039792132
0.03011608512
0.2409532599
-0.03944983225
-0.2445188203
-0.03632900234
0.2478119025
-0.2490573458
0.03775061899
0.0326165187
0.2503408816
-0.03452382731
-0.2495075338
-0.02706016232
0.2439640111
-0.2465927764
0.02984997665
0.02900719888
0.2507701017
-0.02403843696
-0.2441114399
-0.01421651082
0.2294788916
-0.232768679
0.0175496474
0.0203749157
0.2385794076
-0.0121339553
-0.2281115081
0.225326339
-0.01052085617
-0.2258523654
0.01104688255
0.01174538788
0.226993241
-0.04617465208
0.2332919477
-0.2335274993
0.2334293606
-0.04562988085
-0.2353754298
-0.04211932211
0.238851065
-0.2402657908
0.04362087999
0.04214258674
0.2420662852
-0.04026331866
-0.2413206573
-0.03260346769
0.2388336876
-0.2416173983
0.03549384631
0.03844722879
0.2461458993
-0.02940993206
-0.2406428452
-0.01847656739
0.2303901464
-0.2341477307
0.02228943895
0.02902776394
0.2409899945
-0.01458452364
-0.2308556976
-0.01130006473
0.224201529
-0.2246205529
0.0117190887
0.01564363168
0.2263421573
-0.01087720831
-0.2244304531
0.2234908115
-0.009608879564
-0.2239114984
0.01002956643
0.01079622629
0.2248279943
-0.03278504108
0.2312741908
-0.2318705922
0.2329131291
-0.03177288862
-0.2324432108
-0.026298609
0.2309658802
-0.233153326
0.02851833823
0.0417429422
0.2371553135
-0.02373441155
-0.2327513294
-0.01435782332
0.2258636677
-0.2291832392
0.0176917884
0.03251894368
0.2357828381
-0.012197496
-0.2271432195
-0.01121546871
0.2238947506
-0.2241665033
0.01148722144
0.018528626
0.2265057271
-0.01092844854
-0.2238695568
-0.009997798618
0.2227847405
-0.2231044605
0.0103175186
0.01135217012
0.2238107781
-0.009671184305
-0.222893436
0.2220230903
-0.008667007207
-0.2223602463
0.009004163186
0.009768737902
0.2230928194
-0.01105657789
0.229912025
-0.2298895981
0.2306675355
-0.01106548701
-0.2291874152
-0.01094927154
0.2271465742
-0.2272087895
0.01101148684
0.02181289622
0.2287573782
-0.01086551256
-0.2265969214
-0.01049547852
0.2247880271
-0.2249303116
0.01063776302
0.01235316886
0.2252444319
-0.01033556314
-0.2244395942
-0.00976106031
0.2229804605
-0.2231865406
0.009967140464
0.01108235892
0.2236420828
-0.009542120131
-0.2228320664
-0.008821370986
0.2216886853
-0.2219382719
0.009070957525
0.009991348871
0.2224848668
-0.008564141375
-0.2216980596
0.2208383526
-0.007758121785
-0.2211115777
0.008031346965
0.008754794906
0.2217029298
-0.009595212523
0.2299621249
-0.2299559987
0.2299310951
-0.009590276674
-0.2292014282
-0.009475609827
0.2269171322
-0.2269720636
0.009530541223
0.01061464196
0.2270865166
-0.009405098411
-0.2262836861
-0.009107179081
0.224295544
-0.2244086725
0.009220307575
0.01025942855
0.224654198
-0.00898092222
-0.2238546646
-0.008529226245
0.2222712776
-0.2224333456
0.008691294211
0.009629647133
0.2227869588
-0.008356620987
-0.2220310022
-0.007783476907
0.2208206199
-0.2210200786
0.007982935527
0.008786753255
0.2214531452
-0.007576673037
-0.220749521
0.2198702661
-0.006919710953
-0.2200945087
0.007143953547
0.007802935538
0.2205778011
-0.008394824256
0.2299536641
-0.2299600669
0.2299646149
-0.008380304972
-0.2291660327
-0.008265487191
0.2267091079
-0.2267595562
0.00831593545
0.009206628312
0.2268634712
-0.008203589286
-0.2260155453
-0.007953890302
0.2238942271
-0.223987776
0.008047439216
0.008908293832
0.224187999
-0.007850409899
-0.2233863861
-0.007483386965
0.2217028568
-0.2218342881
0.007614818296
0.00840667763
0.222117862
-0.007343392874
-0.2213928732
-0.006876663181
0.2201176795
-0.2202805572
0.007039540895
0.007735701204
0.2206313447
-0.006707142942
-0.2199816081
0.2190698612
-0.006163705889
-0.2192562077
0.006350052363
0.006938159382
0.2196557775
-0.007389209713
0.2299066519
-0.2299211831
0.2299448926
-0.007368532976
-0.2290978665
-0.007254416733
0.2265159653
-0.2265630575
0.00730150901
0.008043415949
0.2266595854
-0.007198725258
-0.2257778475
-0.006983222211
0.2235561215
-0.2236358058
0.007062906482
0.007783324603
0.2238045981
-0.006895901292
-0.2229983691
-0.006589600338
0.2212346018
-0.2213439246
0.00669892309
0.007370087567
0.221577647
-0.006473324706
-0.2208707869
-0.00608534196
0.2195369075
-0.2196724796
0.006220914107
0.006822078515
0.2199624075
-0.005943914665
-0.2193481345
0.2183991896
-0.005487707266
-0.2185561396
0.005644657284
0.006164038595
0.218891023
-0.006538119782
0.2298345268
-0.2298543787
0.2298905772
-0.006513528324
-0.2290087257
-0.006401088069
0.2263346882
-0.2263789964
0.006445396249
0.007072582724
0.2264696198
-0.006350205763
-0.2255626325
-0.006160251877
0.2232639943
-0.2233333888
0.006229646353
0.006840274476
0.2234793004
-0.00608489509
-0.2226680764
-0.005823684857
0.2208399098
-0.2209327655
0.005916540551
0.006490459694
0.2211298605
-0.005725162599
-0.2204338382
-0.005396856089
0.2190483696
-0.2191631154
0.005511601865
0.006032729684
0.2194070879
-0.005277012775
-0.2188164984
0.217829808
-0.004888859784
-0.2179636562
0.005022707935
0.005480562324
0.2182480394
-0.005815809394
0.229745918
-0.2297692598
0.2298136532
-0.005788772662
-0.2289063053
-0.005678695724
0.2261635682
-0.2262054593
0.005720586836
0.006254478797
0.226291002
-0.005631711409
-0.2253651554
-0.005461590027
0.2230067716
-0.2230682522
0.005523070599
0.006043596903
0.2231967485
-0.005395390298
-0.2223810643
-0.005168618811
0.2205009071
-0.2205811774
0.005248889142
0.005741092079
0.2207504875
-0.005083699537
-0.2200611824
-0.004801501354
0.2186309729
-0.2187295522
0.004900080631
0.005351448123
0.2189380151
-0.004698505346
-0.2183635851
0.2173405983
-0.004364102756
-0.217456094
0.004479598393
0.004881121314
0.2177004394
-0.005200346637
0.2296466133
-0.2296722011
0.2297219113
-0.005171852248
-0.2287957166
-0.005064588918
0.2260014597
-0.2260411938
0.005104323071
0.00555818555
0.22612223
-0.005020872893
-0.2251822789
-0.004866652299
0.222776961
-0.2228321635
0.004921854806
0.005364651807
0.2229469807
-0.004807670428
-0.2221275876
-0.00460789843
0.2202051734
-0.2202755859
0.004678310914
0.005098746606
0.2204233071
-0.004533642544
-0.219738261
-0.004287771697
0.2182694859
-0.2183552877
0.004373573518
0.00476187197
0.2185358471
-0.004198144886
-0.2179725636
0.2169156778
-0.003906788681
-0.2170164064
0.004007517312
0.004356101154
0.2172286546
-0.004673084082
0.2295405848
-0.2295675612
0.2296206168
-0.00464380681
-0.2286804084
-0.004539634906
0.2258475058
-0.2258852781
0.004577407291
0.004963501378
0.2259622432
-0.004498733623
-0.2250117852
-0.004357625124
0.2225692886
-0.2226193716
0.004407708191
0.004784461769
0.2227231474
-0.004304485748
-0.2219008224
-0.004126401532
0.2199438404
-0.2200063501
0.004188911285
0.004547649609
0.220136915
-0.00406069017
-0.2194546614
-0.003843997466
0.2179527036
-0.2180282231
0.003919516968
0.004252544464
0.2181864828
-0.003765158871
-0.2176309815
0.2165429534
-0.003508779606
-0.2166316395
0.003597465704
0.003898476512
0.2168178444
-0.004222897563
0.2294305165
-0.229458305
0.2295133665
-0.004193282168
-0.2285626952
-0.004092261964
0.225700923
-0.2257369227
0.004128261712
0.004457230164
0.2258102026
-0.004053799129
-0.224851964
-0.003923640113
0.2223798021
-0.2224256532
0.003969491217
0.00429046046
0.2225203494
-0.003875295927
-0.2216957678
-0.003714863725
0.2197102751
-0.2197663687
0.003770957384
0.004077154428
0.2198830731
-0.003656081093
-0.2192026798
-0.003463059823
0.2176720635
-0.2177392335
0.003530229852
0.003815547285
0.2178794508
-0.003392996829
-0.2173293762
0.2162129
-0.003165212888
-0.2162917136
0.003244026449
0.003503243481
0.2164566131
-0.003839094309
0.2293181979
-0.2293464128
0.2294025901
-0.003809431672
-0.22844409
-0.003711498811
0.2255609698
-0.225595372
0.003745901091
0.004026881645
0.2256653374
-0.003675161535
-0.2247013906
-0.003554253577
0.2222054455
-0.2222477539
0.003596561937
0.003870594299
0.2223348939
-0.003509895689
-0.2215085943
-0.003364005304
0.2194993915
-0.2195502154
0.003414829231
0.003676548589
0.2196555943
-0.003310902624
-0.2189764148
-0.003137262933
0.2174208956
-0.2174812287
0.003197596032
0.003442126591
0.2176067292
-0.003074392059
-0.2170603502
0.2159179117
-0.002870122371
-0.2159885911
0.002940801731
0.003163839113
0.2161359787
-0.003515719204
0.2292048105
-0.2292332052
0.2292899113
-0.003486181329
-0.2283255686
-0.003391141894
0.225426936
-0.2254599228
0.003424128691
0.003660994764
0.2255269292
-0.003356641662
-0.2245588622
-0.003243531594
0.2220437617
-0.2220831073
0.003282877233
0.003513758246
0.2221639174
-0.003202485928
-0.2213362992
-0.003068568791
0.2193071485
-0.2193536475
0.003115067755
0.003335709188
0.2194497174
-0.003020117124
-0.2187712436
-0.00286231116
0.217193842
-0.2172485927
0.002917061853
0.003123595834
0.2173620508
-0.002805312971
-0.2168180137
0.2156517223
-0.002620260208
-0.2157157513
0.002684289151
0.002873229697
0.2158487542
-0.003246209538
0.2290911546
-0.2291195609
0.2291763941
-0.003216904083
-0.2282077341
-0.003124531905
0.2252981493
-0.2253298898
0.003156272312