/*--------------------------------*- C++ -*----------------------------------*\
| =========                 |                                                 |
| \\      /  F ield         | OpenFOAM: The Open Source CFD Toolbox           |
|  \\    /   O peration     | Version:  v2012                                 |
|   \\  /    A nd           | Website:  www.openfoam.com                      |
|    \\/     M anipulation  |                                                 |
\*---------------------------------------------------------------------------*/
FoamFile
{
    version     2.0;
    format      ascii;
    class       pointVectorField;
    location    "1.29";
    object      pointDisplacement;
}
// * * * * * * * * * * * * * * * * * * * * * * * * * * * * * * * * * * * * * //

dimensions      [0 1 0 0 0 0 0];


internalField   nonuniform List<vector> 
6506
(
(0 0 0)
(0 0 0)
(0 0 0)
(0 0 0)
(0 0 0)
(0 0 0)
(0 0 0)
(0 0 0)
(0 0 0)
(0 0 0)
(0 0 0)
(0 0 0)
(0 0 0)
(0 0 0)
(0 0 0)
(0 0 0)
(0 0 0)
(0 0 0)
(0 0 0)
(0 0 0)
(0 0 0)
(0 0 0)
(0 0 0)
(0 0 0)
(0 0 0)
(0 0 0)
(0 0 0)
(0 0 0)
(0 0 0)
(0 0 0)
(0 0 0)
(0 0 0)
(0 0 0)
(0 0 0)
(0 0 0)
(0 0 0)
(0 0 0)
(0 0 0)
(0 0 0)
(0 0 0)
(0 0 0)
(0 0 0)
(0 0 0)
(0 0 0)
(0 0 0)
(0 0 0)
(0 0 0)
(0 0 0)
(0 0 0)
(0 0 0)
(0 0 0)
(0 0 0)
(0 0 0)
(0 0 0)
(0 0 0)
(0 0 0)
(0 0 0)
(0 0 0)
(0 0 0)
(0 0 0)
(0 0 0)
(0 0 0)
(0 0 0)
(0 0 0)
(0 0 0)
(0 0 0)
(0 0 0)
(0 0 0)
(0 0 0)
(0 0 0)
(0 0 0)
(0 0 0)
(0 0 0)
(0 0 0)
(0 0 0)
(0 0 0)
(0 0 0)
(0 0 0)
(-2.614744323e-07 9.829408529e-06 2.775557562e-17)
(0 0 0)
(0 0 0)
(0 0 0)
(0 0 0)
(0 0 0)
(0 0 0)
(0 0 0)
(0 0 0)
(0 0 0)
(0 0 0)
(0 0 0)
(0 0 0)
(0 0 0)
(0 0 0)
(0 0 0)
(0 0 0)
(0 0 0)
(0 0 0)
(0 0 0)
(0 0 0)
(0 0 0)
(0 0 0)
(0 0 0)
(0 0 0)
(0 0 0)
(0 0 0)
(0 0 0)
(0 0 0)
(-1.628996458e-05 0.0001539637545 4.996003611e-16)
(-9.375897301e-05 0.0009657419021 3.080868893e-15)
(-1.225864956e-06 1.272744283e-05 4.163336342e-17)
(-0.000178080144 0.00253065185 8.007483565e-15)
(-0.0004424795006 0.00624314752 1.992850329e-14)
(-0.0005253869678 0.008456267926 2.69784195e-14)
(-0.0002448254706 0.003967430619 1.254552018e-14)
(-0.0002986813119 0.008360064587 2.646494135e-14)
(-0.0005245865742 0.01460947224 4.662936703e-14)
(-0.0004387210467 0.01614319555 5.151434834e-14)
(-0.000257573903 0.009513971336 3.011479954e-14)
(0 0 0)
(0 0 0)
(0 0 0)
(0 0 0)
(0 0 0)
(0 0 0)
(0 0 0)
(0 0 0)
(0 0 0)
(0 0 0)
(0 0 0)
(0 0 0)
(0 0 0)
(0 0 0)
(0 0 0)
(0 0 0)
(0 0 0)
(0 0 0)
(0 0 0)
(0 0 0)
(0 0 0)
(0 0 0)
(-4.54956728e-05 0.000312989733 1.026956298e-15)
(-0.0002485528054 0.001823124166 6.009082121e-15)
(-5.887159173e-05 0.0004353807864 1.415534356e-15)
(-0.0008404503661 0.007759033407 2.53824739e-14)
(-0.001344575111 0.0123180472 4.06341627e-14)
(-0.001716156222 0.01714883539 5.655198532e-14)
(-0.00115588527 0.01163709043 3.805289417e-14)
(-0.001800514325 0.02489238723 8.140710328e-14)
(-0.002383573549 0.03273159364 1.079414336e-13)
(-0.002400238336 0.03765374746 1.241645675e-13)
(-0.001851929217 0.02923938879 9.5617958e-14)
(-0.001456247863 0.04001242725 1.308536612e-13)
(-0.001812605824 0.0495694809 1.634664626e-13)
(-0.001438917189 0.05226786361 1.723621246e-13)
(-0.001165901983 0.042498139 1.389860449e-13)
(0 0 0)
(0 0 0)
(0 0 0)
(0 0 0)
(0 0 0)
(0 0 0)
(0 0 0)
(0 0 0)
(0 0 0)
(0 0 0)
(0 0 0)
(0 0 0)
(0 0 0)
(0 0 0)
(0 0 0)
(0 0 0)
(0 0 0)
(0 0 0)
(0 0 0)
(-1.957356189e-05 0.0001093026647 3.747002708e-16)
(0 0 0)
(-0.0008333564969 0.00558949298 1.891542478e-14)
(-0.001238734478 0.008224740975 2.807476474e-14)
(-0.001939049177 0.01374429843 4.690692279e-14)
(-0.001423566091 0.01018628667 3.447242491e-14)
(-0.003257786911 0.02915641936 9.862943795e-14)
(-0.003954626783 0.0351086315 1.197930644e-13)
(-0.004425291167 0.0428759771 1.462718835e-13)
(-0.003721780388 0.03634780718 1.229433222e-13)
(-0.004248205506 0.05710247249 1.931232951e-13)
(-0.004845033727 0.06462326766 2.204486593e-13)
(-0.004637116267 0.07070695241 2.412098299e-13)
(-0.004106094284 0.06309141971 2.133848653e-13)
(-0.002850051413 0.07659203455 2.590705428e-13)
(-0.003148823291 0.08400256005 2.86590196e-13)
(-0.002440592995 0.08671724934 2.958744361e-13)
(-0.002220235719 0.07944829486 2.687294831e-13)
(0 0 0)
(0 0 0)
(0 0 0)
(0 0 0)
(0 0 0)
(0 0 0)
(0 0 0)
(0 0 0)
(0 0 0)
(0 0 0)
(0 0 0)
(0 0 0)
(0 0 0)
(0 0 0)
(0 0 0)
(0 0 0)
(0 0 0)
(-9.046864089e-05 0.0004673847911 1.637578961e-15)
(-0.0002057432568 0.001053264752 3.73312492e-15)
(-0.0007308577582 0.003936554756 1.393329896e-14)
(-0.0004913316443 0.002670553406 9.36750677e-15)
(-0.002890197533 0.01863408818 6.5336625e-14)
(-0.003419457836 0.0218486448 7.729927809e-14)
(-0.004410353735 0.03005004765 1.063038546e-13)
(-0.00382327975 0.0262860961 9.214851104e-14)
(-0.006050846573 0.05200330189 1.822292317e-13)
(-0.006682702764 0.05685993811 2.010752675e-13)
(-0.007051244582 0.06542958952 2.313566005e-13)
(-0.006445379588 0.06046180581 2.118305531e-13)
(-0.006401425845 0.08290870459 2.903788321e-13)
(-0.006795141088 0.08691402226 3.071709553e-13)
(-0.006286802382 0.09200418395 3.251288128e-13)
(-0.005944053605 0.08802422879 3.082811784e-13)
(-0.003789623776 0.09832756465 3.4440506e-13)
(-0.00391139973 0.1001473846 3.539391003e-13)
(-0.002963752895 0.1010953126 3.572975249e-13)
(-0.002892573082 0.09991072164 3.499700529e-13)
(0 0 0)
(0 0 0)
(0 0 0)
(0 0 0)
(0 0 0)
(0 0 0)
(0 0 0)
(0 0 0)
(0 0 0)
(0 0 0)
(0 0 0)
(0 0 0)
(0 0 0)
(0 0 0)
(-8.61071019e-06 3.827414104e-05 1.387778781e-16)
(-2.349623712e-07 1.054516213e-06 0)
(0 0 0)
(-0.0006459554319 0.003215914833 1.169897512e-14)
(-0.0008153118024 0.004020923897 1.476596623e-14)
(-0.001691744872 0.008778492308 3.222422329e-14)
(-0.001443324279 0.007560471484 2.750577544e-14)
(-0.004691874099 0.02915289835 1.059985433e-13)
(-0.005106667878 0.03142867068 1.153521723e-13)
(-0.006205973675 0.04072219208 1.494360191e-13)
(-0.005880711115 0.03896417767 1.416644579e-13)
(-0.008146993569 0.06735758832 2.448180547e-13)
(-0.008479975701 0.06941552563 2.546574063e-13)
(-0.008710960158 0.0777005354 2.850497616e-13)
(-0.008411022334 0.07578572961 2.754324546e-13)
(-0.007614968823 0.09385845202 3.411021465e-13)
(-0.007765963039 0.09465503085 3.472500065e-13)
(-0.006995885805 0.09710844671 3.562566908e-13)
(-0.006907724596 0.09706497015 3.527456105e-13)
(-0.004057881676 0.09887583569 0)
(-0.004107087066 0.09792551539 0)
(-0.003613130669 0.09792874326 0)
(-0.003092401795 0.09795316547 0)
(-0.003063671632 0.09842354726 0)
(-0.003054254705 0.09888272196 0)
(0 0 0)
(0 0 0)
(0 0 0)
(0 0 0)
(0 0 0)
(0 0 0)
(0 0 0)
(0 0 0)
(0 0 0)
(0 0 0)
(0 0 0)
(0 0 0)
(0 0 0)
(0 0 0)
(-7.758732129e-05 0.0003316131491 1.276756478e-15)
(-4.421474004e-05 0.0001908588433 7.21644966e-16)
(-3.617151055e-05 0.0001576715287 5.828670879e-16)
(-0.001171463058 0.005610909136 2.120525977e-14)
(-0.001214895819 0.005761757601 2.198241589e-14)
(-0.002249706767 0.01122484993 4.284073096e-14)
(-0.002190408444 0.01103780603 4.170275236e-14)
(-0.005896886331 0.03522779029 1.330602295e-13)
(-0.00598973301 0.03542503151 1.351141421e-13)
(-0.007133807041 0.04497123934 1.715017017e-13)
(-0.007035507315 0.04479987728 1.691841112e-13)
(-0.009146686264 0.07257769774 2.740169203e-13)
(-0.009235436597 0.07253136863 2.765287999e-13)
(-0.009362056549 0.08007104511 3.052696984e-13)
(-0.009284003991 0.0802371969 3.029243523e-13)
(-0.007985332261 0.09412216383 3.553685124e-13)
(-0.008015343536 0.09343306542 3.562566908e-13)
(-0.007106567545 0.09420363551 0)
(-0.007095313043 0.09513195296 3.592126596e-13)
(-0.004170083022 0.09511276381 0)
(-0.004177853928 0.094641613 0)
(-0.003690604659 0.09463923146 0)
(-0.003682884427 0.0951096405 0)
(0 0 0)
(0 0 0)
(0 0 0)
(0 0 0)
(0 0 0)
(0 0 0)
(0 0 0)
(0 0 0)
(0 0 0)
(0 0 0)
(0 0 0)
(0 0 0)
(0 0 0)
(0 0 0)
(-0.0001273634317 0.0005228028923 2.095545959e-15)
(-0.0001150348947 0.0004770591286 1.887379142e-15)
(-0.0001009184443 0.0004227861416 1.665334537e-15)
(-0.001443405473 0.006642958545 2.611799665e-14)
(-0.001492490543 0.006799659554 2.700617507e-14)
(-0.002602778028 0.0124746864 4.954370247e-14)
(-0.002541467087 0.01230512863 4.83779683e-14)
(-0.00635953154 0.03648654246 1.433853036e-13)
(-0.006434845154 0.03654022222 1.450506382e-13)
(-0.007566316096 0.04578218241 1.817157536e-13)
(-0.007493328974 0.04581355433 1.799949079e-13)
(-0.009489321919 0.07221214573 2.83648105e-13)
(-0.009541018408 0.07183514467 2.850358838e-13)
(-0.009608336522 0.07874261633 3.124445147e-13)
(-0.00956641394 0.079248943 3.112787805e-13)
(-0.008073955915 0.09103325505 3.576305918e-13)
(-0.008087438149 0.09017057919 3.578526364e-13)
(-0.007143603084 0.09050609109 0)
(-0.007134945806 0.09142818276 0)
(-0.004214444345 0.09139772006 0)
(-0.004219054235 0.09093635662 0)
(-0.003733051258 0.09093135518 0)
(-0.003728377255 0.09139271792 0)
(0 0 0)
(0 0 0)
(0 0 0)
(0 0 0)
(0 0 0)
(0 0 0)
(0 0 0)
(0 0 0)
(0 0 0)
(0 0 0)
(0 0 0)
(0 0 0)
(0 0 0)
(0 0 0)
(-0.0001878762093 0.0007394909799 3.094746681e-15)
(-0.000169383569 0.0006738384489 2.789435349e-15)
(-0.0001529184314 0.0006147949112 2.525757381e-15)
(-0.001614635338 0.007131846313 2.922662112e-14)
(-0.001664111168 0.007273333438 3.011479954e-14)
(-0.002814921314 0.01294154503 5.356826094e-14)
(-0.00275416339 0.01279672368 5.241640455e-14)
(-0.006619234184 0.03642157845 1.4911683e-13)
(-0.006692140433 0.03643006211 1.507405312e-13)
(-0.007815390441 0.04532075966 1.874889133e-13)
(-0.007745055417 0.04540031079 1.858513343e-13)
(-0.009668650744 0.07046375852 2.883943084e-13)
(-0.009717714075 0.07004158294 2.896849427e-13)
(-0.009751956603 0.07647389014 3.162886619e-13)
(-0.009712481501 0.07702037296 3.152200723e-13)
(-0.008122729045 0.08753453948 3.583106034e-13)
(-0.008134408128 0.08665544648 3.584771369e-13)
(-0.007176738796 0.08682546707 0)
(-0.00716859909 0.08774512768 0)
(-0.004249998747 0.08771477079 0)
(-0.004254311627 0.08725519956 0)
(-0.003768970013 0.08725031205 0)
(-0.003766770602 0.08748011858 0)
(-0.003764573247 0.08770973276 0)
(0 0 0)
(0 0 0)
(0 0 0)
(0 0 0)
(0 0 0)
(0 0 0)
(0 0 0)
(0 0 0)
(0 0 0)
(0 0 0)
(0 0 0)
(0 0 0)
(0 0 0)
(0 0 0)
(-0.0002690483749 0.001013675565 4.440892099e-15)
(-0.0002470600871 0.0009412346427 4.066191828e-15)
(-0.0002257925618 0.0008697186463 3.719247132e-15)
(-0.001818784721 0.007696415473 3.291811268e-14)
(-0.001873270562 0.007840063968 3.388955783e-14)
(-0.003068994775 0.0135092222 5.83977311e-14)
(-0.00300323766 0.01336675632 5.714873019e-14)
(-0.006915056472 0.03642508308 1.556532681e-13)
(-0.006991870897 0.03641884081 1.573463582e-13)
(-0.008103359083 0.04494905186 1.94178007e-13)
(-0.008029750378 0.04504660918 1.924710391e-13)
(-0.009865680524 0.06873529504 2.936262344e-13)
(-0.009915865021 0.06829085569 2.949446243e-13)
(-0.009910132712 0.07422741419 3.205907761e-13)
(-0.009870282163 0.07479594611 3.195083087e-13)
(-0.008167169675 0.08399183131 3.588657149e-13)
(-0.008177301984 0.0830959909 3.589628594e-13)
(-0.007208337385 0.083144677 0)
(-0.007200598021 0.08406487623 0)
(-0.004283791483 0.08403466675 0)
(-0.004287831106 0.08357466513 0)
(-0.003803323195 0.08356976516 0)
(-0.003801249955 0.0837997654 0)
(-0.003799155801 0.08402972266 0)
(0 0 0)
(0 0 0)
(0 0 0)
(0 0 0)
(0 0 0)
(0 0 0)
(0 0 0)
(0 0 0)
(0 0 0)
(0 0 0)
(0 0 0)
(0 0 0)
(0 0 0)
(0 0 0)
(-0.0003400352114 0.001223814713 5.606626274e-15)
(-0.0003516531581 0.00128044622 5.800915304e-15)
(-0.0003210112966 0.001182406522 5.287437155e-15)
(-0.002051354761 0.008299693733 3.71092046e-14)
(-0.002120982222 0.008482804815 3.837208329e-14)
(-0.003364465029 0.01415051479 6.400435737e-14)
(-0.003281956244 0.01396445307 6.243616735e-14)
(-0.007236818193 0.03641816808 1.627586954e-13)
(-0.00733009596 0.0364559272 1.647987302e-13)
(-0.008425778924 0.04461279194 2.016442568e-13)
(-0.00833717354 0.04466973089 1.995903443e-13)
(-0.01007286263 0.06695424997 2.990940828e-13)
(-0.01013108727 0.06653024228 3.006345173e-13)
(-0.01007897727 0.07195626436 3.251565683e-13)
(-0.01003371455 0.07251307952 3.239214452e-13)
(-0.008205320551 0.08038520984 3.591710263e-13)
(-0.008213921329 0.07947293173 3.592126596e-13)
(-0.007238577945 0.07946496248 0)
(-0.007231033205 0.08038495005 0)
(-0.004314714549 0.08035508776 0)
(-0.004318347664 0.07989512455 0)
(-0.003834757569 0.07989034125 0)
(-0.003832897356 0.08012040788 0)
(-0.003831017598 0.08035030332 0)
(-0.003723588631 0.09185480615 0)
(-0.004209720063 0.09185978759 0)
(-0.003762375892 0.08793934695 0)
(-0.003760175796 0.08816921759 0)
(-0.004245685638 0.08817436338 0)
(-0.003797062333 0.08425961582 0)
(-0.003794967722 0.08448961583 0)
(-0.004279709574 0.08449462517 0)
(-0.003829138298 0.08058015601 0)
(-0.00382723717 0.08081005122 0)
(-0.004311040062 0.08081492229 0)
(-0.003673854878 0.0955805669 0)
(-0.004161179742 0.09558387473 0)
(-0.0005584815511 0.09887434594 0)
(-0.0005647719469 0.09841753167 0)
(-0.007160394358 0.08866487309 0)
(-0.008111374382 0.08841695205 3.581857033e-13)
(-0.004731517189 0.08817940575 0)
(-0.004735766413 0.0877197911 0)
(-0.004700703776 0.09140272424 0)
(-0.004705270466 0.0909414031 0)
(-0.007192751117 0.08498513843 0)
(-0.0081567279 0.08488457994 3.587546926e-13)
(-0.004764921819 0.08449961817 0)
(-0.004768939843 0.08403963769 0)
(-0.004739994037 0.08726019758 0)
(-0.004267157115 0.08587520248 0)
(-0.003782115154 0.08587027542 0)
(-0.003779912546 0.08610038114 0)
(-0.003777732222 0.08633040161 0)
(-0.004262902182 0.08633535141 0)
(-0.002327719935 0.08585552343 0)
(-0.002326928398 0.08597059029 0)
(-0.002326513221 0.08608563979 0)
(-0.002568803622 0.08608807948 0)
(-0.00257081389 0.0858579717 0)
(-0.002309897756 0.08769480679 0)
(-0.002552397137 0.08769729146 0)
(-0.002554785919 0.08746776481 0)
(-0.002312456593 0.08746536745 0)
(-0.002311122833 0.08758017203 0)
(-0.007223511207 0.08130480963 0)
(-0.008195743736 0.08128796964 3.591016373e-13)
(-0.0047956762 0.08081982364 0)
(-0.004799286802 0.08035996705 0)
(-0.004772893982 0.08357963516 0)
(-0.004299696034 0.08219442246 0)
(-0.003815531431 0.08218939791 0)
(-0.003813543448 0.08241942043 0)
(-0.003811533408 0.08264950684 0)
(-0.004295805781 0.08265444705 0)
(-0.002366050659 0.08217478393 0)
(-0.002364272461 0.08228977613 0)
(-0.002486162943 0.08229105737 0)
(-0.002487584471 0.08217603999 0)
(-0.002349669613 0.0840152155 0)
(-0.002590439302 0.08401755344 0)
(-0.002592768539 0.08378759869 0)
(-0.002352191418 0.08378524143 0)
(-0.002351111827 0.08390026246 0)
(-0.004802877403 0.07989998201 0)
(-0.004328924843 0.07851538108 0)
(-0.004087108424 0.0785129892 0)
(-0.004085354382 0.07874312109 0)
(-0.004327192399 0.07874549182 0)
(-0.002387452445 0.0784957444 0)
(-0.002388766275 0.07861100474 0)
(-0.002515876664 0.078612641 0)
(-0.002515675128 0.07849749941 0)
(-0.002376988821 0.08033566211 0)
(-0.002502234652 0.08033717158 0)
(-0.002504038577 0.08022237202 0)
(-0.00237961294 0.08022091407 0)
(-0.002250454801 0.09322909127 0)
(-0.002253145138 0.09299734713 0)
(-0.002009966008 0.09299506893 0)
(-0.002008618212 0.09311098692 0)
(-0.002007414434 0.0932266286 0)
(-0.002270903972 0.09137759106 0)
(-0.002026792441 0.09137496092 0)
(-0.002025658819 0.09149023786 0)
(-0.002025162906 0.09160584221 0)
(-0.002268671999 0.09160844454 0)
(-0.002219151449 0.09510865525 0)
(-0.002224522202 0.09487149506 0)
(-0.001979746872 0.09487397893 0)
(-0.001974376955 0.09511066079 0)
(-0.002004516393 0.09345920836 0)
(-0.002247567228 0.0934614916 0)
(-0.00230856628 0.08780939766 0)
(-0.002307381889 0.08792422521 0)
(-0.002550008355 0.08792681811 0)
(-0.002291540777 0.08953453328 0)
(-0.002533697992 0.08953703567 0)
(-0.002536091113 0.08930710297 0)
(-0.002293997783 0.08930462264 0)
(-0.004232515929 0.08955469898 0)
(-0.004236941831 0.08909455188 0)
(-0.003751259878 0.08908951111 0)
(-0.003746770091 0.08954963616 0)
(-0.00205257032 0.08930223492 0)
(-0.002051377152 0.08941708375 0)
(-0.002049847773 0.08953199311 0)
(-0.002188026508 0.08769352575 0)
(-0.002186628781 0.08780811591 0)
(-0.002273346459 0.09114703905 0)
(-0.002029272254 0.09114451618 0)
(-0.002027651599 0.09125976654 0)
(-0.002048501043 0.08964701128 0)
(-0.00204697106 0.08976217712 0)
(-0.002288974403 0.08976467786 0)
(-0.002348292197 0.0841301051 0)
(-0.002346808382 0.08424495083 0)
(-0.00258798321 0.0842473786 0)
(-0.002573018554 0.08562767364 0)
(-0.002329626316 0.08562513668 0)
(-0.002328264708 0.08574034706 0)
(-0.004271392504 0.08541488235 0)
(-0.00378643717 0.08540984935 0)
(-0.003784276619 0.08564001964 0)
(-0.002204652627 0.08573896193 0)
(-0.002204321336 0.08585416194 0)
(-0.002229981353 0.08401406465 0)
(-0.002228253678 0.08412892915 0)
(-0.0021894266 0.08757891424 0)
(-0.002204448301 0.08596928137 0)
(-0.002374610469 0.08045041278 0)
(-0.002500537811 0.0804519509 0)
(-0.002488962801 0.0820610649 0)
(-0.002367826491 0.08205981309 0)
(-0.00430351852 0.08173473913 0)
(-0.003819459174 0.08172986532 0)
(-0.003817517816 0.08195952499 0)
(-0.002245893039 0.08205855276 0)
(-0.002243391273 0.08217345172 0)
(-0.002248541284 0.08033394744 0)
(-0.002244979656 0.08044862135 0)
(-0.002231603085 0.08389911354 0)
(-0.002240890959 0.08228841483 0)
(-0.002516776775 0.07838241449 0)
(-0.002388857105 0.07838070547 0)
(-0.004330656601 0.07828533444 0)
(-0.004088840182 0.07828294256 0)
(-0.002258620266 0.07837882206 0)
(-0.002256261002 0.07849378667 0)
(-0.002252495911 0.08021929911 0)
(-0.00225869613 0.07860912312 0)
(-0.007125997913 0.09235146824 0)
(-0.008058034651 0.09187044124 3.573114027e-13)
(-0.004696044064 0.09186474972 0)
(-0.004657322602 0.09511605191 0)
(-0.004664872676 0.09464556517 0)
(-0.004195071662 0.09324648954 0)
(-0.003708635279 0.09324204345 0)
(-0.003703109296 0.09370712891 0)
(-0.004189588056 0.09371160966 0)
(-0.002490514864 0.09346383145 0)
(-0.002493404232 0.09323146319 0)
(-0.002462730282 0.09510973183 0)
(-0.002468264326 0.09487189199 0)
(-0.003742234135 0.09001008132 0)
(-0.004228065915 0.09001510231 0)
(-0.002531281215 0.08976718185 0)
(-0.002514065858 0.09138008281 0)
(-0.002516508345 0.09114953081 0)
(-0.002511662916 0.09161093447 0)
(-0.002496073312 0.09299970814 0)
(-0.004199990248 0.09278424027 0)
(-0.003713685335 0.09277949207 0)
(-0.001293041061 0.09229304403 0)
(-0.001302372714 0.09217744861 0)
(-0.001194722813 0.09217642642 0)
(-0.001184328411 0.09229226697 0)
(-0.001237323156 0.09512096292 0)
(-0.001242490736 0.09499841441 0)
(-0.001119461499 0.09500029049 0)
(-0.001113440231 0.09512452159 0)
(-0.001259264907 0.09415639667 0)
(-0.00113706906 0.09415668953 0)
(-0.00113470052 0.09427492206 0)
(-0.001258670249 0.09427444083 0)
(-0.002129121825 0.09702904184 0)
(-0.002171053574 0.09653814143 0)
(-0.001921993998 0.09654231719 0)
(-0.001665188493 0.09655310651 0)
(-0.001643832766 0.09679643657 0)
(-0.00162304724 0.09703601097 0)
(-0.001966873007 0.09535063147 0)
(-0.002214161806 0.09534375355 0)
(-0.002398837504 0.07941640449 0)
(-0.002517214719 0.07941743445 0)
(-0.002518913843 0.07930244141 0)
(-0.002401284162 0.07930146219 0)
(-0.003356234739 0.07942539632 0)
(-0.003358114268 0.07919552226 0)
(-0.003117664689 0.07919323048 0)
(-0.003115699904 0.07942308226 0)
(-0.003363709199 0.07850598508 0)
(-0.003123345104 0.07850369422 0)
(-0.003121463063 0.07873380337 0)
(-0.003361870128 0.07873607332 0)
(-0.00126935498 0.0932198333 0)
(-0.001253343955 0.093101041 0)
(-0.001101804309 0.09307113575 0)
(-0.001158681658 0.0932201232 0)
(-0.001173303462 0.09240730996 0)
(-0.001283017733 0.09240816185 0)
(-0.002261362158 0.09230245184 0)
(-0.00201866693 0.09230009332 0)
(-0.002017157192 0.09241596469 0)
(-0.002015704537 0.09253149471 0)
(-0.002258631798 0.0925339412 0)
(-0.001405199091 0.09240942483 0)
(-0.001412986688 0.09229411213 0)
(-0.001390484409 0.09322092901 0)
(-0.001382419144 0.09310322405 0)
(-0.001254213394 0.09136328476 0)
(-0.001247314655 0.09147202389 0)
(-0.001376655866 0.09148131436 0)
(-0.001373030283 0.09136577282 0)
(-0.001420122531 0.09217838637 0)
(-0.00226400909 0.09207076922 0)
(-0.002021485434 0.09206815605 0)
(-0.002020147123 0.09218398651 0)
(-0.00223763966 0.09416324877 0)
(-0.001994437518 0.0941615239 0)
(-0.001990054371 0.09439867028 0)
(-0.002233243312 0.09440023044 0)
(-0.001382135448 0.09427517037 0)
(-0.001382911084 0.09415699135 0)
(-0.001362372844 0.09511482624 0)
(-0.001365647019 0.09499605024 0)
(-0.00127678655 0.09333743532 0)
(-0.001395064815 0.09333812438 0)
(-0.001382360354 0.09403912517 0)
(-0.001257089376 0.0940385687 0)
(-0.002241260801 0.09392820595 0)
(-0.001998032567 0.09392632263 0)
(-0.001134144779 0.09403812472 0)
(-0.001164635944 0.09333755981 0)
(-0.002300222755 0.08861413039 0)
(-0.002178039717 0.08861282464 0)
(-0.002177336943 0.08872778558 0)
(-0.002299144078 0.08872906594 0)
(-0.00135457808 0.08952561021 0)
(-0.001461937334 0.0895266293 0)
(-0.001467104619 0.08941190843 0)
(-0.001360159965 0.08941089378 0)
(-0.002301173661 0.08849915073 0)
(-0.002178873082 0.08849784373 0)
(-0.002281208655 0.09045534601 0)
(-0.002038208194 0.09045274911 0)
(-0.002036588305 0.09056812772 0)
(-0.002035212505 0.0906834662 0)
(-0.002278573142 0.09068596007 0)
(-0.001308291279 0.09044462804 0)
(-0.001302313506 0.09055978909 0)
(-0.001413054668 0.09056095119 0)
(-0.001418724468 0.09044580822 0)
(-0.001376544274 0.09125075643 0)
(-0.001261569637 0.09124933536 0)
(-0.001349049167 0.08964036996 0)
(-0.001456766999 0.08964143562 0)
(-0.001424245665 0.09033077053 0)
(-0.00131419479 0.09032961582 0)
(-0.002283819598 0.09022503091 0)
(-0.00204114375 0.09022245886 0)
(-0.002039608498 0.09033751777 0)
(-0.002338040164 0.08493522354 0)
(-0.002215698752 0.08493393747 0)
(-0.002213873994 0.08504888642 0)
(-0.002336392559 0.08505019575 0)
(-0.002339384985 0.08482018396 0)
(-0.002217494503 0.08481890272 0)
(-0.002320212521 0.08677561827 0)
(-0.002199509589 0.08677441383 0)
(-0.002198069511 0.08688936689 0)
(-0.002318919676 0.08689059427 0)
(-0.002321526965 0.08666062112 0)
(-0.002200935163 0.08665941787 0)
(-0.002378560321 0.08125581123 0)
(-0.002260420326 0.0812547838 0)
(-0.002260013013 0.08136989751 0)
(-0.002377907239 0.08137092231 0)
(-0.002378064092 0.08114064511 0)
(-0.002258469636 0.08113951665 0)
(-0.002353319912 0.08309484433 0)
(-0.002226469566 0.08309327497 0)
(-0.002227051507 0.08320842062 0)
(-0.002352921376 0.08320993676 0)
(-0.002354265093 0.08297980048 0)
(-0.002227213857 0.08297822898 0)
(-0.003365569184 0.07827593982 0)
(-0.003125290573 0.07827364987 0)
(-0.002281412757 0.07941544883 0)
(-0.002277400052 0.07953033164 0)
(-0.002396185227 0.07953138734 0)
(-0.002285123672 0.07930060553 0)
(-0.001172608097 0.0961001772 0)
(-0.001195624243 0.09585367595 0)
(-0.0009388577159 0.09586381807 0)
(-0.0009075166726 0.09611210908 0)
(-0.001106196855 0.09524910961 0)
(-0.001230486537 0.09524548924 0)
(-0.002476959776 0.08309622976 0)
(-0.002478018224 0.08298118713 0)
(-0.003323689294 0.08310478699 0)
(-0.003325827561 0.08287470195 0)
(-0.003084246453 0.08287229121 0)
(-0.003082065673 0.08310235442 0)
(-0.003332134819 0.08218450981 0)
(-0.003090746052 0.08218210113 0)
(-0.003088586871 0.08241214319 0)
(-0.003330039752 0.08241455256 0)
(-0.003315118055 0.08402482771 0)
(-0.003317276322 0.08379487113 0)
(-0.003075524474 0.08379243719 0)
(-0.003073323464 0.08402239332 0)
(-0.003079906264 0.08333241786 0)
(-0.003321572627 0.08333485088 0)
(-0.002476050927 0.08321127399 0)
(-0.003348324635 0.08034557235 0)
(-0.003350311248 0.08011567806 0)
(-0.003109413331 0.08011333874 0)
(-0.003107320091 0.08034321052 0)
(-0.003113625522 0.07965318935 0)
(-0.003354288585 0.07965550479 0)
(-0.00251538691 0.07953246886 0)
(-0.002580435512 0.08493764298 0)
(-0.002582959144 0.08470749794 0)
(-0.002340980762 0.08470506158 0)
(-0.003306353105 0.08494499461 0)
(-0.003308577541 0.08471484637 0)
(-0.003066633581 0.08471238901 0)
(-0.003064366403 0.08494253679 0)
(-0.003071102226 0.08425224236 0)
(-0.00331293933 0.08425469858 0)
(-0.001877598037 0.08401100414 0)
(-0.001872751776 0.08412568569 0)
(-0.001990483582 0.08412670875 0)
(-0.001993943313 0.08401196964 0)
(-0.001858218263 0.08446983726 0)
(-0.001979907856 0.08447111636 0)
(-0.001983435437 0.08435622835 0)
(-0.001863050706 0.08435504869 0)
(-0.002343902582 0.08447485668 0)
(-0.002345345253 0.0843598609 0)
(-0.002224697886 0.08435865706 0)
(-0.002222913505 0.08447362781 0)
(-0.002497941065 0.08125693741 0)
(-0.002498337693 0.08114182358 0)
(-0.003340334984 0.08126519182 0)
(-0.003342258625 0.08103518998 0)
(-0.003101212024 0.08103276359 0)
(-0.00309920267 0.08126278588 0)
(-0.003105248907 0.08057301842 0)
(-0.003346338935 0.08057538116 0)
(-0.003334206688 0.0819546378 0)
(-0.003092882034 0.0819522298 0)
(-0.003097107603 0.08149282863 0)
(-0.003338304258 0.08149521389 0)
(-0.002497053358 0.08137200324 0)
(-0.002373162407 0.08171571284 0)
(-0.002253469873 0.08171456195 0)
(-0.002250924516 0.08182913985 0)
(-0.002371377635 0.08183032024 0)
(-0.001896809426 0.08171132748 0)
(-0.001890193244 0.08182562677 0)
(-0.00201001828 0.08182677907 0)
(-0.00201528472 0.08171237987 0)
(-0.001871512345 0.0821692638 0)
(-0.001994840419 0.08217062453 0)
(-0.0019998607 0.08205585934 0)
(-0.001877705444 0.08205455389 0)
(-0.001878767853 0.08032914081 0)
(-0.001871130212 0.08044362154 0)
(-0.00198318906 0.08044488321 0)
(-0.001990057568 0.08033037289 0)
(-0.001848736575 0.08078027248 0)
(-0.001976651336 0.08078944084 0)
(-0.001973278324 0.08067426535 0)
(-0.001855943221 0.08067192136 0)
(-0.00237234446 0.08079525117 0)
(-0.002371857089 0.08068025614 0)
(-0.002241299226 0.08067841205 0)
(-0.002243125881 0.08079348551 0)
(-0.002353358978 0.08355518876 0)
(-0.002232878077 0.08355400808 0)
(-0.002233458567 0.0836690896 0)
(-0.00235309981 0.08367023994 0)
(-0.001883583428 0.08355113018 0)
(-0.001887506673 0.08366641841 0)
(-0.001999776621 0.08366712663 0)
(-0.001996049762 0.08355186187 0)
(-0.001997115904 0.08389709921 0)
(-0.001882197306 0.08389623445 0)
(-0.001865319018 0.08228399507 0)
(-0.00198982823 0.08228543254 0)
(-0.00184670866 0.08262823132 0)
(-0.001974819218 0.08262987826 0)
(-0.001979803625 0.08251506995 0)
(-0.00185291481 0.08251350018 0)
(-0.002358960918 0.0826347957 0)
(-0.002360720111 0.08251978193 0)
(-0.002235903154 0.08251834117 0)
(-0.002233437034 0.08263330464 0)
(-0.002387902558 0.07987622555 0)
(-0.002264954891 0.07987486889 0)
(-0.002260775719 0.07998972855 0)
(-0.002385118237 0.07999116424 0)
(-0.001910750509 0.07987121182 0)
(-0.001902756966 0.07998579562 0)
(-0.002012035347 0.07998683521 0)
(-0.002019407219 0.0798722234 0)
(-0.001997303431 0.08021595209 0)
(-0.001886753924 0.08021485617 0)
(-0.001974395076 0.07895716717 0)
(-0.002069187663 0.07895589322 0)
(-0.002056225865 0.07883997406 0)
(-0.001982343155 0.07885183764 0)
(-0.002402244183 0.07895722968 0)
(-0.002398196757 0.07884196149 0)
(-0.002278119314 0.07884082786 0)
(-0.002286329233 0.07895639702 0)
(-0.001318556192 0.09183190401 0)
(-0.001221711438 0.09183300641 0)
(-0.001212712815 0.09194663903 0)
(-0.001316941035 0.09194723992 0)
(-0.001305207478 0.09171518989 0)
(-0.001229898775 0.09172688862 0)
(-0.001253282375 0.09463560305 0)
(-0.001131197129 0.09463554657 0)
(-0.001127465552 0.09475732323 0)
(-0.001249855648 0.09475705382 0)
(-0.0008810175049 0.09476012907 0)
(-0.0008885703905 0.09463997916 0)
(-0.0008635341231 0.09513611021 0)
(-0.0008718781711 0.09500852847 0)
(-0.0008956252961 0.09452002698 0)
(-0.0008071373462 0.09453415397 0)
(-0.001256005554 0.09451378569 0)
(-0.001133340892 0.09451434712 0)
(-0.001252331772 0.09275235454 0)
(-0.001138816783 0.09275094907 0)
(-0.001126286817 0.0928648218 0)
(-0.001244152773 0.09286749207 0)
(-0.001262412655 0.09263745108 0)
(-0.001150695974 0.09263617169 0)
(-0.00138210303 0.09275440396 0)
(-0.001389304145 0.09263917049 0)
(-0.001767041058 0.09276020622 0)
(-0.00176913377 0.09264438382 0)
(-0.001644354287 0.09264283659 0)
(-0.001641322386 0.09275854209 0)
(-0.001776008489 0.09229769244 0)
(-0.00165473281 0.09229648188 0)
(-0.001651279899 0.09241218288 0)
(-0.001773708476 0.09241351262 0)
(-0.001763059823 0.09322434425 0)
(-0.001763537312 0.09310846398 0)
(-0.001638687476 0.09310709981 0)
(-0.001639533654 0.09322352002 0)
(-0.001639135951 0.09287453448 0)
(-0.001765322194 0.09287624635 0)
(-0.001377050563 0.09286998099 0)
(-0.001426934751 0.09183214317 0)
(-0.00141335332 0.09171540518 0)
(-0.001780645818 0.09183496139 0)
(-0.001779256944 0.09171912316 0)
(-0.001655582658 0.09171775873 0)
(-0.001659762911 0.09183379778 0)
(-0.001775174748 0.09137190858 0)
(-0.001643482535 0.09137000962 0)
(-0.001645296531 0.09148546768 0)
(-0.001775587711 0.09148726617 0)
(-0.001778153324 0.09218159274 0)
(-0.00165787522 0.09218043559 0)
(-0.001661212684 0.09194933744 0)
(-0.00178084179 0.09195042353 0)
(-0.00142922609 0.09194773456 0)
(-0.001256503646 0.09368597756 0)
(-0.001384547647 0.09368785249 0)
(-0.001389606036 0.09357112135 0)
(-0.001265195692 0.09356983241 0)
(-0.001757748511 0.09369074221 0)
(-0.001759475859 0.0935737083 0)
(-0.001637216788 0.09357251716 0)
(-0.001635055219 0.09368958277 0)
(-0.001639858134 0.09333975725 0)
(-0.001762216709 0.0933406374 0)
(-0.001127850026 0.09368354681 0)
(-0.001119938538 0.09379945237 0)
(-0.001251663572 0.09380248021 0)
(-0.001141850818 0.09356844372 0)
(-0.001377562707 0.08906685836 0)
(-0.00148054835 0.08906753147 0)
(-0.001478979127 0.08895196917 0)
(-0.001383191314 0.0889525699 0)
(-0.001816701727 0.08906988421 0)
(-0.001814328264 0.08895437743 0)
(-0.001697391692 0.08895334149 0)
(-0.001701666501 0.08906893271 0)
(-0.00179746357 0.08860826592 0)
(-0.001663768196 0.08860640967 0)
(-0.001674165524 0.08872189533 0)
(-0.001802806543 0.0887235052 0)
(-0.001811195962 0.08952967779 0)
(-0.001813368384 0.08941479668 0)
(-0.001697119506 0.08941381084 0)
(-0.001694077964 0.08952861854 0)
(-0.00170178141 0.08918418024 0)
(-0.001816667266 0.08918510877 0)
(-0.001371634007 0.08918182757 0)
(-0.001477053137 0.08918259081 0)
(-0.001799574065 0.08814817956 0)
(-0.001802569732 0.0880332645 0)
(-0.001670269437 0.08803146591 0)
(-0.001666162699 0.08814634772 0)
(-0.001812178422 0.08768914579 0)
(-0.001683268584 0.0876874903 0)
(-0.001678832796 0.0878019625 0)
(-0.001808900721 0.08780365174 0)