/*--------------------------------*- C++ -*----------------------------------*\
| =========                 |                                                 |
| \\      /  F ield         | OpenFOAM: The Open Source CFD Toolbox           |
|  \\    /   O peration     | Version:  v2012                                 |
|   \\  /    A nd           | Website:  www.openfoam.com                      |
|    \\/     M anipulation  |                                                 |
\*---------------------------------------------------------------------------*/
FoamFile
{
    version     2.0;
    format      ascii;
    class       surfaceVectorField;
    location    "1.29";
    object      Uf;
}
// * * * * * * * * * * * * * * * * * * * * * * * * * * * * * * * * * * * * * //

dimensions      [0 1 -1 0 0 0 0];


internalField   nonuniform List<vector> 
5999
(
(99.99922094 0.003028716352 -1.884692099e-21)
(99.99716361 0.002580560213 5.580674119e-21)
(99.99862179 0.008070887191 -1.863384331e-21)
(99.99528038 0.009542082112 1.877603586e-21)
(99.99741487 0.01737957393 -3.719129823e-21)
(99.9912887 0.02231370556 1.121022623e-20)
(99.99868222 0.02145916223 1.15950111e-21)
(99.98366376 0.04587163663 -7.412955727e-21)
(99.99276686 0.04822244762 -1.237231765e-21)
(99.99759821 0.0397136474 1.797684448e-21)
(99.99926182 0.02402373762 8.939682461e-22)
(99.9913354 0.06949217095 1.789732723e-21)
(99.99800241 0.03991594178 8.780173621e-22)
(99.99852531 0.03064897075 -9.008173342e-22)
(99.99749101 0.05165283603 8.779815013e-22)
(99.98626182 0.1171367249 1.749739104e-21)
(99.99719906 0.06634493175 0)
(99.99699602 0.08279280754 -3.246244751e-21)
(99.98156749 0.1841007844 -3.246227856e-21)
(99.99653587 0.1025101116 -8.440922929e-22)
(99.99598238 0.1256379293 2.830458026e-21)
(99.97513732 0.2765379761 3.105873566e-21)
(99.99543266 0.1522574052 3.837066767e-22)
(99.99493629 0.1822048346 -2.59751872e-21)
(99.96930858 0.3961680514 3.689151193e-22)
(99.9945472 0.215051919 -2.693351257e-21)
(99.99434213 0.2499770356 2.061061555e-22)
(99.96674362 0.5352143798 -1.817381531e-21)
(99.99443009 0.2855692062 2.371273551e-21)
(99.99489431 0.3199477687 2.071006392e-21)
(99.9712134 0.6719350916 -9.257410302e-22)
(99.99573933 0.3508171337 0)
(99.99275315 0.00813113066 9.322024286e-21)
(99.98952335 0.00359561305 2.160310348e-22)
(99.98696152 0.0220107387 1.491264656e-20)
(99.98227602 0.01425892627 -1.302359744e-20)
(99.97618941 0.04786565341 7.800950842e-21)
(99.96709727 0.03564076464 -2.025425179e-20)
(99.96993815 0.08400976872 -1.309741244e-21)
(99.94184997 0.07602252846 3.895705707e-20)
(99.94796287 0.1011776661 -8.594685567e-21)
(99.95470028 0.1089047954 -1.841686128e-21)
(99.96486518 0.1099508671 3.642357856e-21)
(99.97897415 0.07736769074 1.809423515e-21)
(99.9650185 0.1354496676 1.774168263e-21)
(99.9538688 0.1462720475 1.801238541e-21)
(99.92208007 0.1945456953 -3.633609118e-21)
(99.9416321 0.1921764412 -1.530697066e-23)
(99.94468035 0.2277381765 1.750013703e-21)
(99.92698327 0.2494072337 -1.388609714e-23)
(99.879698 0.3277446758 0)
(99.91928082 0.2975512092 0)
(99.89692444 0.340232659 -2.186537175e-21)
(99.9221562 0.350036719 -4.308649113e-21)
(99.91295176 0.3670871821 -4.55258159e-23)
(99.88740051 0.4253359891 -9.692747761e-21)
(99.90512613 0.4042037523 -3.331796556e-21)
(99.87885892 0.5591394687 2.936052899e-23)
(99.89386996 0.5299177025 -2.210434193e-21)
(99.84520868 0.6476659473 -1.211594492e-20)
(99.87137161 0.6111146722 -2.949155698e-21)
(99.84627056 0.8148520344 -5.616933142e-21)
(99.86759135 0.7657635718 -5.274023924e-21)
(99.80546893 0.9411566566 4.560122281e-22)
(99.84068298 0.8812006533 -6.74591554e-21)
(99.82620975 1.123881889 -7.828865751e-23)
(99.85442063 1.04537738 -4.501708679e-21)
(99.78347039 1.292913437 -6.949504484e-21)
(99.82660303 1.19965365 -3.393664151e-21)
(99.83817442 1.446130299 -4.160041128e-21)
(99.87088074 1.328066793 -5.679250509e-21)
(99.80320332 1.654867262 4.776159249e-20)
(99.84935094 1.518350432 -4.740070953e-21)
(99.98119252 0.008654646695 -2.23638786e-20)
(99.98136041 0.001591413989 -1.117692537e-20)
(99.96513161 0.02597107353 -4.847853024e-20)
(99.96599386 0.009510186481 1.055222409e-20)
(99.93618247 0.06159369639 1.063355117e-20)
(99.9337003 0.03213608676 -4.104535183e-20)
(99.90269401 0.1217482591 2.480044469e-20)
(99.88138088 0.07793717787 4.466450447e-20)
(99.87010296 0.1309305334 -4.017135614e-20)
(99.91475237 0.1334792528 -7.409368149e-21)
(99.87021645 0.1477453507 -5.464203129e-20)
(99.88059666 0.1694079154 -3.691520716e-21)
(99.86403807 0.2433913832 -7.25659353e-21)
(99.84892885 0.2304020719 -3.618212556e-21)
(99.79271772 0.278813756 2.534731199e-20)
(99.81104917 0.3068004538 7.158241919e-21)
(99.79157279 0.4150259904 -6.294701493e-21)
(99.76628633 0.4016158296 4.620256198e-21)
(99.68201322 0.484969235 -3.57787345e-20)
(99.73772473 0.501405184 2.538325265e-21)
(99.69534783 0.536182611 -1.560924534e-20)
(99.71947515 0.6389786965 -6.510177949e-21)
(99.69897511 0.6340349152 0)
(99.64682336 0.7003576983 6.707446083e-21)
(99.67168136 0.711698712 -6.498183944e-21)
(99.61350489 0.9903313698 3.198152379e-21)
(99.58213362 0.9913522281 1.255759909e-20)
(99.51212218 1.093116831 6.230707894e-21)
(99.55126786 1.099754035 1.561663642e-20)
(99.5082019 1.464432797 8.976429782e-20)
(99.46167868 1.479001622 9.550962797e-20)
(99.37547268 1.630760859 2.703056513e-19)
(99.43489343 1.622046236 1.899935468e-19)
(99.44351426 2.061841547 1.456497247e-19)
(99.37736816 2.106963136 9.320755391e-21)
(99.28972546 2.324685186 9.350835379e-21)
(99.37161201 2.278263077 9.339602881e-21)
(99.49510644 2.69710081 -4.516877301e-19)
(99.4134654 2.796443633 -2.631373778e-19)
(99.35463663 3.070133983 -9.493876634e-19)
(99.45078568 2.95816712 -4.689902294e-19)
(99.96997499 0.001673136171 2.244769617e-20)
(99.97979723 -0.00456882064 -3.741958375e-21)
(99.93949545 0.01401930515 1.886460136e-20)
(99.95439596 -0.008417887544 2.621065152e-20)
(99.88488621 0.04848027275 -7.503279745e-21)
(99.90129468 0.004981973604 -3.727642748e-21)
(99.81307101 0.1265937878 0)
(99.81320445 0.04416673229 5.711077569e-21)
(99.77692151 0.115655561 1.741827811e-20)
(99.81996562 0.1513519671 -5.104241301e-20)
(99.76587926 0.1423928449 1.309574821e-20)
(99.76558287 0.1842045297 0)
(99.71072864 0.2977318599 3.039002851e-22)
(99.70253486 0.2596871232 -2.90553715e-20)
(99.62057325 0.2977538967 -2.903582514e-20)
(99.62698881 0.3562266916 5.895489164e-20)
(99.55607927 0.5317379583 -8.774905458e-20)
(99.53783331 0.4778809225 3.098954366e-20)
(99.41576185 0.548847096 -5.862310787e-20)
(99.46088188 0.624468956 -2.915799843e-20)
(99.40375182 0.6349320954 -4.795408609e-20)
(99.38355951 0.8424330393 6.956735733e-21)
(99.36359169 0.808713687 1.384063437e-20)
(99.28249323 0.8734125057 3.491962184e-20)
(99.30361845 0.9167825174 6.900130427e-21)
(99.13740364 1.351179781 5.07134058e-20)
(99.10254922 1.310655726 6.770022115e-21)
(98.98932098 1.418988901 2.100619465e-19)
(99.02918241 1.471225848 2.506806547e-20)
(98.86480759 2.109324661 -7.505604497e-19)
(98.80167438 2.069889214 2.837511334e-19)
(98.65715361 2.256365038 -5.572948232e-20)
(98.73270767 2.306893691 -4.203879011e-19)
(98.68902216 3.136497041 -2.011707581e-20)
(98.58287283 3.12603638 -3.116793041e-20)
(98.4312702 3.418479587 -1.182026051e-23)
(98.5619103 3.429647605 -5.360926329e-21)
(98.78869722 4.30468015 -1.012771331e-18)
(98.64076298 4.366368548 -3.210906803e-20)
(98.5481997 4.760480362 3.381452274e-20)
(98.72222563 4.662509574 -4.518495293e-19)
(99.96844191 -0.01492651064 0)
(99.99389171 -0.01547280985 0)
(99.92154817 -0.01833232644 3.765166981e-21)
(99.95766874 -0.04125692223 0)
(99.8371415 0.00121838454 9.470151431e-21)
(99.8829605 -0.04946785487 -3.296919491e-21)
(99.71796735 0.07319967652 1.676681922e-20)
(99.75791305 -0.03086156039 2.103171232e-20)
(99.68210884 0.04703161668 -6.336292018e-21)
(99.71400035 0.1196634284 2.255530871e-20)
(99.65379248 0.08262137744 1.838475665e-21)
(99.63788965 0.1374728401 -8.98031422e-21)
(99.52618773 0.2767933101 0)
(99.53512653 0.2164541018 -1.885738808e-20)
(99.43128099 0.2334268034 -1.545268509e-20)
(99.41233936 0.3178741009 3.845995703e-21)
(99.26462215 0.5337771168 0)
(99.26693005 0.4487127191 3.845583938e-21)
(99.10908369 0.4864541804 -3.954938675e-21)
(99.12309441 0.6238517192 1.931290668e-20)
(99.06057658 0.6055446906 4.96299881e-21)
(98.95208443 0.8994207309 2.801747767e-19)
(98.94492245 0.8354269745 5.716366614e-20)
(98.83390515 0.8855243656 8.656205864e-20)
(98.83922281 0.9612431289 1.120485705e-19)
(98.47717327 1.55697631 -7.430653989e-19)
(98.45666643 1.464931912 -1.568481311e-19)
(98.28867157 1.571152866 -2.066351561e-19)
(98.30987775 1.683910155 3.070671037e-19)
(97.90760352 2.631595316 -8.303851135e-19)
(97.84534794 2.517231047 1.00426778e-19)
(97.61073064 2.725563224 -8.233249828e-19)
(97.68599734 2.868198983 0)
(97.43072975 4.274316374 -7.454238661e-19)
(97.27937731 4.166596413 -1.54026183e-18)
(97.00527863 4.545792476 -1.570956365e-18)
(97.2014645 4.6756651 -2.604197744e-20)
(97.59165766 6.321324922 -3.504486546e-20)
(97.31756042 6.332122896 0)
(97.15072579 6.90927061 0)
(97.51261532 6.878313985 -5.069601406e-19)
(99.98713455 -0.04166752057 0)
(100.0332162 -0.0311010655 1.842109993e-21)
(99.92392058 -0.07230661798 -7.553444132e-21)
(99.98664881 -0.08880566684 -1.85528401e-21)
(99.80974186 -0.08124107688 7.774106946e-21)
(99.89154234 -0.1310676985 -3.770712749e-21)
(99.63571108 -0.02736887032 1.021958023e-20)
(99.73073262 -0.1487245397 2.705253378e-21)
(99.61093887 -0.0766817144 8.197298541e-24)
(99.61084209 0.02954027777 -7.609073583e-21)
(99.56117485 -0.03792694433 -7.648741588e-21)
(99.51960057 0.02547511182 0)
(99.34078821 0.1666588864 -1.545230362e-20)
(99.37629878 0.0904332006 0)
(99.25900335 0.07649655727 -8.234024862e-23)
(99.20295263 0.1778896469 -5.290971284e-23)
(98.95413289 0.4060356898 7.936832439e-21)
(98.994201 0.2940798268 1.193376904e-20)
(98.81080007 0.2915899893 1.604060705e-20)
(98.7745373 0.4682251708 -1.231745656e-20)
(98.71511287 0.426211093 7.807043862e-21)
(98.4748061 0.7739484726 0)
(98.49681093 0.6844685254 1.570952455e-20)
(98.35589084 0.7113199247 2.920896827e-20)
(98.32615012 0.816076594 1.126603387e-19)
(97.68607878 1.497549401 0)
(97.70234187 1.358041914 0)
(97.48187335 1.430541759 0)
(97.45610084 1.598343349 0)
(96.58825787 2.815799899 -2.583932528e-19)
(96.56675976 2.594083081 -2.345561196e-19)
(96.20742495 2.769060353 -1.103286078e-18)
(96.23092034 3.041720238 -2.264826507e-20)
(95.38491703 5.1594262 7.254739365e-19)
(95.22031789 4.854106942 4.618298395e-19)
(94.71947667 5.23730694 4.466889419e-19)
(94.93885277 5.633015653 2.655881456e-19)
(95.17560057 8.782518494 7.449111031e-19)
(94.65940735 8.538805859 2.824757076e-19)
(94.1839903 9.373705936 -3.778696693e-20)
(94.905608 9.65489193 2.277746359e-19)
(100.0362103 -0.07778040816 -1.258739312e-23)
(100.1065986 -0.05084616821 5.459828222e-23)
(99.95856749 -0.1463901212 1.924601725e-21)
(100.0514223 -0.1491011892 -6.594255934e-23)
(99.81818904 -0.1974537279 -1.009719329e-20)
(99.93984158 -0.2361145881 1.510927756e-21)
(99.59213491 -0.1840443948 -9.168352758e-21)
(99.75040585 -0.3038702498 -1.535262488e-20)
(99.58562297 -0.2519684539 -1.304125084e-20)
(99.53998376 -0.1215124365 -7.198222019e-21)
(99.51226314 -0.2174416515 -2.836403713e-21)
(99.44108238 -0.1544804111 3.671409242e-23)
(99.19064275 -0.03614902642 1.160044325e-20)
(99.25991965 -0.1191289586 1.177119395e-20)
(99.13979362 -0.1696742403 5.817778637e-21)
(99.04084433 -0.06506562622 1.999179835e-20)
(98.68517433 0.1426424693 -1.601027263e-20)
(98.77452574 0.01339829156 -1.199308331e-20)
(98.58320809 -0.03885431607 -2.331856038e-20)
(98.47324212 0.1568101301 -3.443061515e-20)
(98.42977559 0.0893384528 -5.517718604e-20)
(98.02600123 0.4443065391 1.745886963e-21)
(98.088958 0.3390733574 -8.585015486e-20)
(97.93035228 0.329854827 -6.003426083e-20)
(97.854622 0.4487074586 -2.35793683e-19)
(96.89664413 1.077840744 -4.719720961e-19)
(96.98321084 0.9023177453 -7.058209071e-19)
(96.72299255 0.9098393747 -4.741572121e-19)
(96.60717298 1.115401051 -4.726674222e-19)
(95.06816798 2.329566398 3.351022531e-19)
(95.16617747 2.024014483 -5.615834235e-20)
(94.71988726 2.066861306 1.387836356e-19)
(94.57605435 2.44088927 3.632938522e-19)
(92.45187164 4.764640817 8.877996193e-20)
(92.46405153 4.206064535 6.845633229e-20)
(91.70068573 4.307971501 -1.706603001e-20)
(91.64872793 5.044416522 -2.271136474e-20)
(89.58345484 10.21953403 0)
(89.01363889 9.074994688 3.86438373e-19)
(87.27629692 10.14337258 0)
(87.55301043 9.467428388 0)
(88.65335619 11.46035892 0)
(87.77985424 11.47166455 0)
(100.1244375 -0.1214623059 1.325635827e-23)
(100.2211779 -0.07358511815 -2.729509764e-21)
(100.035955 -0.2366905967 -4.957419813e-22)
(100.1601371 -0.2186476326 1.188692319e-21)
(99.87623409 -0.3406642147 -3.915426365e-21)
(100.0379757 -0.3579389047 -2.579295465e-21)
(99.60670163 -0.3831102469 8.044853544e-21)
(99.83008939 -0.4852683755 -8.866359539e-22)
(99.62517332 -0.4669999347 8.335980385e-22)
(99.52327152 -0.3262607522 3.915035861e-21)
(99.53001543 -0.4424168412 8.14052378e-21)
(99.42737965 -0.3901704698 5.73449519e-21)
(99.11097477 -0.3201837418 -1.960832924e-21)
(99.21766324 -0.3973661501 3.020320409e-21)
(99.1068189 -0.4844708835 1.996854219e-21)
(98.96350918 -0.3928308995 6.045964313e-21)
(98.51140881 -0.247448043 7.265243474e-21)
(98.65450333 -0.3725102229 1.242481248e-20)
(98.47446643 -0.4766379663 2.732615631e-22)
(98.28805571 -0.2875325383 -7.523781276e-20)
(98.27024444 -0.3776160843 -1.412366912e-20)
(97.71519351 -0.08570340896 1.20811011e-19)
(97.82315073 -0.1876573215 1.187453145e-19)
(97.67190793 -0.2422678608 2.97740237e-22)
(97.54921682 -0.1329327863 1.225838441e-19)
(96.31541114 0.2746003149 -2.51929687e-19)
(96.48663945 0.1036818564 2.421460755e-19)
(96.23095898 0.03030912998 3.782734089e-19)
(96.01680857 0.2170753885 -2.286060532e-21)
(93.92050329 0.9763111004 7.548445714e-20)
(94.1871389 0.6781969777 -8.510787559e-21)
(93.76701865 0.5485437825 -7.470051034e-21)
(93.41865354 0.8712210279 2.285056834e-21)
(90.09163959 2.076700613 -4.105256313e-19)
(90.50733349 1.528696558 2.298948932e-19)
(89.89484862 1.18887238 1.047937059e-20)
(89.28170246 1.747473112 -6.450089457e-19)
(83.02911723 3.490882126 0)
(83.63525279 2.795355849 -2.570394399e-19)
(82.99019179 2.161886311 -2.763156382e-19)
(82.11260018 2.854484811 0)
(100.2582967 -0.1699284574 -1.554039275e-21)
(100.3814724 -0.09781568659 8.610796785e-22)
(100.1638358 -0.3371587309 -9.039428114e-22)
(100.3179076 -0.292785539 -6.401723318e-22)
(99.99387028 -0.5005104531 4.614902245e-22)
(100.1920997 -0.4879100333 -2.282256235e-22)
(99.6948011 -0.6105074766 5.202621276e-22)
(99.97786338 -0.6795618902 7.768424108e-22)
(99.7415149 -0.7037184268 4.598573906e-22)
(99.58009725 -0.5675121944 1.351163397e-21)
(99.62800857 -0.694900685 -1.240640767e-23)
(99.49681717 -0.6612170111 -1.240817225e-23)
(99.12970977 -0.6588004422 -1.991475955e-21)
(99.27149344 -0.7191009549 0)
(99.18075553 -0.8390568237 -9.760185513e-22)
(98.99883058 -0.7730984083 -1.029957906e-21)
(98.47600775 -0.7200791183 -1.748153003e-20)
(98.66851047 -0.8217993551 -8.306230267e-21)
(98.51721159 -0.9708531196 -7.301190617e-21)
(98.26359559 -0.8145374101 7.691499839e-20)
(98.27663994 -0.9164063652 -8.686471299e-20)
(97.62496876 -0.7447646014 -1.03060317e-22)
(97.76587479 -0.8238450741 -5.614281936e-21)
(97.63897567 -0.9178527807 1.204118851e-19)
(97.4809543 -0.837479244 3.608556123e-19)
(96.11928256 -0.7468602964 3.053216646e-19)
(96.35041495 -0.8728036321 5.094034181e-19)
(96.13224004 -1.008794407 2.648676773e-19)
(95.85628311 -0.8831206794 5.351025316e-19)
(93.63229034 -0.7611350694 -3.821661489e-20)
(93.99881495 -0.9514144575 -1.820154207e-19)
(93.68293487 -1.175383672 -3.815378562e-20)
(93.25509638 -1.005869825 4.729410308e-21)
(90.14975356 -1.18028564 2.032376402e-19)
(90.70463063 -1.401939123 -6.28810593e-19)
(90.39638402 -1.801836631 -2.251106072e-19)
(89.78419459 -1.660366384 -4.328265997e-19)
(86.27853974 -3.222135303 2.416791808e-19)
(86.74369921 -3.167216547 2.295984673e-19)
(86.74432159 -3.515043442 8.355154131e-21)
(86.34448129 -3.656100023 5.370726608e-19)
(100.4410908 -0.2198184791 1.775160483e-21)
(100.588831 -0.1219129531 8.74637064e-22)
(100.3460354 -0.4405415625 2.602590722e-23)
(100.526124 -0.3664295976 9.115216187e-22)
(100.1758145 -0.6648428969 9.06318976e-23)
(100.4037026 -0.6166214776 8.476346766e-22)
(99.86324741 -0.8482062335 -1.280215664e-21)
(100.1957761 -0.8724069512 -7.226628861e-22)
(99.93835615 -0.9434225627 6.091200032e-22)
(99.72041614 -0.826074239 -9.210545281e-22)
(99.81173981 -0.9543113536 -4.649435558e-22)
(99.65769732 -0.9449632478 -9.209965632e-22)
(99.2601618 -1.02086612 1.945009837e-24)
(99.43080216 -1.055172188 9.759788794e-22)
(99.36747091 -1.200361581 9.759875285e-22)
(99.15723149 -1.168871079 9.759694354e-22)
(98.59779937 -1.222342052 1.198185282e-20)
(98.82823159 -1.287061282 1.194425813e-20)
(98.71627519 -1.468847372 -1.227078738e-20)
(98.41587023 -1.362281876 1.849320459e-20)
(98.45824408 -1.464610016 7.662878654e-20)
(97.76497806 -1.434210094 -1.048922547e-19)
(97.92656582 -1.481215195 0)
(97.8325476 -1.60186853 0)
(97.65391883 -1.558818171 2.345591953e-19)
(96.30044116 -1.768575279 2.441686974e-22)
(96.56375392 -1.837065511 0)
(96.3931614 -2.00795095 -1.981589812e-21)
(96.09606244 -1.949010765 -1.658642579e-20)
(94.02603788 -2.29471084 -2.776437405e-20)
(94.40913462 -2.37966934 1.839726387e-20)
(94.18519917 -2.625295822 -2.770615578e-20)
(93.76892575 -2.566387003 2.23537365e-20)
(91.26804198 -3.246167117 1.92846826e-19)
(91.74772393 -3.302470509 2.827550055e-19)
(91.56571654 -3.626477882 5.70165334e-19)
(91.09201553 -3.615197263 1.923056776e-19)
(88.95026007 -4.794694525 1.991371208e-19)
(89.19073997 -4.745535048 1.975760257e-19)
(89.17363831 -4.93538469 -1.435407182e-19)
(88.9024954 -4.955265523 2.128331948e-19)
(88.97795743 -5.003819403 0)
(100.6725936 -0.2678042267 6.989266923e-24)
(100.8414726 -0.1443500333 2.308682821e-21)
(100.581961 -0.5397525755 1.716436141e-21)
(100.7827047 -0.4347212131 8.692262973e-22)
(100.4215468 -0.821242779 5.761931212e-23)
(100.6693255 -0.7344654056 -3.811282171e-23)
(100.1107069 -1.07829284 -1.737959479e-21)
(100.481695 -1.052930828 -7.906162615e-22)
(100.2110135 -1.170174425 -4.340693667e-22)
(99.94467754 -1.081417064 -4.524441164e-22)
(100.0768812 -1.201188253 -9.027805581e-22)
(99.90767058 -1.218403729 6.904414877e-23)
(99.50123045 -1.373877061 0)
(99.6920196 -1.376913354 9.077652719e-22)
(99.65993051 -1.53821715 1.803846703e-21)
(99.43303581 -1.545110596 9.715731141e-22)
(98.87019628 -1.705360652 -2.909132288e-20)
(99.1244616 -1.72575631 -3.896154341e-21)
(99.05658178 -1.927509621 -2.990067351e-21)
(98.7290178 -1.878285953 -3.369491551e-21)
(98.79628224 -1.972801954 -4.570595448e-21)
(98.10440121 -2.079864756 2.838345962e-20)
(98.275828 -2.092657028 2.249008167e-19)
(98.21571939 -2.2285113 2.5775356e-19)
(98.02862611 -2.222828453 2.607098434e-19)
(96.76221385 -2.672496266 0)
(97.03415674 -2.688154029 0)
(96.91124769 -2.874412723 -1.175170184e-19)
(96.61209992 -2.871350492 0)
(94.75055408 -3.503198752 -4.692925739e-21)
(95.12175857 -3.51811307 -3.306896799e-20)
(94.96186336 -3.762247233 -6.876934389e-20)
(94.56812475 -3.766591021 -1.353424789e-22)
(92.4322308 -4.589302762 -1.842851024e-19)
(92.85229575 -4.591251519 0)
(92.71292762 -4.871440752 0)
(92.29707956 -4.884861662 3.64136954e-19)
(90.50620912 -5.781913642 -3.94782294e-19)
(90.69606927 -5.757457458 -5.665447501e-19)
(90.66358868 -5.895838769 -2.202169082e-19)
(90.45224396 -5.900477781 -2.629768062e-19)
(90.50378832 -5.94246698 -2.627702789e-19)
(100.949318 -0.3107016845 3.171640668e-21)
(100.8672145 -0.6282367324 -8.45985998e-22)
(100.723816 -0.9590279816 -8.459584139e-22)
(100.4250836 -1.287115519 0)
(100.2428763 -1.315713538 5.709462982e-24)
(100.2343503 -1.460368965 1.722509509e-21)
(99.8410644 -1.690538985 -9.067551384e-22)
(100.0425265 -1.660381574 -9.802654385e-22)
(99.81028352 -1.874112672 9.638458162e-22)
(99.27189181 -2.13172254 -3.148315549e-20)
(99.5361474 -2.105874285 -2.944972917e-20)
(99.17513018 -2.324784788 -1.49381039e-19)
(99.26186295 -2.40527002 -5.142717041e-21)
(98.60196339 -2.635236098 2.656578893e-20)
(98.77423719 -2.615235502 -2.199255197e-19)
(98.7459372 -2.755737232 2.657676672e-20)
(98.56003762 -2.78527403 2.142650362e-19)
(97.42223953 -3.417831536 1.173051347e-20)
(97.69029278 -3.387660128 -1.196247581e-19)
(97.61110113 -3.577275847 -1.219188948e-19)
(97.31989305 -3.621194976 1.095512649e-21)
(95.65335049 -4.453883099 -5.789982465e-20)
(96.01177666 -4.417305966 3.953496453e-21)
(95.90283147 -4.657632473 5.876176011e-20)
(95.52258813 -4.709923943 3.857723001e-21)
(93.56225459 -5.657809959 -1.581533809e-19)
(93.96949281 -5.629163227 4.666945677e-21)
(93.85925693 -5.903542418 9.058571415e-21)
(93.44127614 -5.939598871 4.5088008e-20)
(91.67546289 -6.817709498 -4.11613529e-20)
(91.86396198 -6.813892614 1.610963681e-19)
(91.82500176 -6.967929561 1.226783247e-19)
(91.59536679 -6.940725788 1.095798309e-19)
(91.64419523 -6.998868621 2.910018285e-19)
(86.29288143 -2.825876448 5.011815605e-21)
(85.81296361 -3.36146775 -2.429793881e-19)
(85.767436 -2.859944115 2.589835103e-19)
(88.96388742 -4.595882829 -1.989473289e-19)
(88.71543447 -4.648834991 2.502563278e-19)
(88.67226193 -4.81843787 1.327271646e-19)
(88.75017034 -4.865834686 1.327152572e-19)
(90.53605104 -5.640820546 1.751955148e-19)
(90.3416977 -5.669318475 -4.402418534e-22)
(90.291295 -5.791633347 3.892368814e-19)
(90.34567672 -5.833162326 -1.927312704e-19)
(91.71546681 -6.667274062 -2.061029285e-19)
(91.52934035 -6.671444271 -2.039900599e-19)
(91.45037234 -6.791372569 4.854576877e-20)
(91.49792313 -6.847931621 4.834557866e-20)
(83.82410825 4.028265654 0)
(82.30092117 4.388891673 0)
(83.35684585 4.820850036 0)
(91.47028161 -2.904826935 -1.820369308e-19)
(90.76779348 -3.218905682 0)
(90.96929651 -2.82261507 -2.076683086e-19)
(89.20371121 -4.549516369 -2.012515437e-19)
(88.97094647 -4.388229091 -1.96762118e-19)
(89.23075664 -4.351602839 -5.959215633e-19)
(86.75976138 -2.758618676 -4.366931782e-21)
(87.20064994 -2.751903888 -4.364492299e-21)
(87.15577835 -3.09066929 -2.338578479e-19)
(92.57859164 -4.302253551 -3.590186166e-19)
(92.00857331 -4.599527611 -4.155238191e-19)
(92.14822721 -4.291336506 -3.772504794e-19)
(90.72572547 -5.616563743 3.829950652e-21)
(90.56309096 -5.496633638 -9.093483044e-22)
(90.76169814 -5.471021681 1.762245968e-19)
(89.4528094 -4.51442924 1.977141131e-19)
(89.42412042 -4.702518522 1.993844939e-19)
(89.79721749 -5.325253122 -1.355539469e-19)
(89.81741331 -5.158700583 -3.234422994e-19)
(89.59720819 -5.201776053 9.443139806e-20)
(89.55096634 -5.34515484 3.113306548e-20)
(89.61938779 -5.390073952 3.255422857e-20)
(89.0037297 -6.022506495 1.471593711e-19)
(88.87672362 -6.063537806 1.298222383e-19)
(88.89203115 -5.982719753 -2.377664053e-19)
(89.02428819 -5.943244081 -6.421625467e-20)
(88.83872739 -6.054515688 4.416357824e-20)
(88.05601826 -5.563754105 -1.342304505e-19)
(87.98666099 -5.64144159 -1.191444428e-19)
(88.19868631 -5.539921231 -1.771394424e-19)
(88.16878562 -5.633869246 -1.783223943e-19)
(88.02386245 -5.67139601 5.944936436e-20)
(93.68166328 -5.383019241 -1.644184148e-19)
(93.14793339 -5.683706698 -3.405652931e-20)
(93.27462486 -5.403355343 8.582546998e-21)
(91.90406345 -6.662020686 -3.876288528e-21)
(91.75609105 -6.518754437 -2.007745883e-21)
(91.94060097 -6.512390886 -1.970062052e-21)
(90.91934084 -5.594553363 1.718904359e-19)
(90.8817903 -5.736633319 -2.201438308e-21)
(91.10321944 -6.260314774 -1.251986085e-19)
(91.14218915 -6.121277475 1.643340653e-19)
(90.9606951 -6.133890538 -1.706926074e-19)
(90.8935573 -6.246070772 -1.890808335e-19)
(90.93924234 -6.293379604 5.640696639e-19)
(90.07934937 -6.678296127 -2.462324292e-19)
(89.99642534 -6.669877933 6.183104311e-21)
(90.06029723 -6.647913049 -2.464710939e-19)
(90.13035111 -6.652350227 -3.669298434e-19)
(89.70015432 -6.302462297 -4.081268332e-20)
(89.61672557 -6.347657238 -4.498886713e-20)
(89.81730097 -6.285736793 -1.71880856e-19)
(89.76982016 -6.342860678 -3.330050485e-19)
(89.63877912 -6.363255462 -7.506803958e-19)
(92.08968918 -6.655646332 -3.578079509e-21)
(92.05522672 -6.808303692 -2.043595664e-21)
(92.36348355 -7.400189636 1.236851396e-19)
(92.36306903 -7.304551865 -1.003160981e-19)
(92.25430409 -7.405267266 0)
(92.26732274 -7.323641302 0)
(90.7916103 -7.960944719 2.3250669e-19)
(90.59788306 -7.943627918 -1.191769106e-19)
(90.77292476 -7.910547676 -3.696662449e-21)
(90.90861978 -7.922580443 -3.654836562e-21)
(90.44252301 -7.288451596 3.652192945e-19)
(90.34449454 -7.320917734 4.252744856e-22)
(90.54262553 -7.294100639 1.19486838e-19)
(90.47183283 -7.328096815 1.215962076e-19)
(80.1787466 -5.368496645 -2.732936158e-19)
(80.86084774 -5.100242535 -5.503385608e-19)
(81.11632618 -5.662226459 -2.862113354e-19)
(80.3533139 -6.066606057 -3.719235945e-19)
(80.69604352 -6.099870459 -3.723547421e-19)
(85.38462953 -5.771248299 -4.263792346e-19)
(85.20114839 -5.607264479 -4.233964409e-19)
(84.99432549 -5.837794082 -4.293401377e-19)
(85.15327244 -6.049932026 -1.853444504e-19)
(85.26724266 -5.986417327 -2.870694901e-19)
(74.42486096 3.375218129 0)
(73.49972131 4.321571048 0)
(73.63488514 2.345459073 0)
(72.31081677 3.302964809 0)
(79.95724195 -4.731096742 4.486219888e-21)
(79.48568942 -5.783625481 2.860215304e-19)
(79.17006943 -4.947211508 2.857234006e-19)
(87.9142563 -5.597295688 2.079183191e-19)
(87.94842578 -5.49598503 2.680332299e-19)
(88.08782929 -5.471860463 -1.310433618e-19)
(87.88008989 -5.56880424 -1.484328541e-19)
(87.15911664 -5.304001504 8.934273695e-20)
(87.15876693 -5.235049129 3.732055148e-19)
(87.28916074 -5.167725366 5.470318845e-19)
(87.29056248 -5.246237355 1.853348073e-19)
(87.8797281 -4.156519829 2.144988757e-19)
(88.1798599 -4.095733813 2.144906698e-19)
(88.1841128 -4.330018539 5.973795121e-20)
(87.92460119 -4.415700506 5.436863765e-20)
(87.02738177 -5.37228546 -3.365531231e-19)
(87.14958414 -5.374424534 -2.868536097e-19)
(86.98750714 -5.429910328 1.348708696e-19)
(87.02537769 -5.428280568 -6.332777524e-20)
(87.89898233 -5.647489627 1.3407825e-19)
(87.81106971 -5.655156527 1.349058173e-19)
(87.84318841 -5.610172455 9.83163647e-22)
(85.563423 -5.563983063 3.541727012e-21)
(85.7054319 -5.691995173 0)
(85.49045918 -5.931487515 -1.973049974e-19)
(85.58780746 -5.871658611 -3.927885065e-19)
(87.02715317 -5.302601026 -5.360527908e-20)
(86.89440187 -5.380888399 -3.373507661e-19)
(86.86545025 -5.440752733 -1.600325728e-19)
(86.9062106 -5.437124034 -1.599766722e-19)
(89.57101358 -6.323640964 5.46455061e-19)
(89.62830379 -6.263205822 1.256013631e-19)
(89.74513118 -6.24398405 2.922342408e-19)
(89.54901826 -6.308426755 -1.573064106e-19)
(88.94956156 -6.089275205 1.423506652e-19)
(89.13244628 -5.983317191 3.769853882e-19)
(89.10985429 -6.058519217 4.18885904e-20)
(88.9852433 -6.096756495 -2.912394044e-20)
(90.01005622 -5.285086654 1.834567763e-21)
(89.98805379 -5.44286235 1.700578959e-22)
(89.75160349 -5.462445759 -1.215028945e-19)
(89.8166912 -5.505985639 -1.21493427e-19)
(88.86914729 -6.107100796 1.303141466e-19)
(88.91929552 -6.122767861 -1.292170411e-19)
(88.84042598 -6.141823537 0)
(89.54195619 -6.352677635 3.959883945e-19)
(89.4584577 -6.35807724 2.630869541e-19)
(89.50671249 -6.333153713 5.600870411e-22)
(87.95049493 -5.685325731 1.339439471e-19)
(87.86399958 -5.694306952 -4.483704776e-22)
(88.7861318 -6.12641782 1.314831551e-19)
(88.80954559 -6.090371452 1.954613822e-19)
(90.31627917 -7.280765532 1.226918465e-19)
(90.41348179 -7.247947458 1.212137015e-19)
(90.51291967 -7.253646002 1.191158552e-19)
(90.01272613 -6.701340035 -3.022078939e-22)
(90.15064175 -6.684442705 -5.437943177e-23)
(90.09788633 -6.710934529 -5.445485816e-23)
(91.28457594 -6.25090424 -4.558798297e-19)
(91.2442516 -6.392154456 5.380246512e-22)
(91.03181326 -6.372965283 -4.599535766e-19)
(91.07701671 -6.42296221 -8.343374278e-20)
(89.92906265 -6.692971619 2.546625874e-19)
(89.94328193 -6.725838578 -5.604560645e-22)
(89.83485362 -6.711923947 -2.672836723e-22)
(90.2153425 -7.314014096 -2.496660362e-19)
(90.03196865 -7.301236845 0)
(90.18863342 -7.273222201 -1.228345148e-19)
(89.57320345 -6.372285915 -2.644117488e-19)
(89.49074736 -6.377551398 1.312546606e-19)
(89.82399185 -6.680858926 2.567685499e-19)
(89.91465568 -6.663124097 1.284606758e-19)
(90.61189726 -7.993909928 2.386185343e-19)
(90.93258285 -7.972808861 1.153027093e-19)
(90.81565984 -8.0105632 1.164143312e-19)
(92.3379799 -7.483514135 1.235821189e-19)
(90.41494838 -7.974676391 -1.166714592e-19)
(90.42888045 -8.02099689 1.226496355e-19)
(90.08147714 -7.996104994 0)
(90.24330724 -7.353648823 -2.489096867e-19)
(90.05769025 -7.341501688 -2.507981589e-19)
(90.08554703 -7.951791036 1.313521058e-19)
(90.41213535 -7.925156298 5.359731268e-21)
(90.51561054 -0.7671557813 6.493578484e-19)
(89.49844836 -0.9637930091 5.770811507e-19)
(89.96093792 -0.472003989 2.191716924e-19)
(86.33802958 -2.361380469 -5.90366231e-21)
(86.82311419 -2.38431708 2.301848677e-19)
(84.43440093 3.324071306 -2.571727557e-19)
(84.9249561 2.701423079 2.42231648e-19)
(84.35731652 2.220444889 2.098435758e-20)
(84.09020537 -1.083354394 2.730119261e-19)
(84.32821231 -0.445009118 0)
(83.24040758 -0.9656242887 0)
(83.58721371 -0.1680910502 0)
(80.64626719 -4.445047953 -2.734682663e-19)
(79.80135972 -3.976579271 -2.810300115e-19)
(80.50994092 -3.850558466 -2.809009944e-19)
(75.43099016 4.247571237 0)
(76.19738603 3.390530713 0)
(75.48130404 2.60545989 0)
(87.87143301 -3.904571185 2.184145351e-19)
(87.59950467 -4.260127857 -5.504801913e-20)
(87.54140106 -3.969779523 3.826944088e-21)
(87.01563175 -5.232379138 -1.62273037e-21)
(87.14880791 -5.154505901 -1.741489199e-19)
(85.37868399 -5.391961932 5.042427648e-21)
(85.57916987 -5.197659126 5.067408388e-21)
(85.72667537 -5.375350683 2.075898087e-19)
(84.98194983 -5.398194096 2.241305455e-19)
(85.21246883 -5.189915562 1.602355477e-21)
(81.2739002 -4.267045365 5.47566761e-19)
(81.44279123 -4.78990519 6.445108042e-21)