/*--------------------------------*- C++ -*----------------------------------*\
| =========                 |                                                 |
| \\      /  F ield         | OpenFOAM: The Open Source CFD Toolbox           |
|  \\    /   O peration     | Version:  v2012                                 |
|   \\  /    A nd           | Website:  www.openfoam.com                      |
|    \\/     M anipulation  |                                                 |
\*---------------------------------------------------------------------------*/
FoamFile
{
    version     2.0;
    format      ascii;
    class       pointVectorField;
    location    "0.75";
    object      pointDisplacement;
}
// * * * * * * * * * * * * * * * * * * * * * * * * * * * * * * * * * * * * * //

dimensions      [0 1 0 0 0 0 0];


internalField   nonuniform List<vector> 
6962
(
(0 0 0)
(0 0 0)
(0 0 0)
(0 0 0)
(0 0 0)
(0 0 0)
(0 0 0)
(0 0 0)
(0 0 0)
(0 0 0)
(-0.0009034324761 0.0006217737741 5.606626274e-15)
(0 0 0)
(0 0 0)
(0 0 0)
(0 0 0)
(0 0 0)
(0 0 0)
(0 0 0)
(0 0 0)
(0 0 0)
(0 0 0)
(0 0 0)
(0 0 0)
(0 0 0)
(0 0 0)
(-0.001606369002 0.0008344510116 9.964251646e-15)
(-0.001464472003 0.0008227765674 9.089951014e-15)
(-0.001253306836 0.000756946939 7.771561172e-15)
(-0.006237248557 0.004147969919 4.243827512e-14)
(-0.006702012682 0.004147352158 4.558853295e-14)
(-0.01016885953 0.006627933921 7.263634139e-14)
(-0.009599581351 0.0067232876 6.859790513e-14)
(-0.02044919976 0.01698712833 1.718347686e-13)
(-0.02083408173 0.01610621297 1.749017597e-13)
(-0.02369959877 0.01950253206 2.112615638e-13)
(-0.0233789227 0.020674607 2.086386619e-13)
(-0.02786059454 0.03041560084 3.058941989e-13)
(-0.02797203812 0.0283996805 3.065464549e-13)
(-0.02785262209 0.03063700817 3.307493168e-13)
(-0.02767410892 0.03274244308 3.293476603e-13)
(-0.02249512 0.03558655118 0)
(-0.02256175412 0.03314394717 0)
(-0.01996807688 0.03307154659 0)
(-0.01993499889 0.03429242944 0)
(-0.01990225815 0.03551343545 0)
(-0.01215045072 0.03529706357 0)
(-0.01216589543 0.03468715899 0)
(-0.01152367774 0.03466966088 0)
(-0.01150829462 0.03527939684 0)
(0 0 0)
(0 0 0)
(0 0 0)
(0 0 0)
(0 0 0)
(0 0 0)
(0 0 0)
(0 0 0)
(0 0 0)
(0 0 0)
(0 0 0)
(0 0 0)
(0 0 0)
(0 0 0)
(-0.001523419891 0.0005364335548 9.492406861e-15)
(-0.001721622262 0.0006793274044 1.072752998e-14)
(-0.001839664173 0.0008039522421 1.146305273e-14)
(-0.007424488114 0.003579278119 5.070943665e-14)
(-0.007186031127 0.003129387794 4.908573548e-14)
(-0.01072475095 0.004924718343 7.691070003e-14)
(-0.01101018695 0.005595295608 7.896461263e-14)
(-0.02179090061 0.01315990988 1.835337438e-13)
(-0.0214437535 0.01171045356 1.80508386e-13)
(-0.02427952853 0.01412031824 2.169098234e-13)
(-0.02461655361 0.01582989696 2.200878368e-13)
(-0.0285690598 0.02266543535 3.138322935e-13)
(-0.02835381705 0.02033990829 3.10987347e-13)
(-0.0280249691 0.02176938752 3.329836407e-13)
(-0.02817352831 0.0242103242 3.353706202e-13)
(-0.02247537093 0.02578403958 0)
(-0.02254474015 0.0233411157 0)
(-0.01994383484 0.02326726044 0)
(-0.01990915829 0.02448843866 0)
(-0.01987446563 0.02571018433 0)
(-0.01207186321 0.0254886218 0)
(-0.01210655587 0.02426687613 0)
(-0.01080615996 0.02422995011 0)
(-0.01078880557 0.02484110668 0)
(-0.0107714673 0.02545169579 0)
(-0.01142166525 0.02547015879 0)
(0 0 0)
(0 0 0)
(0 0 0)
(0 0 0)
(0 0 0)
(0 0 0)
(0 0 0)
(0 0 0)
(0 0 0)
(0 0 0)
(0 0 0)
(0 0 0)
(0 0 0)
(0 0 0)
(-0.000355789771 6.479801748e-05 2.220446049e-15)
(-0.0006456013679 0.00014502109 4.024558464e-15)
(-0.0009591852692 0.0002562414993 5.981326545e-15)
(-0.005506017082 0.001626114385 3.762268275e-14)
(-0.004703929282 0.001168966231 3.215483435e-14)
(-0.007665515315 0.002012848881 5.501155087e-14)
(-0.00867192911 0.002704241425 6.220024495e-14)
(-0.01879306862 0.007000714933 1.581512699e-13)
(-0.01742142905 0.005479403912 1.466882171e-13)
(-0.0202392312 0.006792858152 1.807859418e-13)
(-0.02163422754 0.008592787727 1.931649285e-13)
(-0.02635745125 0.01293054646 2.883526751e-13)
(-0.02519896844 0.01046239952 2.75668377e-13)
(-0.02544189955 0.0114332563 3.011479954e-13)
(-0.02643154024 0.01403388035 3.129441151e-13)
(-0.02249080633 0.01583120292 3.555628014e-13)
(-0.02216091668 0.01318209555 3.496924972e-13)
(-0.02003665047 0.01337461035 3.563954687e-13)
(-0.02013907761 0.01592752377 3.592265374e-13)
(-0.01234937229 0.01571579133 0)
(-0.01241875762 0.01327229999 0)
(-0.009817909057 0.01319844635 0)
(-0.009748523729 0.01564193769 0)
(-0.01104897638 0.01567886532 0)
(0 0 0)
(0 0 0)
(0 0 0)
(0 0 0)
(0 0 0)
(0 0 0)
(0 0 0)
(0 0 0)
(0 0 0)
(0 0 0)
(0 0 0)
(0 0 0)
(0 0 0)
(0 0 0)
(0 0 0)
(0 0 0)
(-8.738841414e-06 8.492067811e-07 5.551115123e-17)
(-0.00209216589 0.0002255313051 1.432187702e-14)
(-0.001313191576 7.99110939e-05 8.992806499e-15)
(-0.003055373041 0.0001983792846 2.198241589e-14)
(-0.004197480999 0.0004803148174 3.018418848e-14)
(-0.01224463821 0.001711329169 1.034172747e-13)
(-0.01031314061 0.0008369957271 8.723577416e-14)
(-0.01277043928 0.001122079783 1.146582829e-13)
(-0.01484050931 0.002227918209 1.330047184e-13)
(-0.02023115356 0.003811570713 2.220723605e-13)
(-0.01814735109 0.002036536108 1.996458554e-13)
(-0.01897353986 0.002316805252 2.257777298e-13)
(-0.02094105179 0.004279753553 2.48592813e-13)
(-0.01961931906 0.005293195046 3.095718126e-13)
(-0.01822922624 0.002937803431 2.882971639e-13)
(-0.01702247094 0.003056350303 3.028410855e-13)
(-0.0181890578 0.005484051056 3.229222445e-13)
(-0.01203759084 0.005684467086 3.446964936e-13)
(-0.01145345465 0.003168253893 3.284594818e-13)
(-0.009185942405 0.003141006273 3.318179065e-13)
(-0.00962763378 0.005660810791 3.472777621e-13)
(0 0 0)
(0 0 0)
(0 0 0)
(0 0 0)
(0 0 0)
(0 0 0)
(0 0 0)
(0 0 0)
(0 0 0)
(0 0 0)
(0 0 0)
(0 0 0)
(0 0 0)
(0 0 0)
(0 0 0)
(0 0 0)
(0 0 0)
(-7.672029446e-06 -6.110249162e-07 5.551115123e-17)
(0 0 0)
(-7.900551931e-05 -1.04914176e-05 5.689893001e-16)
(-0.0004669490344 -3.899374193e-05 3.358424649e-15)
(-0.004719968471 -0.0004514916003 4.013456234e-14)
(-0.003145216653 -0.0004868901099 2.678413047e-14)
(-0.004687617626 -0.000766358863 4.24521529e-14)
(-0.006543529506 -0.0006566606215 5.913325385e-14)
(-0.01125811025 -0.001343033861 1.250666237e-13)
(-0.008967539488 -0.001771964748 1.000033389e-13)
(-0.009948308028 -0.002120607439 1.20209398e-13)
(-0.01225035299 -0.001571148847 1.473543509e-13)
(-0.01283702575 -0.002186977287 2.058353488e-13)
(-0.01082249899 -0.003070839989 1.746935929e-13)
(-0.01039995868 -0.003333307078 1.892236368e-13)
(-0.01224009859 -0.002359636677 2.210454042e-13)
(-0.008557831174 -0.002750320846 2.506744812e-13)
(-0.00735608474 -0.003895472705 2.181033132e-13)
(-0.005907102029 -0.003997762799 2.224054274e-13)
(-0.006877975964 -0.002831931535 2.550182288e-13)
(0 0 0)
(0 0 0)
(0 0 0)
(0 0 0)
(0 0 0)
(0 0 0)
(0 0 0)
(0 0 0)
(0 0 0)
(0 0 0)
(0 0 0)
(0 0 0)
(0 0 0)
(0 0 0)
(0 0 0)
(0 0 0)
(0 0 0)
(0 0 0)
(0 0 0)
(0 0 0)
(0 0 0)
(-0.0002027310004 -6.725987592e-05 1.734723476e-15)
(0 0 0)
(-0.0001473680586 -6.12595592e-05 1.346145417e-15)
(-0.0007307580917 -0.0002579473268 6.661338148e-15)
(-0.003121428053 -0.001358652131 3.522182546e-14)
(-0.001739386206 -0.0008954645326 1.967870311e-14)
(-0.002344914855 -0.001310761949 2.883804306e-14)
(-0.003868069726 -0.001825590414 4.739264536e-14)
(-0.005085315157 -0.003226166473 8.396061624e-14)
(-0.003495705594 -0.002636629827 5.813405313e-14)
(-0.003552957273 -0.003036786816 6.697420396e-14)
(-0.005061075993 -0.003633643288 9.454936833e-14)
(-0.003757555769 -0.004494839198 1.166428065e-13)
(-0.002717173302 -0.003893791495 8.573697308e-14)
(-0.002173218587 -0.004031030628 8.867906409e-14)
(-0.003005823551 -0.004633417639 1.200567423e-13)
(0 0 0)
(0 0 0)
(0 0 0)
(0 0 0)
(0 0 0)
(0 0 0)
(0 0 0)
(0 0 0)
(0 0 0)
(0 0 0)
(0 0 0)
(0 0 0)
(0 0 0)
(0 0 0)
(0 0 0)
(0 0 0)
(0 0 0)
(0 0 0)
(0 0 0)
(0 0 0)
(0 0 0)
(0 0 0)
(0 0 0)
(0 0 0)
(0 0 0)
(0 0 0)
(0 0 0)
(0 0 0)
(-2.278934697e-05 -1.863419513e-05 2.775557562e-16)
(-0.0004085088745 -0.0004556641964 6.911138328e-15)
(-4.597417725e-05 -5.67089497e-05 7.771561172e-16)
(-0.000100404729 -0.0001410834955 1.942890293e-15)
(-0.0005173339383 -0.0006566291799 9.950373858e-15)
(-0.0005313962426 -0.001152528755 1.745825706e-14)
(-0.0001717289286 -0.0004142679173 5.689893001e-15)
(-0.000147174336 -0.0004667579455 6.411537967e-15)
(-0.0004352168939 -0.001237416187 1.874889133e-14)
(0 0 0)
(0 0 0)
(0 0 0)
(0 0 0)
(0 0 0)
(0 0 0)
(0 0 0)
(0 0 0)
(0 0 0)
(0 0 0)
(0 0 0)
(0 0 0)
(0 0 0)
(0 0 0)
(0 0 0)
(0 0 0)
(0 0 0)
(0 0 0)
(0 0 0)
(0 0 0)
(0 0 0)
(0 0 0)
(0 0 0)
(0 0 0)
(0 0 0)
(0 0 0)
(0 0 0)
(0 0 0)
(0 0 0)
(0 0 0)
(0 0 0)
(0 0 0)
(0 0 0)
(0 0 0)
(0 0 0)
(0 0 0)
(0 0 0)
(0 0 0)
(0 0 0)
(0 0 0)
(0 0 0)
(0 0 0)
(0 0 0)
(0 0 0)
(0 0 0)
(0 0 0)
(0 0 0)
(0 0 0)
(0 0 0)
(0 0 0)
(0 0 0)
(0 0 0)
(0 0 0)
(0 0 0)
(0 0 0)
(0 0 0)
(0 0 0)
(0 0 0)
(0 0 0)
(0 0 0)
(0 0 0)
(0 0 0)
(0 0 0)
(0 0 0)
(0 0 0)
(0 0 0)
(0 0 0)
(0 0 0)
(0 0 0)
(0 0 0)
(0 0 0)
(0 0 0)
(0 0 0)
(0 0 0)
(0 0 0)
(0 0 0)
(0 0 0)
(0 0 0)
(0 0 0)
(0 0 0)
(0 0 0)
(0 0 0)
(0 0 0)
(0 0 0)
(0 0 0)
(0 0 0)
(0 0 0)
(0 0 0)
(0 0 0)
(0 0 0)
(0 0 0)
(0 0 0)
(0 0 0)
(0 0 0)
(0 0 0)
(0 0 0)
(0 0 0)
(0 0 0)
(0 0 0)
(0 0 0)
(0 0 0)
(0 0 0)
(0 0 0)
(0 0 0)
(0 0 0)
(0 0 0)
(0 0 0)
(0 0 0)
(0 0 0)
(0 0 0)
(0 0 0)
(0 0 0)
(0 0 0)
(0 0 0)
(0 0 0)
(0 0 0)
(0 0 0)
(0 0 0)
(0 0 0)
(0 0 0)
(0 0 0)
(0 0 0)
(0 0 0)
(0 0 0)
(0 0 0)
(0 0 0)
(0 0 0)
(0 0 0)
(0 0 0)
(0 0 0)
(0 0 0)
(0 0 0)
(0 0 0)
(0 0 0)
(0 0 0)
(0 0 0)
(0 0 0)
(0 0 0)
(0 0 0)
(0 0 0)
(0 0 0)
(0 0 0)
(0 0 0)
(0 0 0)
(0 0 0)
(0 0 0)
(0 0 0)
(0 0 0)
(0 0 0)
(0 0 0)
(0 0 0)
(0 0 0)
(0 0 0)
(0 0 0)
(0 0 0)
(0 0 0)
(0 0 0)
(0 0 0)
(0 0 0)
(0 0 0)
(0 0 0)
(0 0 0)
(0 0 0)
(0 0 0)
(0 0 0)
(0 0 0)
(0 0 0)
(0 0 0)
(0 0 0)
(0 0 0)
(0 0 0)
(0 0 0)
(0 0 0)
(0 0 0)
(0 0 0)
(0 0 0)
(0 0 0)
(0 0 0)
(0 0 0)
(0 0 0)
(0 0 0)
(0 0 0)
(0 0 0)
(0 0 0)
(0 0 0)
(0 0 0)
(0 0 0)
(0 0 0)
(0 0 0)
(0 0 0)
(0 0 0)
(0 0 0)
(0 0 0)
(0 0 0)
(0 0 0)
(0 0 0)
(0 0 0)
(0 0 0)
(0 0 0)
(0 0 0)
(0 0 0)
(0 0 0)
(0 0 0)
(0 0 0)
(0 0 0)
(0 0 0)
(0 0 0)
(0 0 0)
(0 0 0)
(0 0 0)
(0 0 0)
(0 0 0)
(0 0 0)
(0 0 0)
(0 0 0)
(0 0 0)
(0 0 0)
(0 0 0)
(0 0 0)
(0 0 0)
(0 0 0)
(0 0 0)
(0 0 0)
(0 0 0)
(0 0 0)
(0 0 0)
(0 0 0)
(0 0 0)
(0 0 0)
(0 0 0)
(0 0 0)
(0 0 0)
(0 0 0)
(0 0 0)
(0 0 0)
(0 0 0)
(0 0 0)
(0 0 0)
(0 0 0)
(0 0 0)
(0 0 0)
(0 0 0)
(0 0 0)
(0 0 0)
(0 0 0)
(0 0 0)
(0 0 0)
(0 0 0)
(0 0 0)
(0 0 0)
(0 0 0)
(0 0 0)
(0 0 0)
(0 0 0)
(0 0 0)
(0 0 0)
(0 0 0)
(0 0 0)
(0 0 0)
(0 0 0)
(0 0 0)
(0 0 0)
(0 0 0)
(0 0 0)
(0 0 0)
(0 0 0)
(0 0 0)
(0 0 0)
(0 0 0)
(0 0 0)
(0 0 0)
(0 0 0)
(0 0 0)
(0 0 0)
(0 0 0)
(0 0 0)
(0 0 0)
(0 0 0)
(0 0 0)
(0 0 0)
(0 0 0)
(0 0 0)
(0 0 0)
(0 0 0)
(0 0 0)
(0 0 0)
(0 0 0)
(0 0 0)
(0 0 0)
(0 0 0)
(0 0 0)
(0 0 0)
(0 0 0)
(0 0 0)
(0 0 0)
(0 0 0)
(0 0 0)
(0 0 0)
(0 0 0)
(0 0 0)
(0 0 0)
(0 0 0)
(0 0 0)
(0 0 0)
(0 0 0)
(0 0 0)
(0 0 0)
(0 0 0)
(0 0 0)
(0 0 0)
(0 0 0)
(0 0 0)
(0 0 0)
(0 0 0)
(0 0 0)
(0 0 0)
(0 0 0)
(0 0 0)
(0 0 0)
(0 0 0)
(0 0 0)
(0 0 0)
(0 0 0)
(0 0 0)
(0 0 0)
(0 0 0)
(0 0 0)
(0 0 0)
(0 0 0)
(0 0 0)
(0 0 0)
(0 0 0)
(0 0 0)
(0 0 0)
(0 0 0)
(0 0 0)
(0 0 0)
(0 0 0)
(0 0 0)
(0 0 0)
(0 0 0)
(0 0 0)
(0 0 0)
(0 0 0)
(0 0 0)
(0 0 0)
(0 0 0)
(0 0 0)
(0 0 0)
(0 0 0)
(0 0 0)
(0 0 0)
(0 0 0)
(0 0 0)
(0 0 0)
(0 0 0)
(0 0 0)
(0 0 0)
(0 0 0)
(0 0 0)
(0 0 0)
(0 0 0)
(0 0 0)
(0 0 0)
(0 0 0)
(0 0 0)
(0 0 0)
(0 0 0)
(0 0 0)
(0 0 0)
(0 0 0)
(0 0 0)
(0 0 0)
(0 0 0)
(0 0 0)
(0 0 0)
(0 0 0)
(0 0 0)
(0 0 0)
(0 0 0)
(0 0 0)
(0 0 0)
(0 0 0)
(0 0 0)
(0 0 0)
(0 0 0)
(0 0 0)
(0 0 0)
(0 0 0)
(0 0 0)
(0 0 0)
(0 0 0)
(0 0 0)
(0 0 0)
(0 0 0)
(0 0 0)
(0 0 0)
(0 0 0)
(0 0 0)
(0 0 0)
(0 0 0)
(0 0 0)
(0 0 0)
(0 0 0)
(0 0 0)
(0 0 0)
(0 0 0)
(0 0 0)
(0 0 0)
(0 0 0)
(0 0 0)
(0 0 0)
(0 0 0)
(0 0 0)
(0 0 0)
(0 0 0)
(0 0 0)
(0 0 0)
(0 0 0)
(0 0 0)
(0 0 0)
(0 0 0)
(0 0 0)
(0 0 0)
(0 0 0)
(0 0 0)
(0 0 0)
(0 0 0)
(0 0 0)
(0 0 0)
(0 0 0)
(0 0 0)
(0 0 0)
(0 0 0)
(0 0 0)
(0 0 0)
(0 0 0)
(0 0 0)
(0 0 0)
(0 0 0)
(0 0 0)
(0 0 0)
(0 0 0)
(0 0 0)
(0 0 0)
(0 0 0)
(0 0 0)
(0 0 0)
(0 0 0)
(0 0 0)
(0 0 0)
(0 0 0)
(0 0 0)
(0 0 0)
(0 0 0)
(0 0 0)
(0 0 0)
(0 0 0)
(0 0 0)
(0 0 0)
(0 0 0)
(0 0 0)
(0 0 0)
(0 0 0)
(0 0 0)
(0 0 0)
(0 0 0)
(0 0 0)
(0 0 0)
(0 0 0)
(0 0 0)
(0 0 0)
(0 0 0)
(0 0 0)
(0 0 0)
(0 0 0)
(0 0 0)
(0 0 0)
(0 0 0)
(0 0 0)
(0 0 0)
(0 0 0)
(0 0 0)
(0 0 0)
(0 0 0)
(0 0 0)
(0 0 0)
(0 0 0)
(0 0 0)
(0 0 0)
(0 0 0)
(0 0 0)
(0 0 0)
(0 0 0)
(0 0 0)
(0 0 0)
(0 0 0)
(0 0 0)
(0 0 0)
(0 0 0)
(0 0 0)
(0 0 0)
(0 0 0)
(0 0 0)
(0 0 0)
(0 0 0)
(0 0 0)
(0 0 0)
(0 0 0)
(0 0 0)
(0 0 0)
(0 0 0)
(0 0 0)
(0 0 0)
(0 0 0)
(0 0 0)
(0 0 0)
(0 0 0)
(0 0 0)
(0 0 0)
(0 0 0)
(0 0 0)
(0 0 0)
(0 0 0)
(0 0 0)
(0 0 0)
(0 0 0)
(0 0 0)
(0 0 0)
(0 0 0)
(0 0 0)
(0 0 0)
(0 0 0)
(0 0 0)
(0 0 0)
(0 0 0)
(0 0 0)
(0 0 0)
(0 0 0)
(0 0 0)
(0 0 0)
(0 0 0)
(0 0 0)
(0 0 0)
(0 0 0)
(0 0 0)
(0 0 0)
(0 0 0)
(0 0 0)
(0 0 0)
(0 0 0)
(0 0 0)
(0 0 0)
(0 0 0)
(0 0 0)
(0 0 0)
(0 0 0)
(0 0 0)
(0 0 0)
(0 0 0)
(0 0 0)
(0 0 0)
(0 0 0)
(0 0 0)
(0 0 0)
(0 0 0)
(0 0 0)
(0 0 0)
(0 0 0)
(0 0 0)
(0 0 0)
(0 0 0)
(0 0 0)
(0 0 0)
(0 0 0)
(0 0 0)
(0 0 0)
(0 0 0)
(0 0 0)
(0 0 0)
(0 0 0)
(0 0 0)
(0 0 0)
(0 0 0)
(0 0 0)
(0 0 0)
(0 0 0)
(0 0 0)
(0 0 0)
(0 0 0)
(0 0 0)
(0 0 0)
(0 0 0)
(0 0 0)
(0 0 0)
(0 0 0)
(0 0 0)
(0 0 0)
(0 0 0)
(0 0 0)
(0 0 0)
(0 0 0)
(0 0 0)
(0 0 0)
(0 0 0)
(0 0 0)
(0 0 0)
(0 0 0)
(0 0 0)
(0 0 0)
(0 0 0)
(0 0 0)
(0 0 0)
(0 0 0)
(0 0 0)
(0 0 0)
(0 0 0)
(0 0 0)
(0 0 0)
(0 0 0)
(0 0 0)
(0 0 0)
(0 0 0)
(0 0 0)
(0 0 0)
(0 0 0)
(0 0 0)
(0 0 0)
(0 0 0)
(-0.01149294729 0.0358898721 0)
(-0.01213504665 0.03590753722 0)
(-0.01140431086 0.02608131536 0)
(-0.01205450882 0.02609977837 0)
(-0.01986995528 0.03673502182 0)
(-0.01983742541 0.03795660174 0)
(-0.02242938738 0.03802940795 0)
(-0.01211974157 0.03651852481 0)
(-0.01340609181 0.03655408652 0)
(-0.01343748675 0.03533247438 0)
(-0.01202722818 0.04018250005 0)
(-0.01983977296 0.02693193 0)
(-0.0199981749 0.02812360702 0)
(-0.02259512962 0.02820058724 0)
(-0.01203717054 0.02671036747 0)
(-0.01333762319 0.0267472951 0)
(-0.01337231586 0.02552554943 0)
(-0.01346886397 0.03411148644 0)
(-0.01218160095 0.03407606918 0)
(-0.01227802822 0.03041226188 0)
(-0.01163547489 0.03039458387 0)
(-0.01161899264 0.0310050269 0)
(-0.01226154436 0.03102276166 0)
(-0.007130081872 0.03027045388 0)
(-0.007102027884 0.03057321027 0)
(-0.007434609372 0.03058333575 0)
(-0.007455727223 0.03027964411 0)
(-0.00697499739 0.03515174847 0)
(-0.007320751421 0.0351629863 0)
(-0.007335051672 0.03485938503 0)
(-0.006994292987 0.0348486298 0)
(-0.01101428372 0.01690061099 0)
(-0.01231467962 0.01693753701 0)
(-0.006962424815 0.03545630747 0)
(-0.007311185624 0.03546785784 0)
(-0.01204264353 0.03957162917 0)
(-0.01140054578 0.03955390731 0)
(-0.006633659894 0.03514097681 0)
(-0.006614778683 0.03544490234 0)
(-0.006871175957 0.02534435072 0)
(-0.00685487389 0.02596064844 0)
(-0.007177047707 0.02596809312 0)
(-0.00750136471 0.02597446282 0)
(-0.007520088715 0.02536107347 0)
(-0.007479332239 0.02997636385 0)
(-0.00715931618 0.02996773102 0)
(-0.01229473262 0.02980199552 0)
(-0.01165211932 0.02978442939 0)
(-0.006879560078 0.02996109329 0)
(-0.006848068042 0.03026352487 0)
(-0.006222549874 0.02532593234 0)
(-0.006210282462 0.02594234464 0)
(-0.006534362737 0.02595325097 0)
(-0.006659093888 0.03483848679 0)
(-0.006815040565 0.0305656289 0)
(-0.003690959686 0.03246105812 0)
(-0.003358916376 0.03245038001 0)
(-0.003339234696 0.03275229508 0)
(-0.003668654719 0.0327629555 0)
(-0.007155521961 0.03272174917 0)
(-0.007455989516 0.0327284071 0)
(-0.007466348148 0.03242361486 0)
(-0.007171260203 0.03241750723 0)
(-0.009652236627 0.03278480853 0)
(-0.009667974729 0.03217457153 0)
(-0.009032441814 0.03215766079 0)
(-0.009016989055 0.03276784911 0)
(-0.009716758244 0.03034259888 0)
(-0.009081111836 0.03032568491 0)
(-0.009072335652 0.03063074926 0)
(-0.009064242033 0.03093577619 0)
(-0.009700164115 0.03095298195 0)
(-0.009588961816 0.03522711039 0)
(-0.0096045687 0.03461749437 0)
(-0.008967618742 0.0346004866 0)
(-0.008951505976 0.03520991788 0)
(-0.009000800206 0.03337795972 0)
(-0.009636443391 0.03339498718 0)
(-0.007134643985 0.03302499328 0)
(-0.007440941896 0.0330323279 0)
(-0.006996214931 0.03760394611 0)
(-0.007308458302 0.03761190389 0)
(-0.007319512391 0.03730662027 0)
(-0.007010780839 0.03729898938 0)
(-0.009527010241 0.03767081283 0)
(-0.009542660632 0.03705966466 0)
(-0.008905770642 0.03704254501 0)
(-0.00889000837 0.03765363321 0)
(-0.008936103517 0.03582033479 0)
(-0.009573559357 0.0358375273 0)
(-0.009480029365 0.03950130329 0)
(-0.008842010897 0.03948392443 0)
(-0.008874030393 0.03826431773 0)
(-0.009511317605 0.03828144866 0)
(-0.006979487763 0.0379086143 0)
(-0.007295876899 0.03791697377 0)
(-0.006686548677 0.03759623188 0)
(-0.006664247352 0.03790040104 0)
(-0.006706675783 0.03729183061 0)
(-0.009733683182 0.02973256595 0)
(-0.009098654537 0.0297158967 0)
(-0.009089656202 0.03002078436 0)
(-0.009650251969 0.02782670086 0)
(-0.00901178049 0.02783327534 0)
(-0.009083431222 0.02817600488 0)
(-0.009115757142 0.02849160703 0)
(-0.009751604621 0.02849943999 0)
(-0.007090614857 0.02778133439 0)
(-0.007200515328 0.02812725137 0)
(-0.007503461293 0.02813062896 0)
(-0.007401272918 0.02777732085 0)
(-0.00693159701 0.02785774746 0)
(-0.007004692307 0.02813560481 0)
(-0.00390612332 0.02759260077 0)
(-0.003892550261 0.02789639306 0)
(-0.004199347404 0.02789834662 0)
(-0.00421311424 0.02759473021 0)
(-0.003768996008 0.03001571113 0)
(-0.004085454433 0.03002163051 0)
(-0.004098212659 0.02971713357 0)
(-0.003782873044 0.02971181388 0)
(-0.006858551653 0.03271553129 0)
(-0.006831057772 0.03301796283 0)
(-0.003990337066 0.03279230792 0)
(-0.004079798731 0.03254320312 0)
(-0.003755828299 0.03031962852 0)
(-0.00407457941 0.03032640809 0)
(-0.004004385907 0.03215516036 0)
(-0.003695750889 0.0321525299 0)
(-0.006883355625 0.03241222829 0)
(-0.003369320127 0.03214399887 0)
(-0.003455799087 0.03001113378 0)
(-0.0034406054 0.03031419856 0)
(-0.0200826055 0.01838027775 0)
(-0.02262197146 0.01840540712 3.585187702e-13)
(-0.01228000307 0.01815871522 0)
(-0.01358045573 0.01819564285 0)
(-0.01488090838 0.01823257047 0)
(-0.01495027759 0.01578964658 0)
(-0.01340700852 0.02430380375 0)
(-0.01221061775 0.02060220657 0)
(-0.01091022184 0.02056528055 0)
(-0.01087552918 0.02178702623 0)
(-0.01217592508 0.02182395224 0)
(-0.007008903605 0.02045449881 0)
(-0.006974210942 0.02167624448 0)
(-0.008274623872 0.02171317098 0)
(-0.008309316536 0.0204914253 0)
(-0.007537686203 0.02474935589 0)
(-0.006887880708 0.02473147194 0)
(-0.00710572283 0.03149328808 0)
(-0.007432521811 0.03150285182 0)
(-0.007418620115 0.0311944175 0)
(-0.007078476741 0.03118379333 0)
(-0.00841059447 0.03153079552 0)
(-0.008416572017 0.0312242887 0)
(-0.008090678594 0.03121503464 0)
(-0.008088269612 0.03152186996 0)
(-0.008442350834 0.03030845534 0)
(-0.008117647469 0.03029929186 0)
(-0.008105701554 0.03060398224 0)
(-0.008432442948 0.03061337397 0)
(-0.006238079979 0.02471302021 0)
(-0.005708467977 0.02041757166 0)
(-0.005673775313 0.02163931734 0)
(-0.0069271787 0.03882034358 0)
(-0.006595769477 0.03881053535 0)
(-0.00657406707 0.03911381284 0)
(-0.006910488664 0.03912410416 0)
(-0.007002966188 0.03637919213 0)
(-0.006979262812 0.03607053627 0)
(-0.006645232685 0.03606042645 0)
(-0.006692914061 0.03637146694 0)
(-0.007147995462 0.02743420437 0)
(-0.006727786199 0.02735980097 0)
(-0.009418416246 0.02724708683 0)
(-0.008767083369 0.02722859159 0)
(-0.008815374829 0.02750994722 0)
(-0.009470957901 0.02541476655 0)
(-0.008820573595 0.02539686617 0)
(-0.008802894843 0.02600744561 0)
(-0.009453433273 0.02602591828 0)
(-0.008452933228 0.03000378304 0)
(-0.008130833744 0.02999492067 0)
(-0.008484435354 0.02908839616 0)
(-0.008170153954 0.02908021012 0)
(-0.008158305418 0.02938547119 0)
(-0.008474741562 0.0293937752 0)
(-0.007247902527 0.02905845167 0)
(-0.007220565292 0.0293619667 0)
(-0.007528432621 0.0293692323 0)
(-0.007549623332 0.02906497481 0)
(-0.003471751563 0.02970814735 0)
(-0.003863207229 0.02819394477 0)
(-0.00697827492 0.02905272625 0)
(-0.006947263754 0.02935602338 0)
(-0.005095778554 0.02882139852 0)
(-0.005074652859 0.02912196638 0)
(-0.005376913233 0.02914048795 0)
(-0.005472760169 0.02889911779 0)
(-0.004269681615 0.02526763914 0)
(-0.004252906038 0.02587881214 0)
(-0.004904757126 0.02589845793 0)
(-0.004920516036 0.02528668814 0)
(-0.004254389875 0.02730035693 0)
(-0.003946670012 0.02729729812 0)
(-0.007064940741 0.03393708052 0)
(-0.006746449543 0.03392854778 0)
(-0.006717324102 0.03423263674 0)
(-0.007040899828 0.03424171141 0)
(-0.006754121718 0.03115476256 0)
(-0.006726184278 0.03141021455 0)
(-0.003648705089 0.03373290674 0)
(-0.003560951908 0.03397984517 0)
(-0.003579689662 0.03334777166 0)
(-0.008385420317 0.03275133489 0)
(-0.008393286951 0.03244630151 0)
(-0.008079910267 0.03243825475 0)
(-0.008072098768 0.03274334649 0)
(-0.008086855931 0.0318276545 0)
(-0.008404538881 0.03183605071 0)
(-0.007148669052 0.03180368299 0)
(-0.007453137283 0.03181085207 0)
(-0.007388130593 0.03394614422 0)
(-0.007406222822 0.03364100367 0)
(-0.007088684961 0.033632498 0)
(-0.008349667201 0.03397242574 0)
(-0.008358752898 0.03366646151 0)
(-0.008042092992 0.03365803757 0)
(-0.008031420012 0.03396389993 0)
(-0.008062712878 0.0330478824 0)
(-0.008376994278 0.03305606843 0)
(-0.006944433817 0.03851688301 0)
(-0.006618269623 0.03850756447 0)
(-0.006721222846 0.03668053753 0)
(-0.007018983607 0.0366871186 0)
(-0.007562264703 0.02875979306 0)
(-0.007266080855 0.02875427902 0)
(-0.008490273627 0.02878279405 0)
(-0.00817701527 0.02877458028 0)
(-0.008370094815 0.02781704177 0)
(-0.008047062524 0.02780502935 0)
(-0.00813047457 0.02814956945 0)
(-0.00844789025 0.02815937787 0)
(-0.005206597199 0.02763038087 0)
(-0.005158807105 0.02791996902 0)
(-0.005522839706 0.02794450407 0)
(-0.005663744749 0.02769055614 0)
(-0.005412817544 0.02851827257 0)
(-0.005106540925 0.02851678812 0)
(-0.007007360918 0.02875022634 0)
(-0.005019474033 0.03005195797 0)
(-0.005112827573 0.02980699591 0)
(-0.00473643857 0.02972940705 0)
(-0.004718031506 0.03003283491 0)
(-0.004775343623 0.0288141168 0)
(-0.004759326275 0.02911698781 0)
(-0.00383102093 0.02879962569 0)
(-0.003813662129 0.02910353765 0)
(-0.00412599868 0.02910661397 0)
(-0.004141063254 0.02880229611 0)
(-0.006775047245 0.03362444382 0)
(-0.003803442559 0.03330903253 0)
(-0.003722751922 0.03123525465 0)
(-0.004043899403 0.03124244302 0)
(-0.004053139926 0.0309364264 0)
(-0.003732537208 0.0309292535 0)
(-0.004694690258 0.03033322627 0)
(-0.004925655384 0.03029809946 0)
(-0.003715440839 0.03154172361 0)
(-0.004039693387 0.03155036316 0)
(-0.006872378949 0.03179958573 0)
(-0.0083139447 0.03519243841 0)
(-0.00832173364 0.03488814112 0)
(-0.007999976244 0.03487923167 0)
(-0.007990828618 0.0351833768 0)
(-0.008020687064 0.03426987417 0)
(-0.008340010819 0.03427848735 0)
(-0.007369864902 0.03425139344 0)
(-0.007323393271 0.03638795021 0)
(-0.007314679998 0.03608079906 0)
(-0.008285153641 0.03641435167 0)
(-0.008291505853 0.03610865057 0)
(-0.007971052008 0.03609983493 0)
(-0.007966342213 0.03640569625 0)
(-0.007982621507 0.03548840051 0)
(-0.008305285231 0.03549739249 0)
(-0.006339698328 0.03513240232 0)
(-0.00631046374 0.035433535 0)
(-0.006282360096 0.03572124011 0)
(-0.006614477298 0.03575111601 0)
(-0.006962785749 0.03576259674 0)
(-0.007190005644 0.02966516306 0)
(-0.00691323285 0.02965906437 0)
(-0.007016946348 0.03454566327 0)
(-0.006687725916 0.03453597398 0)
(-0.006400933216 0.0345287389 0)
(-0.006368978243 0.03483087338 0)
(-0.007080667705 0.03087723577 0)
(-0.006782980788 0.03086645419 0)
(-0.003472185909 0.03422965124 0)
(-0.003323521053 0.03465347072 0)
(-0.008254986171 0.03763673697 0)
(-0.008263264531 0.03733120415 0)
(-0.00794694349 0.03732284662 0)
(-0.007938438146 0.03762837299 0)
(-0.007961121703 0.03671154307 0)
(-0.008278292325 0.03671998152 0)
(-0.007328763353 0.03669483606 0)
(-0.007256491537 0.0388299787 0)
(-0.007269493071 0.03852611339 0)
(-0.00822142486 0.03885664063 0)
(-0.008229669381 0.03855229949 0)
(-0.007911367058 0.03854371532 0)
(-0.007902443194 0.03884798038 0)
(-0.007929537189 0.03793383134 0)
(-0.008246594319 0.03794226656 0)
(-0.006379073668 0.03758875025 0)
(-0.006351466503 0.0378923712 0)
(-0.006323513958 0.03819575517 0)
(-0.006641250431 0.03820426648 0)
(-0.006961995293 0.0382130336 0)
(-0.007020079018 0.03699354231 0)
(-0.006720986333 0.03698686662 0)
(-0.006428654642 0.03698089405 0)
(-0.006405617227 0.03728498551 0)
(-0.007256783658 0.02844569148 0)
(-0.007553212216 0.02845058776 0)
(-0.007858491918 0.02845777989 0)
(-0.007814657451 0.02813946568 0)
(-0.007722891737 0.02779111047 0)
(-0.005997941191 0.02770140898 0)
(-0.005890420866 0.02801247214 0)
(-0.0061802131 0.02766887491 0)
(-0.007023932 0.02844305487 0)
(-0.004156192909 0.02849928631 0)
(-0.003847305756 0.02849653511 0)
(-0.004787745258 0.02851017766 0)
(-0.004876212351 0.02761889797 0)
(-0.004831858063 0.02790988989 0)
(-0.006586749056 0.03270980091 0)
(-0.0065556995 0.03301144998 0)
(-0.006525732325 0.03331398166 0)
(-0.006803250245 0.03332083979 0)
(-0.007112017456 0.03332841491 0)
(-0.003620085029 0.0330539981 0)
(-0.003896149972 0.03305462465 0)
(-0.00423786671 0.03212124082 0)
(-0.004330108517 0.03187442984 0)
(-0.004024874294 0.03185383611 0)
(-0.003704482308 0.03184644202 0)
(-0.007173638569 0.03211175008 0)
(-0.006896144607 0.03210744826 0)
(-0.006649988835 0.03210693271 0)
(-0.00661877934 0.03240721423 0)
(-0.00340083017 0.03122753317 0)
(-0.003390477282 0.03153272312 0)
(-0.006216981664 0.0394076236 0)
(-0.006242459234 0.03910399897 0)
(-0.00595235648 0.0390959316 0)
(-0.005924548251 0.03939943325 0)
(-0.006268540066 0.03880112977 0)
(-0.005980074894 0.03879339285 0)
(-0.006412018479 0.0363665574 0)
(-0.006257425232 0.03597615265 0)
(-0.006216392721 0.036394964 0)
(-0.008161779812 0.02748911607 0)
(-0.007829668129 0.02747684584 0)
(-0.008132002881 0.0266017481 0)
(-0.007804512855 0.02659472038 0)
(-0.007791060923 0.02690044704 0)
(-0.008120326195 0.02690695725 0)
(-0.006835732751 0.0265899277 0)
(-0.006814015898 0.0269079139 0)
(-0.00713128973 0.02689931769 0)
(-0.007152145434 0.02658925791 0)
(-0.007504070568 0.02967317257 0)
(-0.007823960174 0.0296818586 0)
(-0.007842208139 0.02937723359 0)
(-0.007857852225 0.02907230748 0)
(-0.005046980826 0.02942087175 0)
(-0.005278017131 0.02938483829 0)
(-0.006534351225 0.02659045639 0)
(-0.006547497048 0.02692930973 0)
(-0.005552897915 0.02653816652 0)
(-0.005556047674 0.0268500438 0)
(-0.005896552391 0.02687334283 0)
(-0.005886193347 0.02655614956 0)
(-0.005680817384 0.02736812187 0)
(-0.005330516083 0.02736442184 0)
(-0.006464789151 0.03392157201 0)
(-0.006433456282 0.03422559829 0)
(-0.006069545078 0.03788538802 0)
(-0.006039381042 0.03818865241 0)
(-0.006099549385 0.03758194872 0)
(-0.006295679669 0.03849857459 0)
(-0.006009289026 0.03849118054 0)
(-0.006439250698 0.03667554063 0)
(-0.006188950773 0.03667456665 0)
(-0.006159450179 0.03697506707 0)
(-0.006129502619 0.03727850798 0)
(-0.007866813151 0.02876673725 0)
(-0.005140063209 0.02822105884 0)
(-0.005455775737 0.02822644591 0)
(-0.005754448492 0.02824230997 0)
(-0.005644107596 0.0284823031 0)
(-0.004746038768 0.02942192405 0)
(-0.004428281064 0.02941716041 0)
(-0.004417305017 0.02972369567 0)
(-0.004403382654 0.03002798917 0)
(-0.00649543539 0.03361752623 0)
(-0.004386862504 0.03063956697 0)
(-0.004369864218 0.03094218295 0)
(-0.004672913503 0.03096152202 0)
(-0.00476561474 0.03071813161 0)
(-0.004347512874 0.03124311355 0)
(-0.004579050367 0.03120823016 0)
(-0.004393028925 0.03033300872 0)
(-0.004420588386 0.03163006769 0)
(-0.006678606549 0.03182912401 0)
(-0.009606050276 0.007196345581 6.866729407e-14)
(-0.006199354206 0.004410110491 4.218847494e-14)
(-0.02029284944 0.01802931086 1.706551567e-13)
(-0.01690457078 0.01415049697 1.342814748e-13)
(-0.01676635978 0.0131215156 1.331157407e-13)
(-0.02321477201 0.02195847841 2.074035388e-13)
(-0.0277035619 0.03236817499 3.047284647e-13)
(-0.02701925869 0.02928866318 2.75862666e-13)
(-0.02718428563 0.02754085466 2.771255447e-13)
(-0.02753128525 0.03487161308 3.283484595e-13)
(-0.02479279847 0.03775664081 3.56242813e-13)
(-0.02488795569 0.0353776895 3.566591467e-13)
(-0.02236469069 0.04047178301 0)
(-0.01977346643 0.04039899775 0)
(-0.01718547669 0.04032630434 0)
(-0.01847896084 0.04036263654 0)
(-0.01083022261 0.006006554357 7.743805597e-14)
(-0.007256263648 0.003819219622 4.941880238e-14)
(-0.0216505179 0.0142540119 1.817712647e-13)
(-0.01827611154 0.01133525159 1.450506382e-13)
(-0.01844026663 0.010487737 1.467992394e-13)
(-0.0174819649 0.01273402723 1.386668558e-13)
(-0.02450774427 0.01717604553 2.184363801e-13)
(-0.02857661704 0.02469363902 3.128053372e-13)
(-0.0280612182 0.02251596659 2.853550729e-13)
(-0.02809355329 0.02069227901 2.866318294e-13)
(-0.02736007909 0.02578495677 2.784716902e-13)
(-0.02821890313 0.02640761403 3.34662853e-13)
(-0.02509718671 0.02817029545 3.581301922e-13)
(-0.02499098547 0.02577181053 3.5826897e-13)
(-0.02498552307 0.03299482028 3.570893581e-13)
(-0.0226303001 0.0306940145 0)
(-0.02003557991 0.03062834254 0)
(-0.02000160883 0.03185067663 0)
(-0.01744406225 0.0305558897 0)
(-0.01741038296 0.03177794811 0)
(-0.01870556949 0.03181432866 0)
(-0.01873941902 0.03059227508 0)
(-0.01731234066 0.03544063051 0)
(-0.0186067895 0.03547699011 0)
(-0.01863935838 0.034256036 0)
(-0.01734462582 0.03421966835 0)
(-0.01221310777 0.032854517 0)
(-0.01157072468 0.03283684383 0)
(-0.01155504171 0.03344713918 0)
(-0.0121973097 0.03346486588 0)
(-0.01027429645 0.03341219097 0)
(-0.01028997781 0.03280195236 0)
(-0.01022743748 0.03524438865 0)
(-0.01024287412 0.0346347678 0)
(-0.009536039459 0.003442612802 6.838973832e-14)
(-0.006206369112 0.002123171622 4.241051954e-14)
(-0.01993325197 0.008579527188 1.677269434e-13)
(-0.01663830867 0.006737601763 1.323802179e-13)
(-0.01554956268 0.005446215419 1.237482339e-13)
(-0.0180988863 0.009306172149 1.440236819e-13)
(-0.02278145941 0.01044884456 2.033789803e-13)
(-0.02726181991 0.01543052806 2.983724379e-13)
(-0.02653776237 0.01394919812 2.700062396e-13)