/*--------------------------------*- C++ -*----------------------------------*\
| =========                 |                                                 |
| \\      /  F ield         | OpenFOAM: The Open Source CFD Toolbox           |
|  \\    /   O peration     | Version:  v2012                                 |
|   \\  /    A nd           | Website:  www.openfoam.com                      |
|    \\/     M anipulation  |                                                 |
\*---------------------------------------------------------------------------*/
FoamFile
{
    version     2.0;
    format      ascii;
    class       surfaceScalarField;
    location    "1.84";
    object      phi;
}
// * * * * * * * * * * * * * * * * * * * * * * * * * * * * * * * * * * * * * //

dimensions      [0 3 -1 0 0 0 0];
oriented        oriented;


internalField   nonuniform List<scalar> 
6430
(
-0.007176782393
0.9308903907
-0.01454381964
0.9304605341
-0.02203934196
0.9294790781
-0.007302497955
0.927942297
-0.02271369986
-0.4589718818
0.4600524625
-0.008383078586
-0.4570546497
0.009575698757
0.4583985163
-0.01091956532
-0.455719961
0.01227642783
0.4565510131
-0.006434254778
-0.006522749155
-0.2254161767
0.006363284405
0.2254338407
-0.006160647598
-0.2227578837
0.005477117138
0.222859261
-0.00527922455
-0.2204209403
0.005305925298
0.2208291696
-0.005520455495
-0.2172347074
0.007714757588
0.2183054508
-0.004377035331
-0.004408465652
-0.05279163567
0.00306477571
0.05286429589
-0.003137435932
-0.003639936907
0.9345303276
-0.007389418018
0.9342100153
-0.01136376881
0.9334534289
-0.007761263425
0.9322761974
-0.007936405744
-0.4631630476
0.4643044246
-0.008902640432
-0.4615352466
0.01017811067
0.4629118217
-0.01155468583
-0.4583258667
0.01305825929
0.459921317
-0.007158478816
-0.00732064717
-0.2255850124
0.007245694435
0.2257074401
-0.007136574368
-0.2231491092
0.006484196067
0.2232427146
-0.006276344664
-0.2226613261
0.006195606662
0.2231054894
-0.006459710215
-0.2221009467
0.008502883169
0.2232618168
-0.004827263163
-0.004836490076
-0.05485471493
0.007038520308
0.1101332132
-0.0548090518
-0.003747243682
-0.00376072308
-0.003800596988
0.9383309246
-0.00770835878
0.9381177771
-0.0118327745
0.9375778446
-0.008086701076
0.9367324732
-0.008202349221
-0.4655323513
0.4667457209
-0.009300070691
-0.4643056164
0.01061358677
0.4657051755
-0.01201314591
-0.4619158642
0.01352618051
0.4641661069
-0.007817270137
-0.007894944718
-0.2264755301
0.008666714776
0.2269084797
-0.008904294211
-0.2236562893
0.0090622475
0.2238714523
-0.008992433064
-0.2240543073
0.008778214845
0.22426364
-0.00878058814
-0.2260104144
0.009247506367
0.2264054504
-0.009599519537
-0.1133161583
0.01262752414
0.2262310172
-0.01248593088
-0.1130564521
-0.003862018535
0.9421929432
-0.007820901988
0.9420766605
-0.01197237713
0.9417293198
-0.008191870579
0.941180818
-0.00822885141
-0.4679620381
0.4691810624
-0.009410894797
-0.4670910455
0.01070710633
0.4684558222
-0.01207188303
-0.4662292957
0.01353044606
0.4678014021
-0.007571544645
-0.007530850119
-0.2289047244
0.009464620466
0.229834346
-0.01027588766
-0.2250011714
0.0120108144
0.2255975198
-0.01237302098
-0.2248711157
0.01294893274
0.2251621217
-0.01302303786
-0.2271299508
0.01315426361
0.2273161616
-0.01322498247
-0.2247705291
0.01365307009
0.2240156137
-0.01287323145
-0.00383489821
0.9460278414
-0.007752660154
0.9459944225
-0.01183117586
0.9458078355
-0.008104245328
0.945505984
-0.008052096464
-0.4703593982
0.4715367275
-0.009281574607
-0.4697834462
0.01051865873
0.4710702835
-0.01180549601
-0.4693007024
0.01316178969
0.4707301754
-0.007333177759
-0.007258084945
-0.2334292084
0.008111571965
0.234653219
-0.009319879704
-0.2282365619
0.01308436802
0.2294190224
-0.01412543641
-0.2266501404
0.01653992084
0.2274045113
-0.01712091979
-0.2281278851
0.01834767823
0.2285509871
-0.01864929322
-0.2215517063
0.01884425301
0.2207608281
-0.01801866709
-0.003735691167
0.9497635326
-0.007538247878
0.9497969792
-0.01146523064
0.9497348182
-0.007852848935
0.949622576
-0.007728973754
-0.4726574133
0.473764544
-0.008959979648
-0.4723050488
0.01011164867
0.4734882607
-0.01129486053
-0.4720833612
0.01252338264
0.4733568124
-0.006950683405
-0.00684615047
-0.2359364448
0.007618276827
0.2362759528
-0.007957784776
-0.2337676657
0.009631107833
0.2354111858
-0.01124922609
-0.2305111894
0.01554090199
0.2317969152
-0.01674059681
-0.2303989331
0.01959957293
0.2312001582
-0.02032333039
-0.2189722867
0.02085685838
0.2186582993
-0.02051952432
-0.003580516476
0.9533440491
-0.007211194556
0.9534276573
-0.01092948228
0.953453106
-0.007477030266
0.9534734911
-0.007303367047
-0.474809377
0.4758324171
-0.008500070381
-0.4746123207
0.009553264035
0.4756807426
-0.01062168598
-0.4745503005
0.01171518917
0.47566652
-0.006476704463
-0.006354704209
-0.2372132304
0.007050318185
0.2375003037
-0.007337391468
-0.2368826009
0.008199036192
0.2371684274
-0.008484862619
-0.2360522722
0.009325389879
0.2364432034
-0.009715085299
-0.2339929648
0.012911638
0.2349899684
-0.01389222625
-0.2186304795
0.01516290981
0.218872779
-0.0153985592
-0.003385411567
0.9567294606
-0.006805214676
0.9568474604
-0.01027899283
0.9569268841
-0.007019294927
0.9570289362
-0.006815143078
-0.4767913058
0.4777241527
-0.007952141797
-0.4766886745
0.008902958148
0.477641467
-0.009855750649
-0.4767064844
0.01081693958
0.4776726867
-0.005948921479
-0.005834220394
-0.2382893146
0.00644446743
0.2385305757
-0.006685728565
-0.2379374193
0.007394206296
0.238167117
-0.007623903989
-0.2371553944
0.008284217604
0.237363699
-0.008492522172
-0.2360590703
0.009068312984
0.2362132035
-0.009222446214
-0.2196166646
0.009246821568
0.2197984742
-0.009428631252
-0.003165428848
0.9598948895
-0.006351470878
0.9600335024
-0.009562604621
0.9601380179
-0.006514072738
0.9602774809
-0.006297076515
-0.4785936473
0.4794382306
-0.007358656042
-0.4785362625
0.008210033802
0.479379548
-0.009053319365
-0.478569469
0.009893267351
0.4794012047
-0.0054118596
-0.005313143523
-0.2391928462
0.005840914013
0.239395402
-0.006043469816
-0.2387867314
0.006627304234
0.2389724491
-0.006813021876
-0.2379158833
0.007337655832
0.2380787515
-0.007500524009
-0.2365985569
0.007938208416
0.2367054984
-0.008045149912
-0.2203594261
0.008060375375
0.2205476333
-0.008248582641
-0.002932753156
0.9628276426
-0.005874649219
0.9629753985
-0.0088186048
0.9630819734
-0.005990712568
0.9632234771
-0.005773888425
-0.48021981
0.4809796763
-0.006750578911
-0.4801693029
0.007508577951
0.4809122412
-0.008251516172
-0.480172202
0.008983285398
0.4808867872
-0.004890266675
-0.00480760399
-0.2399516378
0.005261847143
0.2401220039
-0.005432213167
-0.2394754709
0.005915607733
0.2396268656
-0.00606700248
-0.2385141807
0.006489129244
0.2386436887
-0.00661863727
-0.2369748046
0.006957362933
0.2370499335
-0.007032491881
-0.221105182
0.007055957936
0.2212868924
-0.007237668323
-0.002698146061
0.9655257887
-0.005396265826
0.9656735183
-0.0080790672
0.9657647748
-0.005473584368
0.9658817173
-0.005263723054
-0.4816785054
0.4823592663
-0.006154345287
-0.4816071823
0.006827209764
0.4822605798
-0.0074806073
-0.4815487176
0.008118181201
0.4821633323
-0.004402907269
-0.004329888676
-0.2405905389
0.004723162151
0.2407342883
-0.004866911547
-0.2400388505
0.005269609872
0.2401634171
-0.005394176453
-0.2389927995
0.005738244936
0.239097458
-0.005842903424
-0.2372402446
0.006108896822
0.2372936947
-0.00616234689
-0.2218149966
0.006201823479
0.2219846331
-0.00637145993
-0.002469138884
0.9679949276
-0.004931179804
0.9681355592
-0.007365406926
0.9681990019
-0.004976976564
0.9682724017
-0.00477911478
-0.482982232
0.4835905634
-0.005585307988
-0.4828715541
0.006181848359
0.483446037
-0.006756331227
-0.4827345263
0.007312265766
0.4832655341
-0.003956125837
-0.003887147759
-0.2411301764
0.004230678342
0.2412519677
-0.004352469636
-0.2405038983
0.00469014352
0.2406073442
-0.004793589511
-0.2393815368
0.005077501173
0.2394672809
-0.005163245251
-0.2374301432
0.005374692561
0.2374688325
-0.005413381788
-0.2224731515
0.005470239908
0.2226291151
-0.005626203548
-0.002251417329
0.9702463449
-0.004490475715
0.9703746176
-0.006693206005
0.9704017322
-0.004510888912
0.9704188404
-0.004328755821
-0.4841451398
0.4846880919
-0.005053841064
-0.4839832889
0.005582635223
0.4844887581
-0.006088104489
-0.4837596069
0.006573427831
0.4842196118
-0.003547905849
-0.003485526869
-0.2415881157
0.003784243406
0.2416918411
-0.003887968867
-0.2408912987
0.004173056016
0.2409779884
-0.004259745684
-0.2397012682
0.00449664958
0.239772283
-0.004567664362
-0.2375685516
0.004737629583
0.2375971359
-0.004766213806
-0.2230767172
0.00483895004
0.2232194281
-0.004981660984
-0.002048405157
0.9722947501
-0.004080686726
0.9724068992
-0.006071230473
0.972392276
-0.004081489095
0.9723451794
-0.003916080323
-0.4851818002
0.4856664768
-0.004566165744
-0.4849618588
0.005035379473
0.4854074251
-0.005480945832
-0.4846483703
0.005905740985
0.4850482425
-0.003179897356
-0.003125715856
-0.2419789137
0.003384140175
0.2420677448
-0.003472971206
-0.2412170795
0.003715386658
0.241290404
-0.00378871121
-0.2399670259
0.003988431651
0.2400263924
-0.00404779817
-0.237671582
0.004185848425
0.2376931484
-0.00420741478
-0.2236293176
0.00429343274
0.2237602321
-0.004424347151
-0.001862941458
0.9741576915
-0.003707176695
0.9742511344
-0.005506588176
0.9741916875
-0.003692269056
0.9740760243
-0.003545164015
-0.4861063888
0.4865397011
-0.004125581371
-0.4858249223
0.004542840677
0.4862188189
-0.004936737256
-0.4854216793
0.005309925757
0.4857707956
-0.002853366723
-0.002805675362
-0.2423143751
0.003030702868
0.2423909485
-0.003107276191
-0.2414936395
0.003315079158
0.2415562709
-0.003377710565
-0.2401899412
0.003547754434
0.2402400137
-0.003597826885
-0.237749909
0.003711059606
0.2377665258
-0.003727676421
-0.2241376188
0.0038241775
0.2242586525
-0.003945211218
-0.001696296171
0.9758539877
-0.00337219773
0.975927036
-0.005001849073
0.9758213388
-0.003344701585
0.9756352662
-0.003216389406
-0.4869326334
0.4873211547
-0.003733222938
-0.4865885558
0.004105556279
0.4869381688
-0.004455169348
-0.4860976545
0.004784550812
0.4864040657
-0.002566781201
-0.002524180767
-0.242604249
0.002721577899
0.242670739
-0.002788067913
-0.2417306896
0.002967756735
0.2417847151
-0.003021782266
-0.2403785105
0.003167911286
0.2404210946
-0.003210495375
-0.2378106837
0.003304163619
0.2378237405
-0.003317220462
-0.2246091901
0.003421384228
0.2247222082
-0.003534402351
-0.001549135475
0.9774031232
-0.003076830576
0.9774547311
-0.004557985398
0.9773024936
-0.003038991264
0.9770458453
-0.00292957331
-0.4876733881
0.4880233032
-0.003388906341
-0.4872671233
0.003722758435
0.4875790792
-0.004034714387
-0.4866917825
0.00432708252
0.486962229
-0.002317047964
-0.002280481062
-0.2428566212
0.002453025399
0.2429148273
-0.002511231517
-0.2419358492
0.002668034558
0.241982902
-0.002715087367
-0.2405393146
0.002841788881
0.2405758207
-0.002878295006
-0.2378587548
0.002956410381
0.2378692146
-0.002966870213
-0.2250512148
0.003075939573
0.225157913
-0.003182637778
-0.001421681003
0.9788248042
-0.002821325198
0.9788543753
-0.004174830698
0.9786559991
-0.002774983825
0.9783299195
-0.002683921004
-0.4883406691
0.4886576951
-0.003092009782
-0.4878735399
0.003393313373
0.4881538897
-0.003673663188
-0.487216806
0.003935310933
0.4874573183
-0.002104012063
-0.002071811154
-0.2430782883
0.002223406691
0.2431296877
-0.002274806101
-0.2421151907
0.002412997404
0.2421565904
-0.002454397137
-0.2406775996
0.002565307201
0.2407091707
-0.002596878237
-0.2378975778
0.002662632575
0.2379061624
-0.002671217245
-0.2254703126
0.002782739279
0.225572193
-0.002884619646
-0.00131357555
0.9801383797
-0.002604742568
0.9801455423
-0.003850505983
0.9799017625
-0.002550129112
0.979507603
-0.00247806039
-0.4889454995
0.4892351945
-0.002839824172
-0.4884195915
0.003114041285
0.4886737337
-0.003368183559
-0.4876851175
0.003604584838
0.4879015384
-0.001925550383
-0.001895455296
-0.2432747393
0.002029891745
0.2433205528
-0.002075705195
-0.2422736116
0.002198776183
0.2423104307
-0.002235595271
-0.2407976187
0.002333686377
0.2408251929
-0.002361260532
-0.2379298084
0.002417274085
0.2379370964
-0.002424562091
-0.2258720205
0.002536406004
0.2259702117
-0.002634597252
-0.001224559184
0.9813629389
-0.002426613457
0.9813475966
-0.003583849911
0.981058999
-0.002364859257
0.980599835
-0.00231122267
-0.4894984789
0.4897654943
-0.002631874718
-0.4889158239
0.002883902377
0.4891486606
-0.003116739149
-0.4881080134
0.003332766369
0.4883063958
-0.001779899492
-0.001751249297
-0.2434506381
0.001871097841
0.2434919454
-0.001912405172
-0.2424151657
0.002023428751
0.2424483407
-0.002056603711
-0.2409029238
0.002144469246
0.2409273188
-0.002168864257
-0.237957593
0.002217390204
0.2379640543
-0.002223851422
-0.2262602155
0.002334334866
0.2263554267
-0.002429545983
-0.001154805333
0.9825177443
-0.002286553349
0.9824793446
-0.003374152894
0.9821465985
-0.002212537398
0.9816180813
-0.002179861811
-0.4900080306
0.4902604331
-0.002464939997
-0.489371774
0.00270022991
0.4895878016
-0.002916257498
-0.4884963052
0.003115598124
0.4886787371
-0.001660026914
-0.001638003117
-0.2436103347
0.00174440741
0.2436483116
-0.001782384386
-0.242543408
0.001884232928
0.2425737672
-0.001914592153
-0.2409965897
0.001994488964
0.2410185073
-0.002016406598
-0.2379826573
0.002059327553
0.2379886658
-0.002065336106
-0.2266370535
0.00217326538
0.2267296407
-0.00226585257
-0.001101968677
0.9836197129
-0.002181600744
0.9835589766
-0.003217842109
0.9831828398
-0.002106083032
0.9825933342
-0.002087011946
-0.4904889235
0.4907251454
-0.002342304963
-0.4897960555
0.002562662203
0.4899988789
-0.002765485593
-0.4888548501
0.00295246214
0.4890255185
-0.001569168924
-0.00155396153
-0.2437579212
0.001647946205
0.2437933531
-0.001683378123
-0.2426614437
0.001778316092
0.2426896815
-0.001806553926
-0.2410812515
0.001880404682
0.2411012879
-0.001900441058
-0.2380063424
0.001939285634
0.2380121633
-0.00194510659
-0.2270037467
0.002049812321
0.2270939997
-0.002140065294
-0.001072989971
0.9846927029
-0.002118938074
0.9846049247
-0.003123481667
0.9841873834
-0.002039351485
0.9835318295
-0.00202262554
-0.4909418655
0.4911589756
-0.002256461612
-0.4901963068
0.002468286926
0.4903904273
-0.002662407445
-0.4891919035
0.002840907037
0.4893543399
-0.001505498334
-0.001497845068
-0.2438964964
0.001580492624
0.2439301383
-0.001614134557
-0.2427719651
0.001704215258
0.2427987089
-0.001730959058
-0.241159234
0.00180053514
0.2411779452
-0.001819246384
-0.2380295613
0.001855374987
0.238035385
-0.001861198607
-0.2273615516
0.001962376002
0.2274496344
-0.002050458883
-0.00104304572
-0.002070781734
-0.003056198999
-0.002003798257
-0.001960624068
-0.4913765959
0.4915907454
-0.002217947777
-0.4905797964
0.002419001451
0.4907677302
-0.002606935287
-0.4895153614
0.002779819764
0.4896707953
-0.001471688577
-0.001463565121
-0.2440289566
0.001541785617
0.2440615599
-0.001574388897
-0.2428774214
0.001661553892
0.2429032544
-0.001687386902
-0.2412328085
0.001754414554
0.2412507988
-0.001772404826
-0.2380532314
0.001807556345
0.2380594011
-0.001813726074
-0.2277100811
0.001911343878
0.2277956187
-0.001996881465
0.003022889974
-0.003103178612
-0.05271134703
0.003475577996
-0.003592208407
-0.05473808451
0.00741346668
-0.2161966951
-0.004176825755
-0.004274653209
0.1059895411
-0.003001860832
-0.105653418
0.005688627737
0.02433073435
-0.2207269859
-0.02092150052
-0.004783194583
0.1098515197
-0.003466074536
-0.1094408388
0.00653097169
-0.003084393945
0.005837869936
0.1063008408
0.05345865914
0.003248102197
-0.003338591516
-0.05336816982
0.02629578657
-0.0003305728289
-0.02685073674
0.0008855230032
-0.02785069753
-0.0008475217001
0.001240470534
0.0274577487
0.006700198647
-0.00700890063
-0.1130074563
-0.001383516444
-0.02808521541
0.001618034325
0.02727105967
-0.0008776038083
-0.02777697231
-0.003098928301
0.0463419645
0.00422420417
-0.02527148498
-0.0221957554
-0.00025447346
0.0006969265442
0.02585333349
0.003272311018
0.05354663828
-0.00336029016
-0.02241276153
0.02224226852
-8.398045368e-05
0.02710233484
-0.005442988919
-0.01266951998
-0.01208875424
0.02678452684
-0.0003609888658
-0.02280138591
5.805154816e-05
0.005531108645
0.02570539504
-0.02426878678
-0.001235458623
0.001665380462
0.02383886494
-0.05217938465
0.003518624123
0.05227957112
-0.003618810584
0.05253975786
0.003591315757
-0.05247698667
-0.001850257671
-0.001803829275
-0.05207243707
0.003335326493
0.0520996261
-0.003362515519
0.003465874123
-0.003507591826
-0.05213766694
-0.0007967943113
-0.0247355467
0.001263554232
-0.02508450118
-0.001154109309
0.001423690016
0.02481492048
-0.05176641537
0.003158253783
0.05182342311
-0.00321526152
0.003311240533
-0.003379548734
-0.05200412887
0.003104655456
-0.003147592535
-0.05172347829
-0.0009688932801
-0.02540400935
0.001288401448
0.02476584896
-0.000536333506
-0.02519840873
0.02433138334
-0.0007196436875
0.003606211527
0.05257713788
-0.001835712393
-0.001807879155
0.05291396427
0.0140839989
-0.05275345918
-0.005372399424
-0.008872104567
-0.01226711628
0.02524283996
-0.0245313799
0.01155565622
0.01202957554
-0.0155422084
-0.008754483408
0.02411802598
-0.02407742372
0.005101993472
-0.02454474092
-0.005880886851
0.005867810243
0.02455781753
0.02378397016
-0.0002673432372
-0.02431342123
0.02910035171
-0.02314895134
-0.0004202917279
-0.006014299505
-0.02458812092
0.006057679512
-0.006960697722
0.0138059267
0.02225512274
0.02305695084
-0.0005084392992
0.02550639018
0.02520593425
-0.02533758361
0.008820163629
-0.009400492411
-0.2254111019
0.2264323584
0.01187533155
-0.006764776226
-0.1124100022
-0.1124327129
0.00660515563
0.1102848843
0.1116388624
0.007057401967
-0.007572503926
-0.1111237605
-0.00746966144
0.09399024739
-0.09436898407
0.007848398114
-0.003033432847
0.004287640064
0.04508775729
-0.004788690579
-0.02638787136
0.003716090871
0.02746047107
-0.02640056
0.002045200603
0.02671369864
-0.002358339236
0.02667381795
0.001753660009
-0.00160537466
-0.0268221033
0.02927662425
-0.005207722252
0.08649396705
-0.01085486546
-0.08310876303
0.02645297709
0.0009096557641
-0.0005180595823
-0.02684457327
-0.02481792097
0.004280906818
0.0267111393
-0.006174125149
-0.03162273903
0.02359991989
0.03326565913
0.02421032506
0.0542013871
-0.01905869678
-0.0064390511
0.003938058432
0.05443508079
-0.004047916825
-0.05432522239
0.001709662863
0.02647961013
-0.001515455046
0.02590531425
0.00182627931
-0.001673827777
-0.02605776579
-0.000476743393
0.02442534526
-0.02490419075
0.0009555888841
0.02503808568
0.02148520642
-0.02176323403
-0.000198715788
0.02236310033
-0.004300329033
-0.01716096146
-0.0009018098352
-0.008873478825
0.05052495795
-0.05017329524
0.008521816119
0.002638224412
0.02412227568
-0.01959316349
0.02549493045
0.0005175409722
-0.0001257102993
-0.02588676112
-0.03080362827
0.02596867582
4.626187551e-05
-0.02559166942
0.001828428017
0.0256113841
-0.001848142692
0.002015333402
-0.002417256254
-0.02599863715
-0.006026968767
-0.02460230364
0.004241401049
-0.000546037149
-0.02607990036
0.0009931553837
0.02563278212
-0.02593301026
0.001685332367
0.02581797947
-0.001570301582
0.001764201433
-0.001701780879
-0.02565408997
0.0008771500025
0.02604478861
-0.0004689615242
0.003655859113
-0.004639314909
-0.02383446517
-0.001243001525
0.00167475946
0.02399358733
0.002155451155
0.02584680531
-0.002096942207
0.02672127706
0.009393576843
-0.009876173311
-0.02623868059
-0.002235962239
0.02751662389
-0.02190168293
-0.003378978717
-0.004913519059
0.009482052366
0.01779456702
0.02061926973
-0.0003770648348
-0.01840384582
0.02405673743
-0.004930263796
-0.000722627812
0.02067634052
-0.004979584725
-0.01999708482
0.02430524628
-0.005303461961
-0.02444386989
0.005442085568
0.0251144616
-0.0001655683004
0.01480723982
-0.0008367829521
-0.02415792687
-0.006502761345
0.00630129578
0.02435939243
-0.00458218298
-0.01311627183
-0.0007053910127
-0.006744176969
-0.02408792864
0.006674178741
-0.01475748969
-0.02207310735
-0.02626738223
0.001728233586
0.02617041786
-0.001631269218
0.001624823924
-0.001554557242
-0.02600327694
-0.02653346316
0.0009711037715
-0.02578967918
0.003067863898
0.0270027221
-0.02585668763
0.001806570012
0.02600403291
-0.001953915288
0.001647436654
-0.001701404053
-0.02621341483
-0.02397272055
0.02313117421
-3.605746945e-05
0.002356709652
-0.02632020559
-9.224610929e-06
-0.02783733137
0.002417068714
0.02201645088
0.0001547670953
7.105054582e-05
-0.000127635338
0.02632019997
0.0005919622108
-0.02282489122
0.02258099769
0.0001162581958
-5.470587687e-05
-0.02368382483
0.0008613657216
2.107320215e-05
-0.02560931066
0.001603363594
0.0256057102
-0.00159976313
0.001750661492
-0.001901245849
-0.02570610328
-0.02492126086
0.002787440796
-0.02640227213
0.001206289805
0.02607313233
-0.02574468907
0.001548301729
0.02570332697
-0.001506939624
0.001579769581
-0.001555535642
-0.0256335446
-0.02481417581
0.0244074661
-0.0001296237961
0.0004679600082
-9.207738829e-05
-0.02519005843
0.0008941239611
-0.02562457268
-0.001195329531
0.02393754574
0.001589167127
-0.02390805468
0.02321744942
-0.0005047242688
-0.0002202322667
0.006878908688
-0.007390473082
-0.0240198155
0.02548889143
-0.02499831341
0.006388330667
0.02644311781
0.01060142984
0.0002234243946
0.005187574373
-0.005410998769
-0.01854431906
-0.004388362419
0.005308133816
0.02423903639
0.02093487667
-0.005172055213
0.02219114652
-0.002467909404
-0.02195919936
-0.02173861116
0.02145661898
1.464894172e-05
0.0002292221411
-0.02191137611
-5.6457185e-05
-0.02472714326
0.0006429441712
-0.01936137733
-0.0004393558926
0.0147892619
-0.0009833351977
-0.00541762451
0.02079023441
-0.0005833480015
0.02349046892
-0.00665297069
-0.001495051577
0.02221272893
0.002339273486
-0.02088927727
0.01939787821
-3.652520781e-06
5.890241481e-05
0.0256663205
-0.02577882641
0.02264977861
0.0002145954912
-3.383910851e-05
0.02252287895
0.0001769223783
-5.002271277e-05
0.01506296306
-0.01505562977
-7.333294812e-06
-0.004830148695
0.003703956628
-0.03114629675
-4.057531802e-06
-0.02225745884
0.02002695898
0.02742955106
-0.02073523297
0.02696014023
0.001766350381
-0.001661827525
-0.02706466308
-0.0003204644822
0.02256984921
-0.02336618141
0.001116796688
0.0006767775233
-0.0001941244574
-0.02538684382
0.02561649168
-0.02609597669
0.001156262536
0.02518542381
0.001386656753
5.909239925e-05
-0.01224675222
-0.003918960491
-0.0009952487418
-0.01087147859
-0.001375273633
0.01208148862
-0.001884386659
-0.01051756644
0.01892856832
-0.004750988028
-0.01879373137
0.004616151082
0.003188438983
0.004112956263
0.02021522864
-0.0223801118
0.02222800099
2.640050903e-05
7.632592318e-05
0.0001245599627
0.0005097647707
0.002415415017
-0.000130564023
0.02206534333
-0.02221483865
5.741793596e-05
0.02189677356
3.894596887e-05
0.02237092263
0.0001117768495
4.017947054e-05
8.109806335e-05
7.498591553e-05
-0.02238472361
-0.004512050132
0.002334855942
-0.001502130136
0.002437936513
0.01958760648
-0.02110737848
1.764187178e-05
1.992657851e-05
0.02164328515
3.325614752e-05
3.118239677e-05
0.02490942452
0.001950758752
-0.003498142977
0.003409254089
-0.003524371152
0.0009968301732
-0.01858161407
-0.004316899037
0.01877268469
-0.01521932282
-0.002556531697
0.01561713037
0.01117209369
-0.001690041326
-0.002544420969
-0.001502808158
-0.003331468018
-0.001449420481
-0.005506274574
0.01869153342
-0.02168822868
-0.005759904215
0.02194185832
-0.02105895852
-0.005559533956
-0.0001937390669
0.0005810573993
-0.02207452371
-3.059146615e-05
-1.209101984e-05
-0.0005101350308
-0.01960650309
0.02567244765
-0.005375209453
-0.0006907350986
-0.01393039597
-0.004993956197
-0.0006821509243
-0.01980662293
-0.005834518567
0.01200117381
-0.006135349098
-0.001115098012
-0.01294741621
-0.0009829797582
0.00586152859
-0.00645898831
0.02719412307
-0.0005423600728
0.0209208856
-0.01499011507
0.0002326253852
0.004433638295
-2.587515096e-05
0.004573259871
0.006436342386
-0.006313961884
-0.2253267297
-0.005483321969
0.2232379983
-0.2233501562
0.005897486757
-0.005242847704
-0.2227013443
-0.005102461164
0.2210083398
-0.2206900935
0.005016829006
-0.00536923875
-0.2199641673
0.218352509
-0.2174262267
0.006511364649
0.02177645023
-0.02162302393
-0.2255086268
-0.02094166268
0.2235589766
-0.2234766946
0.02115940276
0.005606023641
0.2234172626
-0.02077592362
-0.2230158906
-0.02101100326
0.2226502652
-0.2221871657
0.02077100073
0.005160284576
0.2213850444
-0.02145975373
-0.2220353938
0.2227743416
-0.2215373048
0.02310377817
0.006758309679
0.2193298804
0.2194055117
0.007915703584
-0.004504509947
-0.00451125452
0.1089024658
-0.005136693645
-0.1085937969
0.004828024751
-0.1077057386
-0.004922235705
0.004631656472
0.1079963178
0.0531119465
0.003151968894
-0.003242858296
-0.05302105709
0.05249456895
-0.05242730296
0.003398608143
-0.05225873837
0.003277715252
0.05231634961
0.008309738064
-0.008437205345
-0.226139672
-0.008317433691
0.2240409824
-0.2238543041
0.008418402646
0.00672153403
0.2236240459
-0.008196106471
-0.2234860738
-0.007965698011
0.2237128484
-0.2235042994
0.007993557512
0.006097522881
0.2229741847
-0.008020939177
-0.2237996398
0.2255178495
-0.2250732943
0.008437445782
0.007574109532
0.2237158958
-0.009682892944
0.2244178901
0.008526880289
0.2238943453
-0.005491387485
-0.1113559794
-0.1112334531
-0.005496418187
-0.1105479592
-0.005464441146
0.005130223338
0.1108821771
0.1106234026
0.007090089088
-0.003784748002
-0.003795530525
0.05523152642
-0.004155197037
-0.05503053037
0.003954200984
-0.05459956781
-0.003994182662
0.003867070361
0.05472668012
0.009414341973
-0.01006541661
-0.2281126787
-0.01133658319
0.2256282804
-0.2250740408
0.01101900953
0.009082115802
0.2242998051
-0.0115606542
-0.2245262692
-0.01182063354
0.2245922447
-0.2243184072
0.01178534883
0.008826293208
0.2239045901
-0.01182909777
-0.2246438746
-0.01189038263
0.2264666375
-0.226286208
0.01184368704
0.009002631167
0.2258459097
-0.01198243773
-0.2269344424
-0.01262637201
0.2292144114
-0.2289674801
0.01241146264
0.01135187122
0.2277080113
-0.01191558742
-0.2254640902
0.008601513804
-0.009887098085
-0.2321028083
-0.0131560984
0.2292340777
-0.2281086977
0.01217598652
0.01154516324
0.2263114009
-0.01401884055
-0.227205862
-0.01591764223
0.2267025412
-0.225985121
0.01539421484
0.01282745054
0.2249462454
-0.01634476874
-0.2260335729
-0.01719727984
0.2275487211
-0.2271715554
0.01696660596
0.01310768841
0.2266564881
-0.01740814981
-0.2277911937
-0.01759630329
0.2291082415
-0.2292729547
0.01781876998
0.01357453124
0.2293361834
-0.0167318531
-0.2223812599
0.007751200667
-0.008103987004
-0.2355836585
-0.01100792357
0.2350605778
-0.233440583
0.009416816422
0.01192953941
0.230506266
-0.01251832933
-0.2322025398
-0.01641598475
0.2310199041
-0.2297329435
0.01523291674
0.01585147994
0.2275657588
-0.01747622782
-0.2293407239
-0.01994946868
0.230139257
-0.2293231165
0.01923513573
0.01800810773
0.2280279824
-0.02057093672
-0.2296860292
-0.0209754681
0.2279246564
-0.2282535892
0.02134999906
0.01913896707
0.2288709001
-0.020480062
-0.2194404343
0.00719833142
-0.007497514891
-0.2369140469
-0.008402361233
0.2370045245
-0.2367022681
0.008100104868
0.008649740431
0.2360490306
-0.0087043818
-0.2365805804
-0.01028049064
0.236384958
-0.2354468564
0.009349044116
0.01421965993
0.2324188432
-0.01169911448
-0.2346201179
-0.01536765779
0.2342659883
-0.2331420496
0.01427513199
0.01876612087
0.231057856
-0.01631410955
-0.2330150112
-0.01738262708
0.2271645963
-0.2272175157
0.01745372367
0.02119850417
0.2276223271
-0.01750295995
-0.2184994954
0.006595898034
-0.006847310679
-0.2380379019
-0.007591165862
0.2380682069
-0.2378226066
0.007345565531
0.007912054519
0.2372915062
-0.007833604715
-0.2376949805
-0.008534149797
0.2373913977
-0.2371631581
0.008305910179
0.009049190751
0.2366611571
-0.008756197682
-0.2369333466
-0.009374755857
0.2363527764
-0.2361570545
0.009179033925
0.0117805508
0.2354110667
-0.009544520114
-0.235889306
-0.00957405518
0.2273517273
-0.227422506
0.009644833858
0.01510695372
0.2272317876
-0.009749366588
-0.2194413532
0.005989246845
-0.006200180479
-0.2389819125
-0.006812632494
0.2389339986
-0.2387337912
0.006612425105
0.007160883345
0.2383015298
-0.007008295176
-0.2385910688
-0.00756319246
0.2381771405
-0.2379979702
0.007384022157
0.008069621238
0.2376059941
-0.007736072358
-0.2377430035
-0.008203829258
0.2370006266
-0.2368564654
0.008059668068
0.008887378705
0.2365337107
-0.008320800141
-0.236481586
-0.008336333322
0.2271827457
-0.2272106165
0.008364204075
0.009304420484
0.2272941284
-0.008524493977
-0.2201712654
0.005404842074
-0.005582092993
-0.2397743869
-0.006088703729
0.2396422977
-0.2394780653
0.00592447133
0.006436856387
0.2391244465
-0.006247924887
-0.2393162497
-0.006693165474
0.238799638
-0.2386568181
0.006550345609
0.007168570138
0.2383462262
-0.006830119993
-0.2383772261
-0.007190786372
0.2374835174
-0.237375348
0.007082617061
0.007804198429
0.2371346365
-0.007272778151
-0.2368928128
-0.007293120003
0.2271517629
-0.227148384
0.007289741101
0.008079710978
0.2271634101
-0.007477225287
-0.2209210767
0.004855371767
-0.005004774494
-0.2404411362
-0.005426210365
0.2402257347
-0.2400900542
0.005290529908
0.005759174949
0.2397987305
-0.005556921592
-0.2399081392
-0.00591870134
0.2393002046
-0.2391846916
0.00580318837
0.006353903298
0.238934864
-0.006028959543
-0.2388825413
-0.006311256976
0.237848606
-0.2377664281
0.006229079162
0.006856507848
0.2375843724
-0.006369388557
-0.237182113
-0.006404568533
0.2272277833
-0.2272002541
0.006377039373
0.007045902206
0.2271618187
-0.006577534415
-0.2216420307
0.004349165381
-0.004475496544
-0.2410038452
-0.004828123345
0.2407099358
-0.2405970282
0.004715215741
0.00514013374
0.2403552108
-0.004936374395
-0.2403956472
-0.005233880015
0.2397085136
-0.2396138137
0.005139180135
0.005628484564
0.239409965
-0.005323888575
-0.2392915282
-0.005547540848
0.2381278949
-0.2380647536
0.005484399473
0.006032057604
0.2379254452
-0.005589400622
-0.2373882834
-0.005641972173
0.2273840433
-0.2273387869
0.005596715761
0.006169311302
0.2272602954
-0.005801340294
-0.2223137834
0.003890934904
-0.003998353605
-0.2414806969
-0.004295534935
0.2411149191
-0.2410201878
0.004200803679
0.004582137768
0.2408179415
-0.004386038473
-0.2408007952
-0.00463359831