/*--------------------------------*- C++ -*----------------------------------*\
| =========                 |                                                 |
| \\      /  F ield         | OpenFOAM: The Open Source CFD Toolbox           |
|  \\    /   O peration     | Version:  v2012                                 |
|   \\  /    A nd           | Website:  www.openfoam.com                      |
|    \\/     M anipulation  |                                                 |
\*---------------------------------------------------------------------------*/
FoamFile
{
    version     2.0;
    format      ascii;
    class       volVectorField;
    location    "1.64";
    object      U;
}
// * * * * * * * * * * * * * * * * * * * * * * * * * * * * * * * * * * * * * //

dimensions      [0 1 -1 0 0 0 0];


internalField   nonuniform List<vector> 
3259
(
(101.4997515 -0.2024360721 6.933794205e-21)
(101.4406651 -0.6110532686 1.094261777e-19)
(101.3265519 -1.032703876 -2.203746956e-19)
(101.1384214 -1.497586471 -4.357154248e-22)
(100.8011156 -1.830956447 -1.742002897e-21)
(100.3993475 -2.348650711 0)
(99.88195379 -2.992864831 2.324595849e-19)
(99.16872448 -3.623284776 9.596058972e-19)
(98.01509284 -4.584230601 -2.497156271e-19)
(96.42968737 -5.83596347 5.021849588e-19)
(94.50291437 -7.455546498 -4.401157156e-19)
(92.44640305 -9.13742803 -4.970724894e-19)
(101.8991304 -0.2182025446 0)
(101.8502076 -0.6599083083 0)
(101.7562253 -1.114101345 0)
(101.6001466 -1.612840497 0)
(101.3008093 -1.997421957 0)
(100.9649719 -2.567107023 0)
(100.5536368 -3.269175897 2.294077055e-19)
(99.97170714 -3.952865893 8.310128333e-19)
(99.04405123 -4.974804635 0)
(97.79681282 -6.294932746 -5.168358115e-19)
(96.33473431 -8.061378497 1.222352164e-19)
(94.88060669 -10.45073009 -4.594077223e-19)
(102.3235291 -0.2283465222 0)
(102.2856771 -0.6915659114 0)
(102.2141929 -1.166564028 0)
(102.0923178 -1.680174772 0)
(101.8318389 -2.094746852 0)
(101.5732913 -2.688162367 0)
(101.2677661 -3.393896954 9.761937696e-20)
(100.8318211 -4.094288457 0)
(100.1450755 -5.085208765 7.620134319e-19)
(99.23182194 -6.335305731 -4.579095283e-20)
(98.29817754 -7.94694467 0)
(97.71508199 -10.22167752 -3.832668423e-19)
(102.7624345 -0.2330642252 0)
(102.7351748 -0.7061347025 0)
(102.6852368 -1.190268475 0)
(102.5960388 -1.704654705 0)
(102.3730503 -2.133889773 0)
(102.1839705 -2.726201885 0)
(101.9695245 -3.406684193 -1.342827458e-24)
(101.6534465 -4.092576787 -1.025157691e-20)
(101.169793 -4.986774031 0)
(100.5107034 -6.059643291 6.916807709e-20)
(99.87386589 -7.314672586 -2.810562811e-19)
(97.37010083 -8.475712034 0)
(103.2058288 -0.2329869055 0)
(103.1878544 -0.705554898 0)
(103.1563066 -1.188338907 0)
(103.0952797 -1.692074082 0)
(102.9065581 -2.12296533 0)
(102.7752183 -2.695123429 0)
(102.6308634 -3.330466255 0)
(102.396353 -3.9752127 -6.459616771e-20)
(102.0501248 -4.752421234 -1.655750962e-20)
(101.5342867 -5.613056447 1.490102238e-20)
(100.9786437 -6.5203074 1.539115921e-19)
(96.63469911 -6.929939747 -3.673230798e-20)
(103.6448663 -0.2289198678 0)
(103.6345782 -0.6924460444 0)
(103.6176375 -1.165181982 0)
(103.5790729 -1.649140122 0)
(103.4196698 -2.07066812 0)
(103.3319196 -2.610269902 0)
(103.2359168 -3.190713368 0)
(103.0465042 -3.77607676 0)
(102.7635018 -4.435125067 2.820742388e-20)
(102.2938899 -5.112663907 -1.461214731e-19)
(101.7430622 -5.776334099 8.449672065e-20)
(95.49124365 -5.709484522 0)
(104.0724734 -0.2216876493 0)
(104.0681931 -0.669484807 0)
(104.0620504 -1.125445465 0)
(104.0399969 -1.583438376 0)
(103.9036035 -1.98742255 0)
(103.8454849 -2.487746151 0)
(103.7772072 -3.010147888 0)
(103.6089254 -3.530614884 0)
(103.334908 -4.083261203 0)
(102.8545913 -4.619391105 0)
(102.2658722 -5.117888667 7.105563386e-20)
(94.94855567 -4.893880602 4.353980198e-20)
(104.4833321 -0.2121157059 0)
(104.4833755 -0.6393205771 0)
(104.4843589 -1.073712333 0)
(104.4731488 -1.5022896 0)
(104.3535345 -1.88343848 0)
(104.3126685 -2.341696361 0)
(104.2558971 -2.809087574 0)
(104.0901438 -3.264991305 0)
(103.8006995 -3.727050946 0)
(103.2868681 -4.155809766 0)
(102.6164786 -4.535524262 0)
(95.18666995 -4.319183911 0)
(104.8737462 -0.2009891737 0)
(104.8765392 -0.6044500701 0)
(104.8813145 -1.014196847 0)
(104.8759135 -1.412070766 0)
(104.7676088 -1.767437119 0)
(104.7338159 -2.183836346 0)
(104.6755574 -2.601605786 0)
(104.5008166 -2.997168861 0)
(104.1824722 -3.384534233 0)
(103.6289389 -3.731763429 0)
(102.8408377 -4.022039949 0)
(95.66919002 -3.842800403 0)
(105.241443 -0.1889940308 0)
(105.2456242 -0.5670549981 0)
(105.2513841 -0.9505607373 0)
(105.2475494 -1.317861452 0)
(105.1462613 -1.646371923 0)
(105.1116007 -2.023120214 0)
(105.0424317 -2.396154241 0)
(104.851691 -2.738460972 0)
(104.4980293 -3.065106821 0)
(103.904647 -3.350475547 0)
(102.9737683 -3.573299749 0)
(96.24626384 -3.441029016 0)
(105.5853878 -0.1766877803 0)
(105.5898427 -0.5288985351 0)
(105.5943896 -0.8857861704 0)
(105.5887548 -1.223582893 0)
(105.4910621 -1.525487729 0)
(105.4497791 -1.865735862 0)
(105.3633596 -2.198401202 0)
(105.1526158 -2.495433253 0)
(104.7616537 -2.772994815 0)
(104.13076 -3.011155057 0)
(103.0400308 -3.182204408 0)
(96.83997497 -3.096529995 0)
(105.9055497 -0.164503837 0)
(105.9093957 -0.4913234133 0)
(105.9111037 -0.8221400771 0)
(105.9011628 -1.132140044 0)
(105.8043843 -1.408541328 0)
(105.7525461 -1.715797667 0)
(105.6450654 -2.011817194 0)
(105.4119876 -2.271569216 0)
(104.984546 -2.509414579 0)
(104.3187904 -2.711121676 0)
(103.057845 -2.841776394 0)
(97.40309953 -2.796343411 0)
(106.2026254 -0.1527684486 0)
(106.2051822 -0.455312723 0)
(106.2028987 -0.7612607999 0)
(106.186888 -1.045584658 0)
(106.088982 -1.298096624 0)
(106.0240187 -1.575767935 0)
(105.8937957 -1.839584964 0)
(105.6369517 -2.068083442 0)
(105.1754172 -2.273948762 0)
(104.4767387 -2.447050348 0)
(103.0406806 -2.545936412 0)
(97.90997636 -2.532388937 0)
(106.4778149 -0.1417182788 0)
(106.4785754 -0.4215602934 0)
(106.4715201 -0.704281156 0)
(106.4482628 -0.9652856804 0)
(106.3477203 -1.195782683 0)
(106.2680429 -1.447191203 0)
(106.114333 -1.68316789 0)
(105.8336154 -1.885235453 0)
(105.3410349 -2.06530144 0)
(104.6105074 -2.21554964 0)
(102.9989528 -2.289325868 0)
(98.34941047 -2.299509306 0)
(106.7326751 -0.1315155527 0)
(106.7312746 -0.3905292916 0)
(106.7189538 -0.6519421872 0)
(106.6877165 -0.8920878202 0)
(106.5834053 -1.102581752 0)
(106.4881343 -1.330885715 0)
(106.3108927 -1.542951854 0)
(106.0069787 -1.722619392 0)
(105.4865189 -1.881808642 0)
(104.7245719 -2.013523915 0)
(102.9409008 -2.067464208 0)
(98.71944582 -2.094372434 0)
(106.9690142 -0.1222632772 0)
(106.9651997 -0.3625032996 0)
(106.9473324 -0.6046860076 0)
(106.9077033 -0.8264445556 0)
(106.7987821 -1.018969656 0)
(106.6875151 -1.227115445 0)
(106.4871454 -1.418730969 0)
(106.161191 -1.579445117 0)
(105.6157719 -1.721681464 0)
(104.8224611 -1.838206699 0)
(102.8725547 -1.876455514 0)
(99.02397905 -1.914599995 0)
(107.1887485 -0.114021881 0)
(107.1823519 -0.3376375508 0)
(107.1588091 -0.5627445175 0)
(107.1106014 -0.7685566911 0)
(106.9964352 -0.9451090986 0)
(106.869091 -1.135834744 0)
(106.6461736 -1.309901746 0)
(106.2996974 -1.454804219 0)
(105.7318019 -1.5832352 0)
(104.9069969 -1.687241596 0)
(102.7981501 -1.713044596 0)
(99.27014182 -1.758403699 0)
(107.3939369 -0.1068196563 0)
(107.3848435 -0.3159938606 0)
(107.3555919 -0.5262003184 0)
(107.2987732 -0.7184356137 0)
(107.1788018 -0.8809605791 0)
(107.0355256 -1.056798891 0)
(106.7907639 -1.215549142 0)
(106.4253182 -1.347782405 0)
(105.8370114 -1.46492605 0)
(104.9804928 -1.558594221 0)
(102.7206561 -1.574503593 0)
(99.46644894 -1.624237559 0)
(107.5863818 -0.100672091 0)
(107.574533 -0.297588507 0)
(107.5396054 -0.4950419433 0)
(107.4742491 -0.6760668197 0)
(107.3481408 -0.8263460161 0)
(107.1892402 -0.9895717672 0)
(106.92364 -1.135231329 0)
(106.5403944 -1.257364472 0)
(105.9333708 -1.365357427 0)
(105.0448376 -1.450513849 0)
(102.6422468 -1.458565239 0)
(99.62164337 -1.510721576 0)
(107.7688844 -0.09556239644 0)
(107.7541792 -0.282373421 0)
(107.7135775 -0.4691900786 0)
(107.6397643 -0.6411500362 0)
(107.5066112 -0.7810448962 0)
(107.3324167 -0.9336836241 0)
(107.0473604 -1.069053355 0)
(106.6469522 -1.182508828 0)
(106.0225684 -1.28328928 0)
(105.1016069 -1.361526193 0)
(102.5645094 -1.363338649 0)
(99.74385309 -1.416656409 0)
(107.9404451 -0.09154476107 0)
(107.9229903 -0.2704268194 0)
(107.8768345 -0.4486220385 0)
(107.7947797 -0.6142025886 0)
(107.6562014 -0.7447001534 0)
(107.4670446 -0.8887723544 0)
(107.1634657 -1.016895704 0)
(106.747035 -1.122373839 0)
(106.1061189 -1.21763275 0)
(105.1521433 -1.290328813 0)
(102.4887968 -1.287316989 0)
(99.8401601 -1.340989497 0)
(108.114175 -0.08842847849 0)
(108.0934297 -0.2614182136 0)
(108.0413769 -0.4331033605 0)
(107.94991 -0.5922332776 0)
(107.7996758 -0.7173159647 0)
(107.5948919 -0.8549395016 0)
(107.2734491 -0.977605327 0)
(106.8421716 -1.076394893 0)
(106.1852965 -1.167458759 0)
(105.1975935 -1.235793434 0)
(102.4162682 -1.229304042 0)
(99.91652699 -1.282849481 0)
(108.2489094 -0.08683634958 0)
(108.2261607 -0.2563986389 0)
(108.1696163 -0.423942855 0)
(108.0726831 -0.5827866064 0)
(107.9353951 -0.6981309674 0)
(107.7173045 -0.8314311551 0)
(107.3787803 -0.9506251322 0)
(106.9336446 -1.043893163 0)
(106.2611873 -1.131921319 0)
(105.2390384 -1.19698861 0)
(102.3477366 -1.188415125 0)
(99.97774287 -1.241599086 0)
(108.5082582 -0.08489249604 0)
(108.4809026 -0.2518292248 0)
(108.4153916 -0.4161656884 0)
(108.3011666 -0.5677892268 0)
(108.0622455 -0.6884185258 0)
(107.829918 -0.8187190347 0)
(107.4763207 -0.9360386685 0)
(107.0224466 -1.024399584 0)
(106.3346463 -1.110218023 0)
(105.2776412 -1.173130964 0)
(102.2839516 -1.163995612 0)
(100.0273485 -1.217035359 0)
(92.32119034 -9.04638586 2.375534259e-21)
(94.64636668 -10.25817224 4.201395857e-19)
(94.07723538 -7.24042483 -1.094405398e-18)
(92.44063528 -8.818047504 7.622728471e-19)
(95.854824 -7.974354763 3.905941166e-19)
(94.70671728 -9.981688626 4.794471854e-19)
(92.6911992 -8.972634598 -4.361214711e-19)
(93.41155489 -9.669416391 4.597633434e-19)
(90.7266015 -10.65596674 9.502380502e-19)
(90.45801579 -9.944268656 4.396068761e-21)
(97.80212736 -10.28823794 6.599000508e-19)
(90.42041299 -9.892654353 9.585123244e-19)
(89.72070225 -9.881737382 0)
(81.46444564 -9.558447437 3.893018059e-19)
(90.77392382 -10.71654221 0)
(93.56093391 -9.752350419 0)
(89.41531584 -10.61425483 0)
(43.43953463 -6.205457284 0)
(89.74374624 -9.929746958 1.023444868e-18)
(89.37673346 -10.55323854 -2.82320392e-18)
(84.32417684 -27.87935501 6.196829757e-20)
(90.80850219 -10.31510991 5.300719014e-19)
(92.34099745 -10.02032495 5.425753642e-19)
(92.77541192 -10.29275474 -1.292723327e-19)
(91.82364162 -9.65210856 -1.120529915e-18)
(92.20693002 -9.927285201 5.628034338e-21)
(90.77415601 -10.25155407 5.291963369e-19)
(90.27702361 -9.611339454 2.136477191e-18)
(91.34576658 -9.292959968 -1.160014589e-18)
(91.70205236 -9.561068564 5.679564089e-19)
(91.22852878 -9.202695362 5.816351048e-19)
(90.22072523 -9.568982662 5.340837196e-19)
(89.82904293 -9.59863924 -1.663750988e-18)
(89.88587242 -9.637516556 -1.681500305e-18)
(92.93308152 -10.37906935 0)
(93.41589933 -10.60250842 -3.364132482e-19)
(91.98965169 -11.55455667 -8.692105011e-20)
(91.91415523 -11.79798978 2.688163109e-18)
(88.26407228 -23.85963035 -3.674780995e-19)
(86.22240316 -26.25241036 1.968828084e-19)
(90.04834284 -10.2099147 -1.099609185e-18)
(76.2810786 -25.89451635 0)
(85.58190522 -26.42225376 0)
(77.82789749 -26.08567823 0)
(90.07635904 -10.28102992 -1.122858035e-18)
(85.29690848 -27.90214923 3.064297108e-19)
(89.75606231 -27.17298215 0)
(97.8300659 -8.038168882 0)
(97.4125328 -9.756199216 2.810955408e-21)
(95.05827779 -10.06485729 0)
(96.11974245 -10.52281246 -1.057509019e-20)
(80.88905883 -8.60977758 0)
(79.02617637 -9.165853047 0)
(90.69337192 -10.53412651 0)
(92.03300805 -10.41247397 -6.735428335e-22)
(92.23449034 -10.57323033 4.203969151e-19)
(47.11647742 -6.560149927 0)
(71.8231925 -11.09391265 3.69193416e-19)
(89.62207136 -9.375795943 5.325514846e-19)
(89.87850725 -9.754770165 5.09091304e-19)
(91.10197087 -10.6827392 4.827067181e-18)
(93.44454092 -10.71325086 -1.134919268e-19)
(93.82191815 -11.03146102 0)
(92.30876442 -10.62540163 8.437712452e-19)
(92.56598318 -10.76892016 -4.235103563e-19)
(91.01775019 -10.95030753 0)
(90.0170646 -26.89311548 0)
(89.66124021 -10.87350175 -5.711866121e-19)
(59.89155089 -19.21917374 -4.434621089e-19)
(86.26991663 -19.40030426 0)
(88.29951592 -23.38232069 0)
(86.94645146 -11.18263019 -2.22452423e-17)
(89.92087785 -10.08262075 0)
(89.43196353 -10.515773 0)
(91.78696314 -10.21738045 0)
(91.96661826 -10.36228504 4.392027036e-19)
(90.76318251 -10.48054658 4.792368583e-19)
(90.67221813 -10.12133634 1.010082822e-18)
(91.55836181 -10.02248462 -9.137064466e-19)
(91.72967936 -10.15845774 0)
(89.66094631 -9.435977081 5.412910602e-19)
(89.98011187 -9.757036971 5.430755014e-19)
(91.09583268 -11.03614807 4.838585405e-19)
(92.66092233 -10.80374564 2.746858663e-21)
(92.86637119 -10.82418847 1.050731272e-18)
(63.4630785 -19.01709781 0)
(61.64685122 -19.29243977 0)
(89.71079264 -10.99817929 1.153915561e-18)
(64.79117232 -21.25569202 -5.769118978e-19)
(69.56751817 -21.6304521 4.278806537e-19)
(87.55382868 -25.42073497 -2.849049267e-19)
(89.98374876 -10.09627802 -1.057638496e-18)
(76.72384182 -26.28351995 0)
(83.09268503 -26.67459349 -3.233779022e-21)
(65.2709119 -21.59975353 -6.189710698e-19)
(81.94652332 -26.61602655 3.996912906e-20)
(89.57617582 -10.4776754 0)
(91.32726976 -9.833275345 4.569143295e-19)
(91.50052308 -9.968870219 4.554480587e-19)
(90.61818062 -10.09060849 0)
(90.40864026 -9.754427164 -4.926234272e-19)
(91.11914111 -9.646265094 1.879976408e-21)
(91.27352325 -9.778357438 -9.169143469e-19)
(88.44416508 -9.753417372 0)
(88.47098831 -9.719548692 0)
(89.72497102 -9.835171054 0)
(89.47720427 -10.69108936 0)
(89.78292748 -9.98932392 -1.044340759e-18)
(88.48839174 -9.902561744 1.223928252e-18)
(88.45157155 -9.811407621 -2.437037081e-18)
(89.3639959 -10.491488 5.489655932e-19)
(90.89965261 -9.471717356 0)
(91.0671915 -9.596519031 0)
(90.39926721 -9.728553189 -6.395012369e-20)
(90.05632403 -9.413958406 0)
(90.67396819 -9.28128407 0)
(90.84268376 -9.41984109 4.737740101e-19)
(89.18212026 -9.59637329 0)
(89.1085925 -9.552295537 -1.155888899e-18)
(89.76758973 -9.552921853 5.522195902e-19)
(89.93446848 -9.674956703 1.130963003e-18)
(89.29351609 -9.660639169 -1.189197603e-18)
(89.2441163 -9.629808931 1.172451644e-18)
(90.96432959 -11.17013335 -1.719601638e-18)
(92.04988237 -10.98592582 8.321250331e-19)
(92.10306865 -11.13994108 0)
(35.36301387 -11.67433277 4.77610725e-17)
(89.33478026 -11.3884575 1.816348643e-18)
(87.81504436 -25.13437491 0)
(70.88930616 -21.49517847 0)
(73.42722419 -21.18037567 -1.772713059e-18)
(88.80236322 -10.09571748 -6.251189083e-19)
(88.80148933 -10.03023298 6.176553154e-19)
(90.03239956 -10.15171573 0)
(76.86457871 -26.08691545 7.557819068e-19)
(72.34064898 -24.85732652 -3.102404316e-19)
(73.09560894 -24.88034901 5.57505552e-20)
(79.67676999 -26.40408064 -1.527137652e-19)
(90.07980481 -10.355073 0)
(88.85221412 -10.24025015 -6.578237246e-19)
(88.83259496 -10.1721018 1.888666853e-18)
(87.88452073 -27.9600516 6.568680426e-20)
(87.75941911 -9.191131201 -6.532241998e-19)
(87.7635199 -9.249781366 1.316804336e-18)
(87.78370149 -9.591286503 -4.721894437e-18)
(89.7837553 -9.785413811 9.829126561e-19)
(88.59999357 -9.704343111 -1.032658841e-18)
(88.79993659 -9.692911335 0)
(92.76958951 -10.81769112 0)
(92.45841846 -11.0318732 -4.335870411e-19)
(80.98100852 -9.719731351 -1.052790839e-18)
(90.91643619 -10.86691557 0)
(91.70895178 -10.85928054 -4.610726157e-19)
(91.80687827 -10.92477496 -9.237061008e-19)
(89.55802392 -10.78859699 5.655868644e-19)
(60.62610884 -19.64721562 -5.139965934e-19)
(59.94420645 -19.72525466 7.73893802e-19)
(45.63305364 -1.930291705 9.374078298e-19)
(59.00567569 -15.11390925 0)
(63.50831973 -18.51938836 -1.604173686e-18)
(88.69855807 -10.00274008 0)
(88.57938551 -9.981707833 2.455035636e-18)
(89.84485242 -10.04818805 -1.047168712e-18)
(89.37015213 -10.4893261 2.616941157e-19)
(87.94180697 -9.497163093 1.318910313e-18)
(88.04177237 -9.535750195 1.320137318e-18)
(87.78495454 -9.337184708 -1.32242902e-18)
(87.84599362 -9.430106586 6.641408737e-19)
(89.31136686 -9.726047129 5.963230892e-19)
(89.29818643 -9.692668589 -9.066448745e-19)
(89.96100594 -9.709760867 -2.792986136e-19)
(88.19427791 -9.603859811 6.941572706e-19)
(88.19808317 -9.602945553 -2.407901682e-18)
(88.11950642 -9.562566482 -1.323056116e-18)
(88.1789698 -9.584254125 -1.336817012e-18)
(91.90607089 -10.97886588 4.629366512e-19)
(92.04886931 -11.04964654 0)
(91.29885172 -11.16236846 -4.15996171e-19)
(64.38728844 -19.42702258 -5.614060513e-19)
(53.28211191 -16.64397956 0)
(50.04972842 -15.4141374 -1.960512213e-18)
(54.351312 -17.53480435 0)
(54.63554231 -17.28940338 -3.175019855e-18)
(63.26547719 -19.36457756 0)
(89.9206417 -11.1547689 -7.306163357e-20)
(66.39676158 -21.30993601 -7.650444757e-20)
(74.87714406 -23.39485022 1.417000373e-19)
(73.66870498 -23.48566214 2.32814767e-19)
(90.01700207 -10.11439704 0)
(88.80646648 -9.996241137 0)
(88.7823139 -9.991872836 0)
(77.13114988 -26.30728554 2.096376575e-18)
(68.88849721 -23.05169278 0)
(69.35520367 -23.34465971 -1.339007832e-19)
(72.40299574 -23.33165585 0)
(70.43589057 -23.11039641 3.266947261e-19)
(64.46610125 -21.6439658 -8.030170129e-19)
(68.58467072 -23.34675805 0)
(80.8283297 -26.62449211 -1.271647667e-19)
(72.69932515 -24.62422016 -7.689012451e-20)
(74.21866538 -24.70980033 1.365440274e-19)
(88.44559997 -10.37613232 -1.1083177e-18)
(88.86044572 -10.27628882 2.265230875e-18)
(90.09857375 -10.42020389 0)
(98.97451699 -3.519733013 0)
(98.1131238 -4.196702542 2.448725858e-19)
(97.76298973 -4.454690805 2.550303929e-19)
(96.54991161 -5.340553732 -8.229224002e-19)
(96.09556945 -5.676724381 6.235798693e-19)
(94.60808365 -6.809417189 1.687688433e-20)
(99.76789237 -3.887638833 0)
(99.06608653 -4.624866477 5.08992099e-21)
(98.3478534 -4.319748365 -1.21000146e-19)
(98.78336844 -4.903197394 9.329700284e-19)
(97.81087441 -5.856551867 -1.219697712e-19)
(96.86199965 -5.491697683 -5.308105789e-19)
(97.44994528 -6.218977977 1.24251667e-19)
(96.27626608 -7.467047931 -2.555677585e-19)
(95.01079368 -7.00069581 1.186083636e-18)
(94.94907652 -7.64210543 -5.541623034e-19)
(94.43601842 -8.279832134 -5.248143838e-19)
(93.70929737 -7.963517511 1.128420407e-18)
(92.84241962 -9.366587176 4.812750645e-19)
(92.40495836 -9.7920974 -5.226646922e-19)
(92.0133032 -9.525908401 -5.450872685e-19)
(100.6186829 -4.073798493 0)
(100.0865963 -4.807287265 -7.891836395e-19)
(99.3100155 -4.695211599 0)
(99.87267115 -5.080847712 -1.556311583e-18)
(99.14896926 -6.006614376 2.02118213e-19)
(98.13294427 -5.931177564 1.146288429e-19)
(98.88430437 -6.358760435 4.210515489e-19)
(98.08020992 -7.565829697 3.854470675e-19)
(96.71489016 -7.554569466 -4.680884318e-19)
(96.8389712 -8.097758618 0)
(96.53209374 -8.626810309 -5.844309175e-21)
(95.73425572 -8.717670447 9.054945095e-19)
(95.27243997 -10.52339644 -9.031930123e-20)
(95.07606433 -11.21243128 -6.173055874e-21)
(94.33862259 -10.9523841 -8.854678869e-19)
(101.4544019 -4.105047763 4.224637649e-20)
(101.081333 -4.777870321 0)
(100.3422701 -4.817090631 -9.174215436e-19)
(100.924276 -5.027221323 0)
(100.3982981 -5.848743712 -3.274229054e-19)
(99.47436995 -5.993065609 0)
(100.2121127 -6.149282262 8.270391424e-20)
(99.67941309 -7.14432328 0)
(98.51130722 -7.497098976 -2.359053982e-20)
(99.53073873 -7.504101029 -1.999972249e-20)
(99.39852931 -8.626078373 -2.103749916e-20)
(98.08814369 -9.531941964 0)
(97.46515328 -8.915056011 -2.674035244e-19)
(102.2192712 -4.013658906 6.834253032e-20)
(101.958777 -4.609559545 2.773205433e-19)
(101.3131267 -4.746852333 0)
(101.8456571 -4.821051936 2.760677326e-19)
(101.4492272 -5.49637454 6.46240398e-20)
(100.6830788 -5.773940764 -1.565725549e-19)
(101.3046628 -5.73383899 -1.958978528e-19)
(100.8671928 -6.469009624 3.163404862e-20)
(100.0165504 -6.989477032 0)
(100.739013 -6.717471378 -2.218854466e-19)
(100.1800345 -7.413158289 -8.454677071e-21)
(99.68838487 -8.309619604 0)
(96.88167755 -7.289588137 -8.856979296e-20)
(102.8923259 -3.831558618 0)
(102.691796 -4.343631408 2.216940928e-20)
(102.1560175 -4.550148701 -2.785742477e-19)
(102.6001559 -4.519148366 -1.213827314e-19)
(102.2582762 -5.057210657 -1.110606966e-19)
(101.6737046 -5.391068687 -3.943613985e-21)
(102.1256618 -5.238489739 0)
(101.7014666 -5.777738246 -6.657340652e-20)
(101.1049513 -6.292690596 -1.832128846e-20)
(101.577619 -5.954398903 1.73055285e-19)
(99.95058938 -6.333741183 0)
(100.2211474 -7.133040003 -4.477297461e-20)
(95.76188476 -5.977174909 0)
(103.4762812 -3.594818705 0)
(103.2901271 -4.028173114 0)
(102.8525507 -4.267902903 -2.999175695e-20)
(103.2029236 -4.172606361 0)
(102.8650698 -4.600874082 7.26508651e-22)
(102.4264417 -4.943090079 -5.266217274e-20)
(102.7285568 -4.7405029 -2.127798173e-20)
(102.2859378 -5.145360015 1.005341886e-20)
(101.8669638 -5.613222555 -8.528478186e-20)
(102.154168 -5.274853908 -1.750936684e-20)
(98.95540627 -5.372911925 -5.866512244e-20)
(99.74186149 -6.079020792 3.157009494e-20)
(94.99057986 -5.064241843 6.457726507e-20)
(103.9768824 -3.332324685 0)
(103.7843276 -3.69668935 0)
(103.4226669 -3.9457707 0)
(103.6928997 -3.815344759 0)
(103.3340545 -4.158811872 0)
(102.9930956 -4.488275788 0)
(103.1883614 -4.268267941 0)
(102.7135033 -4.579881358 0)
(102.4046841 -4.997960634 -2.520918303e-20)
(102.5421287 -4.674780871 0)
(98.21017658 -4.620421155 0)
(98.70819327 -5.164266766 5.408414453e-20)
(95.09334354 -4.451527847 0)
(104.4041633 -3.063807852 0)
(104.1932097 -3.37035751 0)
(103.8938591 -3.614030826 0)
(104.0938723 -3.468254533 0)
(103.7063717 -3.746484898 0)
(103.4350962 -4.052538826 0)
(103.5504404 -3.833794248 0)
(103.0300412 -4.076842306 0)
(102.8019477 -4.448200365 0)
(102.7944457 -4.144066264 0)
(97.76967112 -4.017249678 0)
(98.08538805 -4.458320834 0)
(95.53576963 -3.954244907 0)
(104.7690195 -2.802105907 0)
(104.5333132 -3.06108503 0)
(104.2840925 -3.29112573 0)
(104.424511 -3.142501914 0)
(104.0068672 -3.370890949 0)
(103.7874177 -3.649020484 0)
(103.8409233 -3.441788222 0)
(103.2620984 -3.633888367 0)
(103.0951007 -3.960707098 0)
(102.9476268 -3.679795083 0)
(97.48617766 -3.520126803 0)
(97.68455863 -3.883969212 0)
(96.09799907 -3.53547567 0)
(105.0815777 -2.554752518 0)
(104.8184934 -2.774965778 0)
(104.6092756 -2.987238789 0)
(104.6999563 -2.843359256 0)
(104.253663 -3.03357369 0)
(104.0730135 -3.282985931 0)
(104.0781777 -3.092177811 0)
(103.4294665 -3.245108153 0)
(103.3093491 -3.531845244 0)
(103.0286263 -3.274969531 0)
(97.34465126 -3.107499006 0)
(97.43827515 -3.409760703 0)
(96.69300478 -3.178093094 0)
(105.3506405 -2.325901993 0)
(105.0599391 -2.514544396 0)
(104.8825727 -2.707406515 0)
(104.9321308 -2.572636635 0)
(104.4598002 -2.733423393 0)
(104.3085941 -2.955130288 0)
(104.2748735 -2.782622967 0)
(103.5470472 -2.90471296 0)
(103.4630359 -3.155691832 0)
(103.0571319 -2.922474596 0)
(97.32208295 -2.762852255 0)
(97.32887597 -3.015525161 0)
(97.26688729 -2.867736285 0)
(105.5835834 -2.117238876 0)
(105.2665235 -2.280296508 0)
(105.1145465 -2.453541711 0)
(105.1303006 -2.330240917 0)
(104.6344167 -2.468105682 0)
(104.5061181 -2.663936742 0)
(104.4397206 -2.509885039 0)
(103.6261129 -2.607422212 0)
(103.5700474 -2.826547778 0)
(103.0476454 -2.616024942 0)
(97.39203452 -2.473583439 0)
(97.33192447 -2.685766008 0)
(97.78933362 -2.595305375 0)
(105.7868155 -1.929227001 0)
(105.4453648 -2.071552259 0)
(105.3135918 -2.225761213 0)
(105.301695 -2.115035083 0)
(104.7840265 -2.234751102 0)
(104.673952 -2.406885945 0)
(104.5790693 -2.270544897 0)
(103.6752838 -2.348325022 0)
(103.6409205 -2.539248871 0)
(103.0111987 -2.350056653 0)
(97.52944736 -2.229533752 0)
(97.42095611 -2.408694721 0)
(98.24610564 -2.355016515 0)
(105.9655834 -1.761596392 0)
(105.6020365 -1.887102181 0)
(105.486422 -2.023217844 0)
(105.4518045 -1.925421875 0)
(104.9134117 -2.030520802 0)
(104.8181091 -2.181070624 0)
(104.6976964 -2.061424766 0)
(103.7013772 -2.123243477 0)
(103.6837324 -2.289013507 0)
(102.9565796 -2.119894848 0)
(97.71284086 -2.022691329 0)
(97.57174024 -2.174596742 0)
(98.63330338 -2.143198399 0)
(106.1242323 -1.613629724 0)
(105.7408849 -1.725467513 0)
(105.6382731 -1.844614153 0)
(105.584801 -1.759620853 0)
(105.0262496 -1.852793567 0)
(104.943048 -1.983699943 0)
(104.7993392 -1.879671334 0)
(103.70994 -1.928625188 0)
(103.7049729 -2.071861354 0)
(102.8903511 -1.92150773 0)
(97.92448703 -1.847059679 0)
(97.7637118 -1.97605968 0)
(98.95362532 -1.957273222 0)
(106.266379 -1.484416308 0)
(105.8652996 -1.585137113 0)
(105.7732297 -1.688441366 0)
(105.7038938 -1.615901324 0)
(105.1254451 -1.699268128 0)
(105.0522298 -1.812221493 0)
(104.8869803 -1.722815931 0)
(103.705267 -1.761396704 0)
(103.7098707 -1.884355338 0)
(102.8171408 -1.751467886 0)
(98.15030555 -1.698044267 0)
(97.9800933 -1.807457593 0)
(99.2136191 -1.795329534 0)
(106.3949903 -1.373050535 0)
(105.9779506 -1.464700244 0)
(105.8944731 -1.553216562 0)
(105.8116102 -1.49269428 0)
(105.2133499 -1.567975861 0)
(105.1483974 -1.664432617 0)
(104.9630444 -1.588764469 0)
(103.690572 -1.618937915 0)
(103.7024273 -1.723554873 0)
(102.7401882 -1.606937841 0)
(98.37936381 -1.572212403 0)
(98.20763217 -1.664528596 0)
(99.42156314 -1.655791875 0)
(106.5125023 -1.278533118 0)
(106.0810096 -1.362826275 0)
(106.0045378 -1.437541522 0)
(105.9100156 -1.388562186 0)
(105.2919049 -1.457190454 0)
(105.233797 -1.53841894 0)
(105.0295193 -1.47568938 0)
(103.6682735 -1.498993462 0)
(103.6856299 -1.586919566 0)
(102.6618385 -1.485540287 0)
(98.60324019 -1.466949734 0)
(98.43609654 -1.544053206 0)
(99.58623668 -1.537231819 0)
(106.6209964 -1.199870046 0)
(106.1763084 -1.278303669 0)
(106.1054947 -1.340114711 0)
(106.0008543 -1.302228578 0)
(105.3627344 -1.365447338 0)
(105.3102778 -1.432522513 0)
(105.0880476 -1.382057317 0)
(103.640241 -1.399743651 0)
(103.6617402 -1.472305613 0)
(102.5838028 -1.385295807 0)
(98.81553873 -1.380364967 0)
(98.65760007 -1.443617706 0)
(99.7159844 -1.438409576 0)
(106.7225308 -1.136094044 0)
(106.2654998 -1.2100462 0)
(106.1991178 -1.259751974 0)
(106.0856875 -1.232560181 0)
(105.4272505 -1.29146062 0)
(105.3794046 -1.345332828 0)
(105.1400288 -1.30652439 0)
(103.6079178 -1.319606118 0)
(103.6325117 -1.377973293 0)
(102.5074619 -1.304592911 0)
(99.01198002 -1.310896564 0)
(98.86625075 -1.361446701 0)
(99.81816354 -1.35823186 0)
(106.8187785 -1.08664199 0)
(106.3499879 -1.157165655 0)
(106.287014 -1.195417888 0)
(106.1658502 -1.178598616 0)
(105.4866564 -1.234106921 0)
(105.4425375 -1.275604 0)
(105.1866498 -1.247920543 0)
(103.5726157 -1.257325306 0)
(103.5993158 -1.302402382 0)
(102.4340472 -1.242172198 0)
(99.19036166 -1.257420153 0)
(99.05830366 -1.296058072 0)
(99.89901653 -1.295781795 0)
(106.9110526 -1.050826777 0)
(106.4309394 -1.118843486 0)
(106.3705153 -1.146250723 0)
(106.2424701 -1.13947645 0)
(105.5420214 -1.192414358 0)
(105.5008355 -1.22224932 0)
(105.2289926 -1.205258744 0)
(103.5356966 -1.211953899 0)
(103.5634833 -1.24442638 0)
(102.3644511 -1.197076074 0)
(99.3503643 -1.219328303 0)
(99.23205449 -1.246470319 0)
(99.9636336 -1.250350351 0)
(107.0004845 -1.028119143 0)
(106.509339 -1.094337479 0)
(106.4507431 -1.111449901 0)
(106.3165235 -1.114399418 0)
(105.5944316 -1.165547362 0)
(105.5553526 -1.184339665 0)
(105.2682288 -1.177743041 0)
(103.498404 -1.182835368 0)
(103.5263592 -1.203166162 0)
(102.2992976 -1.16858995 0)
(99.49299822 -1.196396188 0)
(99.38756826 -1.212172841 0)
(100.0159531 -1.221543431 0)
(107.0981674 -1.017236417 0)
(106.5947676 -1.082151393 0)
(106.5285495 -1.090275347 0)
(106.3971169 -1.101673654 0)
(105.6510174 -1.151268322 0)
(105.6071259 -1.161031555 0)
(105.3102828 -1.163084125 0)
(103.45865 -1.168802987 0)
(103.489272 -1.178076869 0)
(102.2332988 -1.156600781 0)
(99.63295027 -1.188841569 0)
(99.52572501 -1.193105271 0)
(100.0627412 -1.207879935 0)
(91.88874652 -9.437384247 5.433645788e-19)
(91.5258338 -9.173599626 5.621324291e-19)
(91.9542365 -8.810402571 0)
(94.13722931 -10.85810959 8.843438234e-19)
(93.7008984 -10.5713859 -4.6994609e-19)
(94.17003393 -10.08249264 -4.336292634e-18)
(90.58145569 -20.19232614 0)
(93.48156882 -7.840368765 -5.843804107e-19)
(92.83627847 -7.469389454 0)
(93.66644586 -7.004848844 1.292790381e-18)
(91.74052942 -8.341670684 -6.463899182e-19)
(92.5561177 -7.670608856 0)
(93.20845793 -8.077116679 -5.749494659e-19)
(95.45333827 -8.663542493 9.353365478e-19)
(94.69432305 -8.375207555 0)
(95.41170029 -7.810398988 2.782959329e-20)
(93.80365178 -9.543863772 -5.396314706e-19)
(94.45679639 -8.648460906 0)
(95.25288896 -8.965423045 -4.696744015e-19)
(93.44184443 -8.204160244 8.92601186e-21)
(94.18826122 -8.550089968 5.336240814e-19)
(93.50575934 -9.412666138 9.490790237e-19)
(92.98138042 -10.14044045 -4.975440238e-19)
(92.54211291 -9.880798143 5.236791589e-19)
(92.9785937 -9.455772805 -4.821225708e-19)
(90.69356301 -10.60878958 0)
(91.44328839 -10.61817341 0)
(91.49622988 -10.67135697 0)
(90.86619942 -9.922288445 1.883877127e-18)
(90.91693054 -9.972772096 -1.90331152e-18)
(90.50416573 -9.997863319 -4.562048013e-21)
(80.30213015 -7.44706483 0)
(80.83192562 -8.558057943 7.551622624e-19)
(96.56064248 -10.49618164 3.903065259e-19)
(74.56208475 -10.83511095 -3.731448029e-19)
(80.67659248 -11.13208538 2.713190147e-19)
(91.14612117 -19.3667056 6.264755482e-19)
(92.40818979 -17.17702431 0)
(90.39919207 -9.840448822 -9.473061258e-19)
(90.78259394 -9.818934823 4.095967191e-21)
(90.82025876 -9.870838964 9.376754643e-19)
(90.62122419 -9.226252363 4.765787056e-19)
(90.01091686 -9.35880109 -1.032609821e-18)
(91.83706143 -8.718671388 5.248225583e-19)
(91.40789155 -9.084867964 -4.700210996e-21)
(80.70040452 -9.788526132 -4.523822401e-19)
(92.55933807 -11.22270446 0)
(92.77099911 -11.92373939 -3.903620843e-19)
(91.55667214 -10.73079899 0)
(91.62711419 -10.79362848 -9.184783833e-19)
(90.83825607 -10.78589036 9.664993395e-19)