/*--------------------------------*- C++ -*----------------------------------*\
| =========                 |                                                 |
| \\      /  F ield         | OpenFOAM: The Open Source CFD Toolbox           |
|  \\    /   O peration     | Version:  v2012                                 |
|   \\  /    A nd           | Website:  www.openfoam.com                      |
|    \\/     M anipulation  |                                                 |
\*---------------------------------------------------------------------------*/
FoamFile
{
    version     2.0;
    format      ascii;
    class       volScalarField;
    location    "0.06";
    object      p;
}
// * * * * * * * * * * * * * * * * * * * * * * * * * * * * * * * * * * * * * //

dimensions      [0 2 -2 0 0 0 0];


internalField   nonuniform List<scalar> 
3019
(
-792.3491738
-957.4108916
-1004.891218
-967.714866
-904.6063466
-840.5093988
-765.5344101
-724.3817408
-672.7490271
-655.4164614
-643.9020389
-638.2732969
226.7087569
-405.8538224
-634.4416394
-714.8361822
-729.0248416
-714.5517905
-676.0151212
-653.8307892
-617.1523631
-606.5205398
-598.99334
-595.3624407
186.2956934
-177.1255056
-402.7463893
-523.520163
-579.2698535
-597.9660561
-587.6066194
-582.2410826
-559.3070438
-554.7810908
-551.160387
-549.4620942
131.6488311
-94.16042942
-273.6291711
-391.7991066
-461.1096851
-497.4617132
-506.341426
-513.4670082
-501.9246742
-502.5549027
-502.3915468
-502.3643996
90.41026386
-63.25104715
-198.4017238
-300.7626821
-369.9959682
-413.7279633
-434.4703707
-449.8663954
-447.1859499
-451.7897977
-454.3537639
-455.5940111
62.41760341
-49.77109713
-152.8285885
-237.0238284
-300.3031073
-345.6256697
-372.4884526
-392.6278534
-396.3412934
-403.6919645
-408.2317932
-410.3621858
44.24957471
-41.51141239
-121.8842969
-191.3597356
-247.5783335
-290.9541666
-319.8995349
-342.1215832
-349.911672
-358.9414604
-364.7530854
-367.5073163
33.15561184
-34.98594832
-99.85896167
-157.8522058
-206.8973382
-246.6890503
-275.4845248
-297.9624804
-308.040527
-317.905305
-324.4089335
-327.4940374
25.22938066
-30.30276617
-83.63518449
-132.3442551
-174.8004337
-210.4443352
-237.8441867
-259.4811268
-270.5893819
-280.6465931
-287.387549
-290.591596
19.35508835
-26.67294053
-71.10508184
-112.2734547
-148.9249011
-180.4811243
-205.722321
-225.9579298
-237.2302904
-247.0323927
-253.6864194
-256.8549905
14.9456864
-23.66446494
-61.0535838
-96.03019017
-127.6438102
-155.3701842
-178.1705687
-196.6940184
-207.5611937
-216.8228367
-223.1752606
-226.2041437
11.61032185
-21.05486015
-52.73733221
-82.56599959
-109.8218174
-134.0543895
-154.3683561
-171.063061
-181.1745272
-189.7282843
-195.6449185
-198.4681017
9.046827802
-18.72056274
-45.67917606
-71.175483
-94.65707143
-115.7460215
-133.6532193
-148.5198521
-157.6789958
-165.4395654
-170.8442012
-173.4237388
7.062588532
-16.58951401
-39.56737321
-61.37191244
-81.57068201
-99.84851431
-115.4895265
-128.595913
-136.7088614
-143.6466895
-148.5046824
-150.8229327
5.529127327
-14.61961989
-34.1934174
-52.81398213
-70.13913983
-85.90648533
-99.44615675
-110.8942012
-117.9281375
-124.0494401
-128.3541963
-130.4073307
4.333609918
-12.78345439
-29.40801569
-45.25128897
-60.04184715
-73.56261538
-85.16739869
-95.07216049
-101.0319562
-106.3639789
-110.1263407
-111.9191485
3.388838427
-11.06381127
-25.10029985
-38.49410259
-51.03053567
-62.53257118
-72.35937031
-80.83640504
-85.74595976
-90.32704004
-93.56762559
-95.10972245
2.637196238
-9.447249847
-21.18328322
-32.39215947
-42.90491392
-52.58042971
-60.77518868
-67.9319524
-71.82291655
-75.69560867
-78.43970332
-79.74309933
2.035552124
-7.919588792
-17.58559955
-26.82334072
-35.50072081
-43.49770214
-50.20499623
-56.1352795
-59.03538468
-62.24384725
-64.51761696
-65.59445782
1.547752694
-6.467243936
-14.24724667
-21.68676985
-28.68545744
-35.14081502
-40.44413467
-45.24380724
-47.18990668
-49.77377959
-51.60238976
-52.46550289
1.143729997
-5.077749633
-11.11602087
-16.89483628
-22.34361099
-27.39685796
-31.31882165
-35.07370872
-36.05818022
-38.06121937
-39.46328143
-40.11854677
0.798662931
-3.740032153
-8.146176811
-12.36872363
-16.36365198
-20.0873784
-22.71295154
-25.44523894
-25.6399664
-27.05955663
-28.05654635
-28.52547275
0.4914332235
-2.443413611
-5.295786691
-8.036513887
-10.6446233
-13.09928153
-14.4785822
-16.26676955
-15.26244815
-16.11693359
-16.70645216
-16.94177867
0.2068230573
-1.176119649
-2.525730481
-3.832766594
-5.093742326
-6.321224925
-6.427903869
-7.252036912
-6.833680378
-7.24918666
-7.530600559
-7.72025389
-850.3178141
-885.0871399
-1073.05958
313.6768892
-803.8809393
178.1354339
-420.2418841
-968.6456945
292.4970564
325.3854959
-1008.324839
-67.64589156
-144.9468912
-197.9757187
-497.4678628
-870.7001746
-1192.878125
-492.0703485
-1241.46104
-1239.392838
-1255.22262
-400.0432079
199.4995206
-128.4024429
-308.8768781
-925.3492961
-1170.616642
-1192.360667
-147.6878336
-392.6501455
-124.7405741
351.8484423
-1443.978967
-1437.234877
367.1644088
130.3748284
-1210.609693
-1040.648502
-1044.469449
-1046.091494
-1215.58674
-831.6400591
-997.8268053
-605.0444636
-620.7863535
-782.2514076
-409.8049325
-567.7219391
-508.8881324
-1228.725127
-1391.588919
-1427.215919
-1227.463001
-1088.104305
-1130.415765
-997.5909689
-993.6249852
-834.2741273
-1552.956512
-1539.768824
-1432.852247
-1417.079464
-838.0674411
-855.7064134
-681.8722606
-685.9351232
-780.445848
-207.711157
-356.4879995
-1558.306852
-1436.795157
-1508.822111
-1065.299173
-1062.542588
-1048.731038
-1159.443886
-871.4320063
-856.2978448
-838.3899933
-990.3700932
-936.1703616
-931.6524546
-608.0989609
-663.276295
-664.0252718
-485.656685
-488.1960186
-537.2577637
-1365.843738
-1363.732402
-1418.453396
-1237.100601
-1296.71079
-1307.561469
-1116.760471
-1059.781955
-1038.061144
-971.8129133
-950.3560434
-889.9430086
-522.6499701
-611.5019503
-845.2669181
-510.7034292
-681.6688568
-1004.422418
-713.9601754
-765.8749971
-981.0204024
-772.8210529
-774.7859212
-921.0544586
-771.1381951
-753.2479588
-855.8794481
258.8566159
17.70232332
-91.38068196
-213.735818
-403.5384117
-595.871736
-448.8705291
-544.19973
-703.0490531
-565.3124854
-606.0936086
-729.4795718
-613.8091174
-625.0036364
-719.8463984
204.4733539
278.7828117
144.99484
-48.77845495
-98.72778056
-107.7564057
-258.8110712
-357.8682867
-299.62047
-395.541588
-500.7931867
-419.9450472
-474.7156156
-569.7293005
-487.7403192
-514.7867076
-595.5917432
138.1846324
184.4561199
99.34864123
-27.75328028
-40.66233433
-68.54351272
-180.6491319
-234.4849892
-213.5623718
-297.5394432
-367.5130197
-320.6558084
-376.3773439
-447.4768498
-390.8301149
-424.5064424
-490.4991223
96.28094612
125.9317078
68.38965545
-22.69340842
-25.7673774
-52.37896344
-136.6748813
-167.42491
-162.4454277
-231.1356921
-278.4225285
-250.9921532
-301.6990149
-355.4974553
-315.9047722
-351.3992216
-404.5804162
69.35270619
88.36126569
48.00499438
-20.85199273
-22.12733054
-43.40844103
-108.3684134
-128.5770854
-128.67995
-184.5877966
-217.9975335
-201.4276954
-246.3426998
-286.312184
-259.4665116
-293.6061241
-335.678403
52.75234306
64.38282642
35.53133572
-18.61412849
-20.34218173
-36.4086625
-88.22134245
-102.653872
-104.7097077
-151.0626897
-175.1920085
-165.3503635
-204.4178732
-234.7887133
-216.1496141
-247.5203037
-281.1251257
41.1580113
49.5572427
26.98561119
-16.89240745
-18.123468
-31.35078685
-73.68345965
-84.16575041
-87.28214946
-126.0100893
-144.1421473
-138.131519
-171.847364
-195.5239162
-182.1637119
-210.2785701
-237.4892501
32.50605323
38.7636907
20.66873257
-15.55686447
-16.53553977
-27.51001301
-62.62105146
-70.65100609
-73.96804282
-106.569455
-120.7065208
-116.8812123
-145.9089666
-164.824754
-154.9092134
-179.7787092
-202.1053593
25.92317161
30.6906971
15.93344057
-14.36561994
-15.25094963
-24.37276267
-53.82569496
-60.24369936
-63.38035208
-90.99685763
-102.3652153
-99.79658318
-124.7811933
-140.2326675
-132.6020255
-154.432842
-173.0230406
20.85770045
24.53345221
12.36182838
-13.22471183
-14.07748069
-21.67768236
-46.58405688
-51.89050379
-54.68317929
-78.18650628
-87.56891958
-85.71445786
-107.2217706
-120.0958785
-114.0011845
-133.0673604
-148.767316
16.88003043
19.77495575
9.627578579
-12.10376634
-12.94319613
-19.28293456
-40.45035549
-44.96014782
-47.34499973
-67.40857062
-75.32414492
-73.85828799
-92.36901257
-103.2823327
-98.23383008
-114.8196648
-128.2509126
13.71071615
16.01966537
7.51173136
-10.99294273
-11.82526152
-17.10582555
-35.13841562
-39.05394008
-41.01922299
-58.16735461
-64.96968874
-63.69451752
-79.61062992
-89.00278361
-84.67253689
-99.04694235
-110.6740595
11.17537177
13.02352096
5.876674366
-9.892004884
-10.71666328
-15.09869722
-30.46189129
-33.91557044
-35.47664895
-50.1217749
-56.05478483
-54.85157615
-68.50584033
-76.69386788
-72.86078845
-85.26605443
-95.43858101
9.123647382
10.62256545
4.606190057
-8.805483776
-9.618766503
-13.23106159
-26.29055816
-29.37587414
-30.55587266
-43.02647994
-48.26692935
-47.06000206
-58.72663395
-65.94767691
-62.4558131
-73.10388334
-82.0928544
7.433708247
8.670981367
3.605039704
-7.740828018
-8.536939794
-11.48352076
-22.5286333
-25.31472828
-26.137524
-36.69733451
-41.37835551
-40.11665924
-50.02159821
-56.45797828
-53.19316776
-62.26636195
-70.28583403
6.024509203
7.057651972
2.809498347
-6.70437045
-7.478937911
-9.842482784
-19.10333108
-21.64328411
-22.1300249
-30.99146845
-35.21737851
-33.86329461
-42.19213593
-47.98906589
-44.86278935
-52.51536427
-59.74015451
4.836473424
5.708820516
2.173978468
-5.697721485
-6.449949018
-8.29391758
-15.95454131
-18.29232112
-18.45848314
-25.79282949
-29.64831526
-28.17133364
-35.07566672
-40.35185989
-37.29177779
-43.64835176
-50.22730465
3.820296121
4.568078628
1.660778265
-4.719786008
-5.450622482
-6.823975787
-13.03140499
-15.20445131
-15.06051711
-21.00604019
-24.56092599
-22.9353457
-28.54013627
-33.39196412
-30.34050017
-35.50729141
-41.55350479
2.934077658
3.588032169
1.238305782
-3.76863003
-4.479574838
-5.419843794
-10.28992615
-12.33059536
-11.88196098
-16.54923323
-19.86388669
-18.06492267
-22.47298569
-26.98361553
-23.89080331
-27.96643318
-33.57259345
2.142800531
2.728606593
0.8806186579
-2.842183382
-3.534796866
-4.070191687
-7.691748589
-9.628375982
-8.87586604
-12.34986512
-15.47795325
-13.47938407
-16.76991989
-21.01709645
-17.83042907
-20.88532271
-26.16113631
1.416157415
1.956177556
0.5656867019
-1.937871041
-2.614156752
-2.76429185
-5.201901697
-7.060439323
-5.999311541
-8.341865231
-11.33237874
-9.105012366
-11.33426413
-15.3894838
-12.05500173
-14.13801706
-19.17340671
0.7290130762
1.241478789
0.2757216564
-1.052178708
-1.714864265
-1.491476629
-2.788331867
-4.592577651
-3.21330857
-4.465754863
-7.362682532
-4.87551586
-6.079298241
-10.00684754
-6.47123207
-7.615635331
-12.49175683
0.01716539483
0.5624202373
-0.06724423548
-0.2537876413
-0.8321081979
-0.3154983627
-0.5097435141
-2.192321338
-0.5774420272
-0.7875021526
-3.510058842
-0.8596256732
-1.08246219
-4.783276505
-1.159325853
-1.412600724
-6.005514948
-899.9407187
-895.0231496
-845.3420634
-897.0906942
-986.2494384
-978.7178274
-1403.407297
-1434.170031
-1027.644962
183.0277863
438.2096249
-785.7011691
-628.850986
-682.3748778
55.66049856
-19.33239215
112.8400287
-616.4325908
-461.7796374
-225.9963032
-900.51602
-559.2034673
-695.3588877
336.9862858
372.9748697
-1150.222752
-1174.494199
-939.2338791
-1255.134026
-1259.537722
-1530.18756
-1521.825448
-7.744250925
69.30995179
4.312911085
-226.1783804
-176.3480735
-89.8086178
-333.1494278
-541.1313491
-437.0125979
-612.9699544
-556.8481867
-428.4555357
-864.5117104
-694.7309974
-738.1009354
-1194.482449
-1146.763893
-1144.959739
-374.2609665
-436.3808324
-428.8021415
-586.6669925
-579.3484231
-431.9003055
-1292.747847
-1294.668191
-1241.185424
-1258.791481
-1350.26253
-1385.246756
-1339.84614
-1344.17261
-1256.297416
-1432.174914
-1424.923771
-364.2466647
-268.7408881
-311.3720212
-267.3487122
-316.6026097
-32.16459019
-161.754104
80.78110679
73.2112616
256.1119466
-168.9108531
-58.86241956
-29.8678791
-172.3139541
-106.8755959
-226.3667848
-1006.210477
-995.6882366
-910.7963248
-1168.028917
-1081.452878
-1087.908209
-1072.927869
-1076.252953
-1167.276491
-216.7131234
-125.2857957
-53.21043031
-314.0447573
-212.6732875
-298.975286
63.60662509
-113.471954
-224.3555739
365.2478687
478.2927788
449.2417094
-1487.412639
-1492.946559
-1438.472915
139.0427433
55.8913225
282.3961985
214.49772
294.7630616
70.29174234
140.1057784
203.9785516
-1154.598947
-1149.650322
-1198.181023
-1040.864612
-1092.243794
-1085.015378
-1096.167844
-1094.475966
-1042.400032
-670.2970292
-662.4048117
-613.2516378
-781.6842127
-709.5789657
-723.5374581
-462.2358827
-448.2386133
-392.6331546
-555.0074623
-500.4291524
-514.3087047
-1400.842145
-1352.420151
-1344.454588
-1143.835906
-1315.40909
-1391.593152
-1263.582579
-1292.149156
-1140.099848
-994.6563645
-944.3884844
-947.401131
-936.2070686
-941.3338041
-992.9024528
-839.6522461
-889.1199553
-881.8335952
-1427.524627
-1475.102907
-1481.958331
-1464.072826
-1469.09232
-1424.215145
-1514.387077
-1510.180501
-163.0038047
-217.2304919
-258.0891032
-237.6708208
-186.367361
-337.6097889
-286.1228092
-305.1542196
-871.36732
-840.1243095
-808.4889469
-780.8883549
-757.0995691
-738.1502154
-701.1995504
-722.4817612
-809.0136088
-789.4910881
-831.9302204
-981.5391701
-899.9001119
-906.5266106
-1000.53502
-899.6991129
-891.724182
-952.9989108
-859.2081735
-846.888174
-888.1527996
-745.6365147
-737.5710804
-789.3292102
-721.0581499
-704.5316727
-743.6342552
-689.656464
-678.5838833
-708.0683116
249.3055676
137.739513
106.0564535
-323.9572973
-403.9483413
-484.4217745
-563.866793
-597.7128054
-663.9912342
-660.8646482
-672.4469078
-722.6660527
-688.8571595
-689.7885052
-727.2650636
-625.454626
-636.3437516
-686.4592114
-631.2153926
-624.5299605
-664.5572949
-617.6606542
-611.9837089
-644.3403022
173.4146255
85.00034699
84.69961853
-148.2094256
-212.5984072
-245.9401197
-363.1060346
-401.037441
-441.0020963
-485.5197074
-505.4756781
-542.248783
-546.7497533
-555.4878307
-586.5386285
-520.6157419
-542.7051532
-588.1526158
-545.8648327
-547.1446135
-585.2391529
-547.0786787
-546.3186856
-578.8355515
119.8030525
66.85490368
72.21106002
-83.55181686
-129.8927644
-144.5723931
-250.7510755
-284.5065352
-308.7192968
-366.1483
-387.3857484
-413.0527196
-436.2719663
-448.3230921
-472.6565787
-433.0198725
-460.6298236
-500.208894
-469.1706739
-475.894268
-510.6312572
-480.6581983
-483.7711572
-514.7986572
82.32189915
46.1938856
50.98459619
-58.94653914
-92.64459362
-99.63568156
-185.0105578
-212.3098813
-227.2535423
-282.6813343
-302.3142909
-321.0082744
-350.6215157
-363.6426264
-382.9122566
-361.068819
-390.4610867
-424.0239777
-402.2490101
-412.3146821
-443.1337755
-420.1281962
-426.0057768
-454.5278916
57.05485569
30.41044483
33.81358087
-47.46163887
-72.80425261
-76.90140729
-144.0838009
-165.8524702
-175.8641695
-224.1616234
-241.25115
-254.7160013
-285.7507956
-298.4325064
-313.1541462
-303.3141447
-331.7344486
-359.7742243
-345.0883135
-356.7948477
-383.575275
-366.3005224
-373.8034968
-399.4397748
40.96813414
20.43880326
22.40066265
-39.67198996
-59.34210682
-62.38170824
-115.6641906
-133.2988586
-140.4178713
-182.0409283
-196.797327
-206.6855452
-236.4366999
-248.1243153
-259.547404
-256.6622683
-282.9367271
-306.1902071
-296.7602029
-308.8774092
-331.9526692
-319.0609978
-327.3328913
-350.0870189
30.9387581
14.56293997
15.85997401
-33.67939733
-49.52086282
-51.67249218
-95.36245706
-109.9170959
-115.1133642
-150.8465425
-163.4867861
-170.9950933
-198.1759468
-208.6438783
-217.6774187
-218.6018145
-242.4958506
-261.7604399
-255.9088065
-267.675358
-287.5134812
-277.846908
-286.2644774
-306.39581
23.59782296
10.235147
11.19646177
-29.31843768
-42.32769409
-43.94816893
-80.21457319
-92.35339731
-96.32623183
-126.891748
-137.7038775
-143.5864872
-167.8215129
-177.0579098
-184.3390128
-187.2504427
-208.6975562
-224.8760552
-221.1571287
-232.2122772
-249.2984772
-241.9546877
-250.117003
-267.8555288
18.13222037
7.045171263
7.752585932
-25.87370863
-36.70984293
-38.00315422
-68.39483191
-78.60724428
-81.76083718
-107.9022124
-117.1604445
-121.896478
-143.2251168
-151.3122464
-157.2894404
-161.06471
-180.0994461
-193.8155643
-191.4319348
-201.5953543
-216.3623256
-210.6634888
-218.3343297
-233.9541505
14.02472394
4.716232652
5.230413725
-22.98065263
-32.10059671
-33.17874636
-58.83409875
-67.48364203
-70.0651945
-92.43589938
-100.3752655
-104.2795211
-122.9000569
-129.9485567
-134.9411763
-138.9068665
-155.6880055
-167.4258983
-165.8471118
-175.0353871
-187.8638552
-183.3070139
-190.3581798
-204.1287109
10.90643286
3.026231285
3.399456417
-20.44899747
-28.17769282
-29.10629753
-50.86932296
-58.22971408
-60.39821963
-79.54608184
-86.36150076
-89.64610703
-105.8072894
-111.9305173
-116.1660124
-119.9301145
-134.6514667
-144.7905984
-143.6623634
-151.8655747
-163.0735474
-159.2992564
-165.6747119
-177.8433496
8.501977328
1.802474076
2.071529733
-18.17075801
-24.74562931
-25.56516977
-44.07203241
-50.35229322
-52.21271735
-68.59120416
-74.4430809
-77.25490419
-91.20938868
-96.51336621
-100.1564943
-103.495543
-116.3587944
-125.1959029
-124.2826983
-131.5323254
-141.384136
-138.1341599
-143.8234582
-154.61228
6.641594117
0.9349333292
1.123035676
-16.08321737
-21.68407294
-22.41940144
-38.16134618
-43.52306263
-45.14565143
-59.12669907
-64.14601172
-66.58849509
-78.57161701
-83.15088561
-86.32292193
-89.11767212
-100.3140137
-108.0817226
-107.2278523
-113.5773124
-122.2907198
-119.3804029
-124.4003183
-134.0040753
5.202560752
0.3417328771
0.4685005379
-14.14885031
-18.91557741
-19.58353224
-32.94680277
-37.5171727
-38.95128453
-50.83832031
-55.13177879
-57.28004944
-67.50046456
-71.4370911
-74.22938513
-76.41771888
-86.12226801
-93.00788804
-92.10682898
-97.61862422
-105.3769518
-102.6691998
-107.0514956
-115.6432944
4.076568207
-0.04916245523
0.03289612189
-12.34315043
-16.38586389
-16.99820488
-28.29004245
-32.17025317
-33.45243781
-43.49293697
-47.14769176
-49.05847121
-57.69572299
-61.05977358
-63.54305604
-65.0950309
-73.46349174
-79.61867152
-78.59687019
-83.33492324
-90.29185124
-87.6840412
-91.46728912
-99.19835334
3.184653268
-0.2917463428
-0.2427850602
-10.65055691
-14.05628331
-14.62167448
-24.0874319
-27.35865586
-28.51711039
-36.91237515
-39.99967272
-41.71735121
-48.92303827
-51.77369721
-54.00452949
-54.90463694
-62.07482312
-67.62482346
-66.4290677
-70.45392019
-76.74032392
-74.15194048
-77.37617845
-84.38041261
2.474221269
-0.4229591085
-0.3989685486
-9.057519916
-11.89580809
-12.4217202
-20.25635415
-22.9836817
-24.04124252
-30.95409221
-33.53202437
-35.09262489
-40.99170938
-43.37791551
-45.40317118
-45.63306729
-51.7425764
-56.78720539
-55.3763792
-58.74055262
-64.46996686
-61.83436804
-64.53901263
-70.9341162
1.904207069
-0.4706609773
-0.4652527671
-7.54995975
-9.876297124
-10.3693641
-16.72887958
-18.96469222
-19.93999186
-25.50228868
-27.61830097
-29.05088462
-33.74635581
-35.70803284
-37.56502171
-37.12519236
-42.3085831
-46.92699256
-45.23621127
-47.98772008
-53.26137001
-50.51927558
-52.73957743
-58.63703174
1.439935762
-0.4573398419
-0.4653347289
-6.114441019
-7.972914511
-8.43912457
-13.44689898
-15.23333747
-16.14261149
-20.4597245
-22.15268128
-23.48228775
-27.06002247
-28.63224937
-30.35188895
-29.25563395
-33.55136939
-37.85890016
-35.81170228
-38.00735235
-42.91626004
-40.0172954
-41.79646345
-47.27674779
1.052818212
-0.4011824335
-0.4183694184
-4.738889247
-6.163655072
-6.608227188
-10.36014184
-11.73008959
-12.58745972
-15.74132628
-17.04216625
-18.29124616
-20.81888713
-22.03135393
-23.64381309
-21.85163089
-25.2554577
-29.34442213
-26.95969103
-28.63217509
-33.25803866
-30.13139761
-31.47416079
-36.70321354
0.7190454775
-0.3172855764
-0.3401321525
-3.41244858
-4.42908269
-4.856738018
-7.423948571
-8.402188363
-9.220443664
-11.27016521
-12.20190105
-13.3909853
-14.91316245
-15.78577089
-17.31960825
-14.79651376
-17.38104068
-21.27456484
-18.5621332
-19.72636132
-24.13168275
-20.76503735
-21.67500823
-26.60287443
0.4184735388
-0.2179629601
-0.2436949127
-2.124428318
-2.750839609
-3.166086355
-4.597321182
-5.201232596
-5.992017158
-6.976052214
-7.554507194
-8.702174521
-9.244772316
-9.791413974
-11.27175262
-7.979920805
-9.795343121
-13.54733507
-10.48416012
-11.15312722
-15.39802825
-11.7383961
-12.33859386
-16.99088982
0.1335387497
-0.1153794451
-0.137752882
-0.8666535003
-1.113739936
-1.517480986
-1.84542832
-2.086154686
-2.85648962
-2.799085973
-3.03353657
-4.152640318
-3.726385145
-3.953816104
-5.400835513
-1.499534405
-2.791036221
-5.968129593
-3.050065629
-3.287272808
-6.855770173
-3.554861556
-3.876942621
-7.596043259
-1181.183205
-1175.544469
-1061.148141
266.0993865
361.4509376
394.4420982
-798.3335156
-752.3637728
-753.5847075
-951.0754315
-846.9517483
-872.1200738
-1409.090277
-1406.010532
-248.9325666
-320.9798348
-274.7261948
-1238.148295
-1287.105026
-1289.214684
40.34127745
-12.46894578
-1146.611821
-1141.484244
-1191.722583
-55.07519313
-110.6011712
-181.7086052
131.1070231
81.95573417
-1099.821024
-1203.252595
-1233.945531
-1140.72896
-1171.981815
-1080.583716
-1015.929185
-1079.762832
-1109.869141
-1022.690794
-1050.678617
-993.7600866
-929.5094255
-970.5338272
-995.963263
-923.4848445
-946.3713817
-909.3471526
-554.6261576
-637.3689005
-610.9278089
-686.4436476
-663.0694726
-584.2030625
-826.8810715
-744.1446064
-765.460903
-582.6960087
-698.3458554
-638.9087518
-778.7003205
-745.48076
-639.3440057
-997.5005138
-865.2463055
-886.5739294
-737.7156291
-818.6814923
-802.617319
-833.4437759
-828.4999662
-754.5501185
-992.252725
-907.9648462
-905.365682
-776.2190443
-832.6274566
-834.5321976
-822.1157821
-828.210647
-776.4390498
-937.3010099
-881.9375809
-870.978374
-766.1523994
-806.1311395
-814.6359113
-787.2351501
-796.9275707
-760.1126931
-871.8632683
-834.2806078
-821.5435081
168.576125
156.8392185
257.5603429
0.7786190365
38.65486921
-49.54695216
-287.1851828
-339.0183052
-261.3394358
-457.5555894
-403.8337896
-350.0867509
-547.1514999
-468.9209912
-521.2601169
-486.7041828
-538.7408977
-502.2987691
-592.2280405
-568.3684866
-518.1875879
-686.453007
-624.364186
-645.1586233
-582.2904937
-625.6146549
-611.0552832
-644.8019217
-636.7038243
-595.7230819
-727.2967469
-680.6013048
-685.9518857
-619.2390039
-653.738028
-650.3522308
-655.5452194
-655.410542
-622.9073422
-724.1003933
-689.1404906
-687.2160853
226.5414555
249.4229741
77.4440384
82.07920982
159.3949128
-60.23723876
9.57353394
13.71663149
-10.92630315
1.810710926
-76.45149979
-162.700232
-185.1514624
-125.3943154
-286.8752638
-239.0031228
-213.1399962
-305.9078458
-269.5095417
-319.4257797
-335.7309065
-366.1899906
-329.1068782
-426.8199059
-398.6335963
-367.5840363
-473.4673918
-433.771986
-461.7803238
-441.0939907
-471.8293241
-451.0912222
-504.0876068
-489.3830249
-459.2581235
-557.50544
-522.0802664
-535.7242326
-498.5857995
-526.1753376
-516.2547566
-540.4039573
-534.1098666
-507.4875955
-591.877846
-562.2453986
-567.3386389
151.8332385
167.0895761
56.13562753
61.54741943
109.13415
-30.58553357
15.85818931
14.38481686
15.54132586
15.87308867
-34.83264102
-107.9217392
-117.8661923
-75.17469556
-195.906924
-158.1951798
-145.3765025
-191.4261731
-173.3431483
-213.6639654
-244.0232237
-262.9877781
-230.8607321
-318.7557438
-292.2777178
-272.0095468
-339.9200471
-314.9253576
-342.0763466
-341.4368817
-363.6055214
-342.4892684
-398.6443222
-382.2627229
-359.9657284
-431.5373539
-406.0167371
-422.2364216
-403.5394529
-425.3636173
-412.9442622
-445.507778
-436.1361946
-414.7044611
-482.3429113
-458.6236412
-467.4512688
105.1132334
114.953896
37.58980228
41.72696271
75.00850729
-23.37832723
9.379267233
7.648245933
12.77309596
11.11506476
-24.35085369
-81.47509279
-86.66417713
-55.38573496
-145.706158
-116.8337993
-109.630021
-134.439434
-125.0235516
-155.8743268
-186.8270355
-198.9102476
-173.1048424
-245.4652771
-223.0446257
-209.7401724
-253.9290152
-237.7016846
-261.1565753
-269.3225262
-285.1515495
-266.1613908
-318.2735293
-302.4834286
-286.1940531
-339.2197135
-320.1061483
-336.1542768
-328.876871
-345.673619
-332.6408052
-368.0896234
-357.4496995
-340.6788744
-394.3849915
-375.3208729
-385.776024
74.96469142
81.27903267
24.70969738
27.37700053
52.26276268
-21.25616131
3.191637078
2.057133248
6.018362895
4.52518297
-21.65171681
-65.62624953
-69.07537691
-45.36934263
-114.5474405
-92.17414677
-87.3166036
-103.2179067
-97.44075092
-121.2461932
-148.1823527
-156.6517289
-136.0702803
-194.7970325
-176.2342403
-166.8304093
-197.6046588
-186.4754976
-205.9109854
-217.3347184
-228.8250216
-212.3293054
-258.7252498
-244.2861
-232.3042175
-271.1314787
-257.195863
-272.0184591
-271.6993915
-284.6382978
-272.1657014
-306.8408422
-296.1744771
-283.0670735
-324.9150969
-310.1049452
-320.8297821
56.16260242
60.00483074
17.24955869
18.75936559
38.10342788
-19.15583909
-0.1045950812
-0.6013009299
1.145119329
0.4504484261
-19.74664904
-54.00741809
-56.55441903
-37.96598714
-92.62116749
-74.79482418
-71.2982892
-82.79122292
-78.61445711
-97.4151353
-120.7087106
-126.7515277
-109.9599479
-158.5034706
-142.9460556
-136.172287
-158.2010626
-150.2662027
-166.523923
-179.0139679
-187.5952339
-173.3934627
-213.8897516
-201.0957717
-192.0390099
-221.1612968
-210.7822663
-223.9934797
-227.2390116
-237.3722448
-225.9792376
-258.1293641
-248.0790286
-237.694475
-270.7145819
-259.0716651
-269.2967341
43.73982046
46.53948923
12.23335078
13.35379795
28.88314742
-17.27130568
-1.908858375
-2.288342994
-1.062553145
-1.498748726
-17.67873761
-45.67700127
-47.52890051
-32.47237732
-76.92882304
-62.36167734
-59.80035328
-68.08352875
-65.1144504
-80.41304517
-100.5581097
-105.0776288
-91.18141533
-131.6591825
-118.5807441
-113.4773011
-129.8863186
-124.0373824
-137.6896987
-149.8215489
-156.4426664
-144.286709
-179.280296
-168.1109633
-161.0641125
-183.5554194
-175.5945408
-187.1593214
-192.0090699
-200.0996717
-189.9441289
-218.8978404
-209.7471201
-201.3833334
-227.8686589
-218.5666261
-227.9387383
34.44963019
36.53192173
8.517405187
9.343602561
22.08041922
-15.87109764
-3.242401491
-3.503112448
-2.636093116
-2.953665728
-16.19625798
-39.36513453
-40.80361279
-28.38987864
-65.13781003
-53.06194933
-51.07701451
-57.40872427
-55.16778074
-67.80870377
-85.09138241
-88.61586486
-76.99884629
-111.0124268
-99.96186222
-95.96613645
-108.6926108
-104.1959778
-115.7162559
-126.8843778
-132.1455999
-121.7462775
-151.8831643
-142.1952741
-136.5642965
-154.417356
-148.137111
-158.1792461
-163.5580488
-170.1398403
-161.2002769
-186.8789495
-178.6972191
-171.8512833
-193.4377587
-185.8857979
-194.2959304
27.40743048
28.99397357
5.787636181
6.391384162
16.99368591
-14.65662896
-4.126384005
-4.285390326
-3.736568742
-3.943897432
-14.95136455
-34.30318127
-35.47848299
-25.10816388
-55.8568025
-45.73436125
-44.12666704
-49.20090193
-47.42307203
-57.99275814
-72.7722054
-75.61554096
-65.82390708
-94.59573598
-85.21232399
-81.98344008
-92.18800021
-88.60889289
-98.3798693
-108.3686276
-112.6570042
-103.7488749
-129.6878229
-121.3070346
-116.7004362
-131.220136
-126.1409414
-134.8322226
-140.1554881
-145.6070638
-137.7903675
-160.3675835
-153.1316488
-147.4360863
-165.3205644
-159.0885462
-166.5432512
22.0075628
23.23069619
3.803741831
4.2416841
13.16505331
-13.50740338
-4.635790332
-4.715189105
-4.422311092
-4.538620723
-13.79157119
-30.06768732
-31.06467297
-22.31900046
-48.27642705
-39.72181146
-38.37414354
-42.5928367
-41.126479
-50.04322576
-62.65842434
-65.01747402
-56.71304738
-81.17473839
-73.17593295
-70.49709638
-78.90895438
-75.97683588
-84.29891045
-93.06976016
-96.64235909
-89.00083418
-111.3291561
-104.088361
-100.2419727
-112.3048989
-108.1055308
-115.6166203
-120.573187
-125.1632456
-118.3565536
-138.0969793
-131.742782
-126.9321486
-141.981515
-136.7564728
-143.3128761
17.79037167
18.7540453
2.364121127
2.681777349
10.24655046
-12.38286361
-4.859209874
-4.879371739
-4.778125336
-4.825774761
-12.66263545
-26.40919175
-27.27938763
-19.85874434
-41.89766309
-34.6291948
-33.46827575
-37.07875624
-35.83163174
-43.39955915
-54.14251345
-56.14641952
-49.07354558
-69.9427732
-63.10621737
-60.83353217
-67.93108173
-65.46988147
-72.57889658
-80.17384639
-83.20683944
-76.64610684
-95.86536589
-89.61599199
-86.34670933
-96.55453257
-93.01570717
-99.50012719
-103.9348493
-107.8566611
-101.9477965
-119.1364235
-113.5858807
-109.466779
-122.3086092
-117.864316
-123.598317
14.43759719
15.20639818
1.329485837
1.555564925
7.990940755
-11.2698574
-4.86836187
-4.843304886
-4.887107996
-4.883192698
-11.54729535
-23.17398908
-23.94905147
-17.63275371
-36.40087889
-30.20779617
-29.18739085
-32.34603539
-31.25996179
-37.70511134
-46.82242555
-48.55690775
-42.51988189
-60.35444747
-54.50434957
-52.54089884
-58.64584321
-56.53775939
-62.62014459
-69.11536462
-71.73196036
-66.09946259
-82.63057235
-77.24461834
-74.42292885
-83.19984409
-80.16807197
-85.75898702
-89.60311368
-92.9980785
-87.88367086
-102.7949001
-97.96830273
-94.39758741
-105.4952529
-101.66588
-106.6574403
11.75825629
12.37350355
0.60885952
0.7639462809
6.246901591
-10.16612582
-4.713468088
-4.65414154
-4.808696274
-4.765199098
-10.44103848
-20.26706336
-20.96695357
-15.58643091
-31.57933658
-26.30001524
-25.39007349
-28.19713768
-27.23520815
-32.72991554
-40.42860789
-41.9516484
-36.79856446
-52.03575101
-47.03272897
-45.31220518
-50.64374146
-48.80883668
-54.01221507
-59.4959594
-61.7832792
-56.95458672
-71.14652383
-66.51583674
-64.04921397
-71.69790989
-69.0638571
-73.87422466
-77.10925682
-80.08147601
-75.67009559
-88.55344461
-84.37580272
-81.24702614
-90.94541074
-87.60753943
-91.93306193
9.598641182
10.09765782
0.1248576073
0.2275072542
4.895397226
-9.075372624
-4.436679361
-4.352974201
-4.587832536
-4.515148951
-9.346513677
-17.62360569
-18.26249144
-13.68608841
-27.29175094
-22.79931764
-21.9782828
-24.50408147
-23.64087806
-28.31969161
-34.76985709
-36.12405529
-31.73488151
-44.72213084
-40.45474847
-38.92823641
-43.64423428
-42.02594283
-46.46803277
-51.02430103
-53.04763339
-48.92133787
-61.0619539
-57.09610069