/*--------------------------------*- C++ -*----------------------------------*\
| =========                 |                                                 |
| \\      /  F ield         | OpenFOAM: The Open Source CFD Toolbox           |
|  \\    /   O peration     | Version:  v2012                                 |
|   \\  /    A nd           | Website:  www.openfoam.com                      |
|    \\/     M anipulation  |                                                 |
\*---------------------------------------------------------------------------*/
FoamFile
{
    version     2.0;
    format      ascii;
    class       volScalarField;
    location    "0.94";
    object      omega;
}
// * * * * * * * * * * * * * * * * * * * * * * * * * * * * * * * * * * * * * //

dimensions      [0 0 -1 0 0 0 0];


internalField   nonuniform List<scalar> 
3259
(
30.43947599
30.46116325
30.49045571
30.53551519
30.61696635
30.74713008
30.99699403
31.41656375
32.393861
34.50986256
41.04026247
95.92033571
30.3367157
30.36038371
30.39346881
30.44426487
30.5354564
30.68720329
30.96888836
31.43173443
32.51476126
34.8851471
43.01265302
144.4136886
30.23828128
30.26396948
30.3004856
30.35598975
30.45265339
30.61870803
30.92280025
31.43003415
32.60350814
35.19841484
45.18068004
475.5025754
30.14003843
30.16760669
30.20729401
30.26765583
30.37032898
30.54762607
30.8710268
31.42358037
32.69804179
35.59637019
48.74427477
747.1956317
30.04442264
30.07391642
30.11627279
30.18005561
30.28694894
30.4726858
30.81157264
31.4014318
32.79450982
36.17768353
55.33416104
879.007149
29.94630056
29.97750285
30.02234966
30.08983379
30.20152452
30.39312005
30.74393403
31.35759145
32.85203797
36.89698767
67.52986855
804.0213241
29.84974316
29.88261294
29.92955949
29.99924065
30.11336217
30.30876338
30.66842741
31.3006279
32.84958541
37.52615561
82.22110599
696.4424112
29.74866181
29.78282908
29.83181489
29.9044757
30.02226892
30.21992762
30.58605692
31.23325017
32.83521905
38.05265191
90.31730242
614.9596465
29.64949099
29.68474875
29.73530716
29.80933479
29.92809644
30.12712323
30.49804511
31.15794239
32.81636355
38.64399248
95.54652237
550.5999977
29.54446328
29.58033734
29.63238582
29.70895765
29.83100549
30.03088474
30.40556947
31.07677953
32.7969793
39.36239521
98.80104297
497.513283
29.44303298
29.47927266
29.53218259
29.60921758
29.73102942
29.93166554
30.30960801
30.99164246
32.78154995
40.2656163
100.6117937
453.2558514
29.33437145
29.37058536
29.42438123
29.50355258
29.62865354
29.82994701
30.21110038
30.90459992
32.77953619
41.25067031
101.2763772
416.0215185
29.23208317
29.26811247
29.32212477
29.40080189
29.52416524
29.72632573
30.11109982
30.81816022
32.8043242
42.15832629
101.0470834
384.3585291
29.12037101
29.15597758
29.21046967
29.29118552
29.41838529
29.62148959
30.01076016
30.73501147
32.86686346
42.92406257
100.2283483
357.1176098
29.01907882
29.05420734
29.108509
29.18794722
29.31158426
29.51616014
29.91122692
30.65776295
32.96583666
43.54761544
98.99597882
333.4627642
28.90459687
28.93912459
28.99372304
29.07552705
29.20469739
29.41099821
29.81353476
30.58869309
33.09159575
44.04623957
97.46238405
312.7542915
28.80638329
28.84033271
28.89456684
28.97451635
29.09767768
29.30660059
29.71861211
30.52953922
33.23254993
44.44111948
95.74424442
294.4837914
28.68869789
28.72200871
28.77650695
28.85946077
28.9915985
29.20349208
29.62724229
30.48101478
33.37870817
44.74866289
93.91526157
278.2600467
28.59599316
28.62875587
28.68292701
28.7637302
28.88596722
29.10212552
29.5400301
30.44278166
33.52203195
44.97815332
92.01710608
263.7846261
28.47374707
28.50591443
28.5603846
28.64480982
28.78222237
29.00290428
29.45735888
30.41348733
33.65583671
45.13193491
90.04715985
250.7453621
28.38970371
28.42144111
28.47580853
28.55842456
28.67926623
28.90619253
29.37941005
30.39116546
33.77505607
45.2123699
88.0178975
238.9154685
28.2603334
28.29155004
28.34625748
28.43226084
28.5794333
28.81246129
29.30628703
30.37391922
33.87728223
45.22568746
85.96968098
228.0002799
28.18911341
28.22009208
28.27503042
28.36131535
28.48110467
28.72244546
29.23838104
30.36038346
33.96346697
45.18967509
83.96283573
217.7987378
28.02547146
28.05600882
28.1117025
28.2019092
28.3891934
28.63771959
29.17716258
30.35005405
34.03721536
45.12596074
82.0933291
208.2193604
94.84730845
123.9435796
40.79158278
79.86452757
42.68030027
100.802519
81.40175423
104.4921948
1138.213775
730.9833105
150.0461808
719.2248549
1093.471603
8561.480711
1149.485277
105.9272396
1809.350717
7672.416921
1103.329554
1776.211674
4027.928073
795.6049379
210.2191925
224.6175319
193.1891155
204.8521508
792.0261685
563.5805241
178.8773494
189.2359403
175.6815778
554.0345977
752.0796607
766.1465764
230.8857596
243.6754771
1434.355638
2907.06409
1262.472778
2192.537755
1146.174683
6212.050406
2471.021714
5287.694699
1142.274261
3620.785514
1596.122197
44.5710114
110.4742251
103.93624
163.0300657
4203.133596
7796.829975
1044.688303
398.4518885
419.2994159
6421.441906
3091.58628
726.9661231
915.9201086
8863.140349
313.9640376
366.8745907
427.2106651
446.377313
1161.647925
1450.358191
1831.757948
7858.363889
1364.596717
1193.048338
16136.13079
1116.263148
1687.39151
368.9468929
391.2563246
946.1942976
760.8921145
347.3575353
363.3425999
734.7077576
824.4898011
1207.388984
459.8636345
508.2680938
5735.03224
6547.299867
1915.451551
7123.58241
5027.26392
1671.901402
1118.398775
6190.510727
3376.043133
6882.783083
3850.420583
1624.521062
328.2342415
342.6012486
755.1327493
634.3436732
308.8415182
323.5197946
1719.089434
1695.443277
1068.722654
1812.392957
1109.510431
1755.969151
1741.935897
1776.242734
291.80513
304.2528338
604.7627533
534.8565671
278.2646338
288.3092198
1096.66954
1096.386253
748.5326107
768.9252957
1105.526947
1109.949127
1514.569471
981.4559554
967.9566909
12730.56059
2388.136015
1504.857887
4457.011364
3566.062975
1830.474452
1807.303689
1130.076484
5985.706319
6526.555508
6228.207031
4836.966849
1204.429936
1879.003586
1818.951902
2505.93503
1714.087568
1728.688141
2185.234456
1011.655562
1647.772191
1581.901921
855.1096125
1215.269089
12968.99935
1163.052735
791.2795247
795.1860229
1834.715996
7463.778612
7709.083511
9229.729196
5791.189839
5323.048709
1772.690793
1760.422818
1110.715811
1737.695519
1761.952604
1763.034335
1744.253512
1747.708817
1153.350261
1165.568144
799.4388311
1826.682339
1726.329866
1781.68641
1771.993471
824.9140821
830.7968154
1211.358316
5557.63577
8609.839926
8987.824048
8357.378678
8409.267636
6194.283614
1863.528118
6137.155487
4277.467624
4678.180773
1127.471252
1798.039071
1781.041048
6154.220956
6770.38543
6506.898966
5266.091714
5761.072958
7178.069991
6796.006553
4260.974836
6445.593131
5512.579642
2229.748801
1789.582822
1192.907092
31.41712442
32.06545219
32.37207416
33.74858519
34.44529778
38.19558852
31.43218015
32.15168879
32.08002806
32.49210799
34.02484523
33.8000727
34.80960959
39.29732499
38.36103539
41.4642861
48.63286123
47.36204709
99.42478994
162.5860054
154.438891
31.43060438
32.21165402
32.16728963
32.58085527
34.25032097
34.08083
35.11574411
40.33772659
39.54493751
43.50341095
50.86915471
52.14062438
147.3929469
294.2180744
260.0133761
31.42636349
32.27150385
32.22659649
32.6742168
34.51043033
34.31026981
35.48392395
41.90402814
40.65338918
47.63226557
184.3770989
122.730157
695.5752849
31.40929572
32.32954612
32.28687859
32.77229085
34.85247167
34.58676096
36.01573169
44.74495177
42.49968467
53.24614387
304.0290366
212.3775639
866.7165913
31.37000844
32.35675456
32.34078953
32.84371203
35.25464803
34.95041179
36.71224739
49.4299323
45.71459333
63.87946006
477.9398583
342.824602
832.8181145
31.31601289
32.33580376
32.35439551
32.85187812
35.5924221
35.35280833
37.39890644
55.70619865
50.93284784
78.90116065
566.1379736
512.5118252
721.0814349
31.25096152
32.29999971
32.32784429
32.83941012
35.83798798
35.65190029
37.91595252
60.93149932
57.24204596
88.61280379
544.3785174
567.165937
633.2861608
31.17740475
32.25608712
32.28959923
32.82126012
36.10879788
35.9030249
38.48780968
65.5675747
62.14178598
94.45421086
504.8658901
534.4542887
565.5042649
31.09751641
32.20777667
32.24428278
32.80167284
36.4173659
36.18135466
39.1657153
69.20748202
66.59005792
98.13543278
466.8550717
495.1382215
509.8715499
31.013192
32.15824142
32.19535268
32.78465586
36.80561266
36.50455411
40.02524014
71.71652703
69.93118486
100.2769062
431.7889918
457.7890271
463.5944228
30.92640591
32.11211198
32.14611086
32.77825486
37.31543425
36.92138467
41.0066801
73.33315963
72.19453493
101.1964607
399.9626093
423.528809
424.7474729
30.8395663
32.07698166
32.10194884
32.79479742
37.90949869
37.45921971
41.94382755
74.26684955
73.62366177
101.1676275
371.2477894
392.5002014
391.8082136
30.75534347
32.06187148
32.07094837
32.84751761
38.50472778
38.0609707
42.74640976
74.70568075
74.41623399
100.4759642
345.4543708
364.5435708
363.5448174
30.67638933
32.07242738
32.0622625
32.93811597
39.04663931
38.64631109
43.40421261
74.77591191
74.75371823
99.33620059
322.2228711
339.4298542
339.0544048
30.60509319
32.10945379
32.07932745
33.05829494
39.51690532
39.17098467
43.93207956
74.56518438
74.75013541
97.86673061
301.1922512
316.7817334
317.6475699
30.54334751
32.16844129
32.12233484
33.19646797
39.91689451
39.62314163
44.35104635
74.1388787
74.47522927
96.18583106
282.1179764
296.269233
298.7995395
30.49215195
32.24297782
32.18585792
33.34214338
40.25328434
40.00662496
44.67931857
73.55838332
74.00625755
94.37950636
264.7341273
277.6465772
282.0672023
30.45144409
32.32630703
32.26323532
33.48685025
40.53078138
40.32797034
44.92785998
72.85802535
73.39313953
92.49716346
248.8668217
260.6742582
267.1590907
30.42009308
32.41187559
32.34771506
33.62358797
40.75059593
40.59107604
45.10058446
72.04773605
72.66549765
90.54557916
234.2176416
245.1606159
253.735153
30.39620705
32.49402258
32.43290656
33.74680184
40.91235482
40.79633016
45.19885091
71.13056711
71.82746438
88.5264723
220.6288184
230.8217092
241.56702
30.37785157
32.56887098
32.51350115
33.85332168
41.01916474
40.94390891
45.22734474
70.13018269
70.887193
86.4749455
207.9442485
217.5383903
230.3543425
30.36347503
32.63509095
32.58620576
33.94326935
41.08000461
41.03800716
45.20228441
69.08276182
69.87255167
84.43767125
196.0342599
205.1549182
219.8611112
30.3523504
32.69411341
32.65035135
34.0202128
41.1098839
41.08958163
45.14189459
68.04081375
68.8278651
82.48227863
184.9084952
193.5959778
209.9523064
30.34422683
32.75280661
32.7074666
34.09426954
41.12823898
41.11431685
45.06810146
67.00847535
67.82406981
80.58115454
174.1950104
182.9461063
199.9671466
151.7840043
144.5770904
91.72463557
249.7353636
228.8528928
120.9127565
867.8135096
46.93958057
45.64663633
40.45288321
75.81369223
50.16440962
51.61924539
51.70115346
49.06881028
41.67554631
88.58906228
54.42280906
58.15195939
52.142476
53.84178555
86.29470299
175.0877701
165.8370609
100.6342574
1131.824722
747.7876162
758.5638138
525.3325327
533.7618617
740.297884
2986.655404
3711.989589
176.3355286
2616.075434
2038.904218
815.9896696
740.1313818
700.2431535
504.7875028
516.3519484
275.4229403
527.6221125
90.79690593
142.3422572
12048.35479
1306.89463
2370.966724
771.5341518
777.0992688
1151.249976
110.1990008
190.302354
179.5386169
5301.799602
5395.600047
9273.103307
590.8420002
606.6256512
827.7271201
213.7638248
285.7857226
280.7762637
331.2349391
306.6474697
220.195082
196.7604913
258.7342774
253.2398145
271.3640905
265.9965077
201.2504153
776.0672662
571.3747822
581.9916233
435.315678
442.2390102
570.9916135
182.1858821
235.7362614
230.7216817
246.9816439
241.4097696
185.734776
169.6038158
217.3317597
225.9912248
221.5698419
172.6033983
548.4220408
422.9019175
428.627561
233.996006
356.1644602
338.5747548
398.2378626
366.0364376
244.388306
1328.290973
1879.926367
1808.783598
3268.396928
2947.863017
2024.277002
2711.204421
4033.007388
3592.844801
3178.326374
2226.346071
52.96493385
51.88411151
44.02957479
117.0315051
67.72034188
70.09349123
58.88707601
59.71977465
113.7091511
332.3446151
271.4006719
153.8278639
4590.692926
1077.678371
1335.717818
393.7387104
337.370818
6515.631618
696.1594115
725.7065723
1102.288764
405.4442796
524.6435065
510.5379594
546.6853972
538.1865868
413.2560446
4838.73401
906.7746025
1252.421025
1145.053448
1259.145189
3544.9015
1082.610146
1079.143613
720.4346917
3506.179858
5003.044254
13169.19731
332.1849667
604.4926495
547.9229087
700.0066528
627.5366245
350.4021377
432.5563631
563.7657105
557.767047
581.0552399
575.9242279
441.7210977
1200.60782
1510.70677
3016.660362
2643.289112
3653.404302
4145.779518
1655.977205
16363.1764
14114.34943
375.7542614
467.5774961
458.3141794
493.7962734
480.1790705
382.7460903
854.1004572
627.280991
657.0004778
555.5979619
564.4911648
771.3962019
352.7335852
436.4195155
429.6836155
450.3825785
443.0298077
357.688003
739.6560383
1089.446992
1088.546795
464.16066
606.1782742
600.8773815
680.3593311
685.8760341
510.4985163
3560.544081
3808.235893
5479.635706
1788.057319
2695.194361
2450.057414
5016.070306
4462.812089
3068.048205
333.0689318
411.1141106
404.732947
423.4988899
417.1271904
337.6441817
746.7676754
540.7618429
548.8048819
475.6065208
490.9057491
671.1263751
313.7904983
383.3018722
375.3531451
398.1925976
391.0368041
318.6855028
295.7881673
355.1831064
349.7552703
367.9370279
361.0955103
299.7220551
586.1994272
451.0473332
462.2858928
411.4529302
416.8606577
540.612884
281.4933501
334.6289176
329.6635979
344.6096608
339.6191525
284.6939519
2252.992821
2052.261632
1396.571235
4193.458659
3037.767311
3171.621369
2639.521149
2743.091459
3896.354178
2834.701719
1118.754086
2243.369422
1585.387692
2413.511492
2289.546198
1180.675816
13405.68253
5199.041024
5378.630524
10439.04724
12792.5229
8354.758599
6439.253997
8924.542009
8431.609417
8452.416091
9787.001585
6438.775782
30.66162289
30.71437286
30.78868011
30.89199239
31.02816257
31.27300274
30.57608442
30.63693869
30.66853079
30.72125814
30.83690926
30.85382668
30.99037753
31.26971017
31.26917399
31.415422
31.60146145
31.59839969
32.41522415
32.80243449
32.77217619
34.58557802
35.52596033
35.42102774
97.08002549
110.8104522
109.3461376
30.49291348
30.56094178
30.59675403
30.65348354
30.77978355
30.80872473
30.94629936
31.25549303
31.26640745
31.43148594
31.63810478
31.63430332
32.53644883
32.96434541
32.93406526
34.95970444
36.04140004
35.93718165
30.41072733
30.48459464
30.52072702
30.58387658
30.71895711
30.74997682
30.89790775
31.23614083
31.25042235
31.42939214
31.65147555
31.64835102
32.62667184
33.09193923
33.05881441
35.28641313
36.50948547
36.38087642
45.85122915
55.45980113
54.13739251
567.0164184
1950.373102
2167.45753
30.3281273
30.40636774
30.44375578
30.51095619
30.65267903
30.6865533
30.8422911
31.20421846
31.22888075
31.42017495
31.66132385
31.65984375
32.72359179
33.23530851
33.19740836
35.72326841
37.19813303
36.98643913
49.99132184
64.29228048
61.41844734
796.8081217
1368.392527
1487.474187
30.2439083
30.32514355
30.3643653
30.43372543
30.58028622
30.61726739
30.77877941
31.1562757
31.19281184
31.39210051
31.65157578
31.65696708
32.81422586
33.38698501
33.35104755
36.34902921
38.26723647
37.96509104
57.80005371
84.33641789
77.80320147
873.7517086
982.7888059
1068.774672
30.15716673
30.24034922
30.28166229
30.3517091
30.50172617
30.54175592
30.70710443
31.09642107
31.14190547
31.34453681
31.61285798
31.62413098
32.85375453
33.4915864
33.4738493
37.0773081
39.64037832
39.28529789
71.36809303
117.3808309
108.6111773
775.2936798
711.0885272
769.3638465
30.06761003
30.15187579
30.19528508
30.26502161
30.41751338
30.46027816
30.62802401
31.02639769
31.0794569
31.28469864
31.55970526
31.57410128
32.84666648
33.52485314
33.51759307
37.65284209
40.84295623
40.58571201
84.70692562
142.4229426
138.5080336
673.2500495
549.508527
580.2909708
29.97495798
30.05988628
30.10527707
30.1740999
30.32847009
30.37354515
30.54267632
30.94827708
31.00732088
31.21509362
31.49610004
31.51281082
32.83073669
33.55271207
33.54574653
38.19307905
41.94887235
41.65758972
91.85317841
149.9313931
148.4385975
597.6084485
469.9646265
487.3785418
29.87938908
29.9646348
30.01184772
30.079488
30.23537354
30.28238678
30.45229796
30.86401166
30.92756522
31.13812401
31.42499594
31.4433481
32.81141376
33.58249252
33.57463716
38.80787066
43.2710596
42.91300187
96.51549689
153.8036024
153.115363
536.3813129
412.0103054
424.9375496
29.78079484
29.86639236
29.9152669
29.98168421
30.13885365
30.18751031
30.35796494
30.77531753
30.84208639
31.05578575
31.3487349
31.36817178
32.79249059
33.61885291
33.60877289
39.57163841
44.85455021
44.44429456
99.37558753
155.0072339
154.9459853
485.697763
368.3869662
378.221871
29.67967635
29.76545688
29.81578802
29.88113106
30.03943944
30.08947289
30.26060886
30.68384802
30.75256759
30.96996151
31.26957309
31.28950009
32.77927311
33.67200574
33.65613312
40.51126399
46.44318532
46.06378114
100.8735017
154.1466054
154.5367239
443.3441214
334.8246407
342.4386129
29.57609837
29.6622744
29.71379507
29.7783662
29.93779329
29.98884789
30.16121352
30.59145016
30.66070266
30.8828226
31.19034045
31.20996994
32.7824296
33.76247896
33.73515999
41.48906015
47.77454192
47.47127567
101.2716093
151.6540413
152.4033435
407.6242093
308.5194192
314.5427688
29.47105771
29.55740723
29.60977896
29.67403654
29.83474149
29.88639022
30.06089703
30.50010279
30.56839208
30.79695396
31.11461664
31.13300891
32.81625449
33.90751267
33.86592548
42.36353806
48.80338592
48.57190877
100.8877737
148.0985556
149.053937
377.1569955
287.3913822
292.2811992
29.36453842
29.45149109
29.5043855
29.56885835
29.73117772
29.78297029
29.9608231
30.41176814
30.47762592
30.71504539
31.04623889
31.06244085
32.88846885
34.10341668
34.05068257
43.09263832
49.58255154
49.40818469
99.95376915
143.9801346
145.047309
350.8761606
269.9768091
274.0473584
29.25790095
29.34513093
29.39820969
29.46352098
29.62795453
29.67947996
29.86208477
30.32826641
30.39033963
30.63964451
30.98863448
31.00187628
32.99521499
34.32936247
34.27133528
43.68305179
50.16142045
50.03333754
98.63502413
139.5381706
140.670691
328.000201
255.3693828
258.8032367
29.15058783
29.23888215
29.29190545
29.35865564
29.52583592
29.57672604
29.76566359
30.25119653
30.30830487
30.5729299
30.94430688
30.95402485
33.1258222
34.56409103
34.50547339
44.15380987
50.57857549
50.4874851
97.04548396
134.9525951
136.1022403
307.9369796
242.981959
245.9142124
29.0444229
29.13321983
29.18590675
29.25480586
29.42548998
29.47543356
29.67241826
30.18175143
30.23305349
30.51640478
30.91406695
30.92031193
33.26892907
34.7935866
34.73723045
44.52562538
50.86721077
50.80585011
95.29438104
130.3856312
131.5219784
290.1867372
232.3388628
234.8819204
28.93792711
29.02854935
29.08080272
29.15244012
29.32746452
29.37622542
29.58303091
30.12047622
30.1656255
30.47053284
30.89724795
30.90029359
33.41507569
35.00930214
34.95700982
44.81308922
51.04964614
51.013164
93.44560462
125.9154734
127.0217964
274.4078132
223.1311312
225.3486413
28.83382427
28.92519807
28.9768287
29.05191776
29.2321858
29.27962448
29.497976
30.06717484
30.10638775
30.43469521
30.89165905
30.89213674
33.5565934
35.20522416
35.1583855
45.02360912
51.13701622
51.1238476
91.53061598
121.5701378
122.6496417
260.2768811
215.1441418
217.0940863
28.72911095
28.82337548
28.8745879
28.95348787
29.13990117
29.18604882
29.41744761
30.0209886
30.05496437
30.4073346
30.8941372
30.89290961
33.68714119
35.37639497
35.33614284
45.15872389
51.13227832
51.1408889
89.54212832
117.3124606
118.3725403
247.5123297
208.198205
209.9306692
28.6280613
28.7231331
28.77413635
28.85718562
29.05065693
29.09584811
29.34134412
29.98079272
30.01038123
30.38645084
30.90162118
30.89944336
33.80221117
35.51966676
35.48651682
45.22139534
51.03932189
51.07022255
87.50198562
113.1704154
114.2032803
235.8588187
202.0669709
203.653747
28.52486352
28.62421872
28.67637256
28.76280483
28.96419329
29.00941462
29.26925071
29.94555331
29.9715074
30.37023045
30.91152534
30.90891272
33.90020877
35.6353364
35.60883072
45.22111731
50.87298435
50.92038589
85.45015283
109.1872331
110.1908311
225.0294044
196.5495558
198.0409753
28.42595107
28.52576379
28.58155057
28.66947994
28.87968656
28.9274128
29.20018829
29.91462962
29.93738851
30.3575153
30.92259593
30.91972323
33.98299487
35.72788676
35.70645744
45.17476749
50.65790115
50.71545865
83.44539847
105.4375903
106.4130939
214.8370956
191.5110449
192.9612033
28.3119434
28.41965236
28.49200172
28.56999519
28.79103671
28.85126335
29.12981237
29.88631435
29.9076137
30.34796431
30.935074
30.93151977
34.05615265
35.80614768
35.78598613
45.10601437
50.42382957
50.48964535
81.55045432
101.9913046
102.992052
205.2072352
186.7408047
188.2426575
107.9110861
106.5057196
93.75172247
156.3819499
149.5067417
125.9293041
78.44819987
66.20237329
67.18999514
98.83473506
79.08777404
80.75596079
68.24173554
69.29409515
82.94616776
120.3980032
118.7942325
103.1915206
89.08486067
99.67277699
107.2778279
123.8176446
122.3864696
1771.733424
82.39019621
84.06155371
107.0300068
2967.970685
3269.090447
7411.79375
5841.65186
4296.319941
4832.482747
1343.465936
1554.669373
2055.736467
1166.591335
31.594874
31.58906089
31.41636939
32.04769649
31.79734341
31.8095443
32.74238656
32.70992462
32.34798309
33.69338818
33.15057962
33.19309484
35.33839369
35.24007997
34.37212192
37.9882377
36.38734823
36.52350639
31.63000218
31.60536133
31.41614838
32.10548929
31.83303099
31.86747224
31.8177937
31.82558833
32.09392185
32.90283688
32.8248056
32.43167906
33.89472643
33.30360242
33.40405986
33.23262375
33.27385135
33.85538702
35.83200203
35.59826795
34.63813699
38.76092015
36.89173883
37.22989234
36.63678372
36.7867419
38.59572544
113.8540456
112.3190843
98.20922617
159.9080664
131.9478773
133.9573663
127.9980847
129.9101291
157.0034375
31.64505917
31.64174293
31.43103654
32.19678696
31.89471421
31.90331529
31.87718042
31.88592259
32.18194497
33.02671814
32.99528835
32.5585529
34.19237297
33.52905941
33.57192247
33.44602475
33.4870421
34.13587304
36.26182022
36.14948741
35.03649187
40.05721669
37.7010879
37.87056503
37.38512359
37.53924641
39.79242678
195.3939877
199.4638512
268.0835369
31.65758444
31.65464992
31.42814447
32.25668374
31.92823471
31.93656649
31.91189191
31.92000769
32.24173814
33.16148786
33.12596982
32.6502844
34.43960046
33.70953962
33.7595413
33.61600897
33.66177801
34.37317011
36.80916481
36.65048537
35.38057768
41.41877254
38.4876092
38.75006604
38.05522047
38.25711497
41.00327295
59.03158263
57.14985287
46.68105162
162.0630267
80.78948595
86.00834237
72.85118528
76.17029807
141.2577575
1620.711343
1773.320659
632.6747006
969.6404052
873.7511159
1212.000201
1077.216947
31.65998347
31.66134094
31.41532159
32.31665874
31.95877063
31.96338696
31.9448658
31.95233135
32.30222271
33.31324331
33.27444453
32.74850029
34.75834541
33.92666339
33.98711505
33.81254381
33.86727058
34.66833105
37.6858389
37.43083925
35.86440444
43.89678706
39.83795358
40.28978046
39.06400601
39.4335045
43.15559725
72.36393118
67.91688971
51.47988841
274.2282823
113.9798466
126.8119967
93.74643156
102.5838136
239.8598825
1161.856044
1261.801533
831.3333616
633.6050169
570.1918562
786.1639682
706.7038478
31.63451933
31.64388462
31.38140387
32.35521523
31.96479358
31.95934879
31.96692949
31.96699461
32.34916599
33.449473
33.42020601
32.83107497
35.15330636
34.16757699
34.22347191
34.04808163
34.10863841
35.05117489
38.93276088
38.59150159
36.52825739
48.06186224
41.96518241
42.62344348
40.79439581
41.35180392
46.81731256
99.93325612
91.6874732
60.63473074
432.6958818
177.022934
196.8906578
141.5976552
158.6831891
387.3417421
833.3545009
903.8890337
860.3850089
429.0872737
395.4294168
515.6207829
468.8226299
31.58779614
31.60072397
31.33057017
32.34292957
31.93308688
31.92247049
31.95163763
31.94283332
32.34921255
33.51000453
33.50189998
32.85322721
35.52654316
34.35388447
34.38015985
34.2744722
34.31902884
35.44409737
40.30954802
39.98377905
37.24703241
54.1317589
44.76356676
45.45192289
43.32444669
44.04217013
52.49824108
132.7433844
125.5830242
75.27763075
555.4390016
249.5913302
262.4277546
215.9098427
234.252342
539.2563554
616.3582383
660.7228808
747.7728285
324.8348134
309.1452638
367.3656526
343.8807499
31.52900809
31.54465607
31.26807442
32.30987749
31.88608941
31.87265034
31.91105695
31.89891268
32.31918947
33.5388358
33.5318968
32.84325464
35.77446551
34.45776355
34.48444634
34.40572321
34.43156226
35.71248095
41.37735664
41.10622666
37.78275143
59.71246905
47.17483875
47.75378515
46.08146604
46.6214201
58.49908986
146.7198711
144.7265613
86.74108377
554.1367014
280.5483562
281.8734874
271.9388169
278.6963403
563.2972964
506.1982712
526.613856
652.647623
280.9438834
275.284816
297.0931083
287.3482441
31.46133054
31.47893115
31.1964456
32.26759843
31.8292693
31.81393464
31.85866916
31.8441956
32.27879261
33.56709568
33.55980318
32.82607231
36.03833955
34.56827684
34.59767575
34.51171528
34.53965269
35.96982244
42.57420372
42.25352331
38.33790317
64.47655397
49.65906754
50.33866243
48.36141507
48.99794192
63.32984401
152.2452206
151.1918564
93.22876653
514.6784404
283.0659264
282.7490868
282.6481517
283.1480411
524.5535147
438.8414721
453.8208534
581.152265
260.2336054
255.7641978
269.970857
264.9613054
31.38737571
31.40633427
31.11797087
32.22009352
31.76596915
31.74943995
31.79825115
31.78225138
32.23228226
33.59945583
33.59073135
32.80650807
36.33499492
34.69160823
34.72536406
34.62795053
34.65922587
36.2566128
44.04015917
43.64760761
38.98128345
68.41090143
52.39978742
53.06140643
51.02842378
51.71903817
67.53918087
154.7008669
154.3376392
97.37733953
476.1088063
279.8118547
278.26941
282.0852975
281.0957668
485.5459147
388.7290195
399.9703946
522.8198712
243.7180059
240.1002722
251.5343068
247.5233176
31.30936026
31.32912348
31.03458571
32.17052526
31.69885631
31.68180145
31.73272001
31.71584795
32.18293114
33.64223772
33.62990733
32.78834126
36.69784942
34.83882717
34.88243036
34.76084837
34.79851097
36.59778309
45.66974088
45.26493314
39.7931432
71.18186227
54.86054982
55.38510127
53.69577997
54.29695439
70.58857102
154.8167282
154.9559734
99.86564168
440.2550599
272.3176705
269.9502805
276.4942028
274.5071432
448.9232557
350.5396794
359.1768275
474.4063066
230.2524463
227.2723049
236.6577075
233.3772472
31.22975346
31.24964183
30.94820686
32.12291916
31.63090393
31.61425336
31.66474738
31.64776692
32.13433609
33.71114664
33.69018593
32.77796662
37.17704278
35.0390338
35.1013166
34.92996105
34.98202555
37.04541011
47.14815025
46.80519049
40.75935529
73.0007924
56.72865309
57.10457252
55.87047406
56.31796213
72.62219538
153.0722404
153.6563376
101.0707439
407.622058
261.9720019
259.0700599
267.4246382
264.7618477
415.4738598
320.9102246
327.6629747
433.8574317
219.1169554
216.6315238
224.4294563
221.7128422
31.15180032
31.17092971
30.86113422
32.08421585
31.5664628
31.55154434
31.59790939
31.58195777
32.09260499
33.82782765
33.7933307
32.78754284
37.75777162
35.31985234
35.40213777
35.16900494
35.2419846
37.60723166
48.3239279
48.05843006
41.72052481
74.08603986
58.04727094
58.3068396
57.44836942
57.7620071
73.87345086
149.9691183
150.8383751
101.2399323
378.1461577
249.8702427
246.7049545
256.0727431
252.9997409
385.2241167
297.4118667
302.8221744
399.5729933
209.7653498
207.6489629
214.2501562
211.9623827
31.07926891
31.09668685
30.77600558
32.06323037
31.51111469
31.49935916
31.53727647
31.52378982
32.06640277
34.00020697
33.95236325
32.83064986
38.35948821
35.66895826
35.76206859
35.48823799
35.57745101
38.21135118
49.22066748
49.01931037
42.55960672
74.63407589
58.95122484
59.12590592
58.54295591
58.75736691
74.53842076
146.0911635
147.1096808
100.6974291
351.6559081
237.1405533
233.9505414
243.5227301
240.3326725
358.0076074
278.2900225
282.7431919
370.24366
201.7387155
199.9055947
205.6102378
203.640395
31.01590716
31.03071256
30.69549445
32.06716666
31.47039642
31.46295195
31.48867441
31.47899811
32.06380188
34.21410918
34.1580107
32.91226633
38.91759444
36.04453987
36.13785874
35.85611263
35.95047859
38.78410949
49.894522
49.7444308
43.25265157
74.78593457
59.54769833
59.65639829
59.28305152
59.42365406
74.78406706
141.7898734
142.8938035
99.65679813
327.8235859
224.466872
221.3406541
230.77351
227.6111262
333.5431996
262.3621436
266.0962907
344.8874827
194.7856757
193.1905382
198.1399781
196.4318792
30.96470142
30.97624331
30.62207974
32.09792335
31.44788243
31.44524488
31.45671995
31.45167934
32.08785022
34.44667021
34.38788593
33.02610488
39.40614199
36.4100818
36.49736942
36.23009557
36.320941
39.2908831
50.38791889
50.27936755
43.81113507
74.6413192
59.90107339
59.95744335
59.75142951
59.83279099
74.7037845
137.2509529
138.3973664
98.25876306
306.2724496
212.130107
209.1265305
218.2409413
215.1685374
311.4479608
248.9290717
252.0977203
322.7718057
188.7135744
187.3097316
191.6514288
190.1558367
30.92742967
30.93544097
30.55781052
32.1519926
31.44461007
31.44638632
31.44382381
31.44389169
32.13659217
34.68011097
34.62234587
33.16084043
39.8230875
36.74720845
36.82616688
36.58273284
36.66605581
39.72522929
50.73725476
50.66170783
44.25537482
74.26159729
60.06320636
60.0787341
60.00283116
60.03790935
74.37421524
132.6615663
133.8058671
96.62048053
286.7423656
200.3855541
197.5581779
206.1684098
203.2528767
291.428987
237.4666175
240.194749
303.3458998
183.3575292
182.1072906
185.955625
184.6324955
30.90408858
30.90866671
30.50393925
32.22324822
31.45843824
31.4642418
31.44944719
31.45348742
32.20417476
34.90356949
34.84905745
33.3055076
40.17481328
37.04973549
37.11965246
36.90294378
36.97749957
40.0926404
50.9707078
50.92199906
44.60500437
73.71555924
60.07659734
60.06098337
60.08663129
60.08431568
73.86532478
128.1344873
129.2569802
94.84008783
268.9624423
189.3681912
186.7284854
194.7827685
192.0484059
273.2245359
227.5683536
229.9422719
286.1315448
178.5837737
177.4631174
180.9039495
179.7187399
30.89322535
30.89490026
30.46067509
32.30501529
31.48610961
31.4946298
31.47083851
31.47815769
32.28396137
35.11006463
35.06033653
33.45116161
40.46677201
37.3154385
37.37586063
37.18727337
37.25257651
40.3992064
51.1049588
51.08007124
44.87280688
73.04315543
59.97070907
59.92695861
60.03789884
60.00784123
73.22175909
123.7302828