/*--------------------------------*- C++ -*----------------------------------*\
| =========                 |                                                 |
| \\      /  F ield         | OpenFOAM: The Open Source CFD Toolbox           |
|  \\    /   O peration     | Version:  v2012                                 |
|   \\  /    A nd           | Website:  www.openfoam.com                      |
|    \\/     M anipulation  |                                                 |
\*---------------------------------------------------------------------------*/
FoamFile
{
    version     2.0;
    format      ascii;
    class       volScalarField;
    location    "0.94";
    object      p;
}
// * * * * * * * * * * * * * * * * * * * * * * * * * * * * * * * * * * * * * //

dimensions      [0 2 -2 0 0 0 0];


internalField   nonuniform List<scalar> 
3259
(
654.8610304
658.5322255
666.1219121
676.9652431
701.5652142
723.0102597
749.7158688
790.7748591
834.7543144
886.1513103
950.6410431
1058.224213
616.9319704
619.4540044
624.8385016
632.1769637
652.4851295
666.5714004
682.1929007
710.1926002
733.7715781
756.4115285
777.27918
833.3435242
576.4001777
577.6907606
580.5444081
584.1219087
600.2856107
606.2613667
611.3894309
625.2211063
628.3159419
621.0847576
590.1786808
497.7246537
534.3111197
534.4513512
534.8534778
534.8921078
546.9770862
545.9514659
541.972299
543.2225688
529.234038
499.9632268
441.6176041
333.793642
491.6967752
490.866086
489.1851796
486.2400805
494.4863394
487.7526477
476.5834209
468.0790031
441.1880304
398.8769742
332.6811294
236.9013623
449.4847692
447.8825326
444.5452621
439.2689669
444.1770015
433.2098372
416.9724921
402.2672797
368.0923979
319.9177905
255.161804
172.1266363
408.41451
406.2345925
401.6553664
394.6879628
396.9687871
383.1745271
363.8704348
345.6818228
309.5034902
261.2332713
201.114748
130.522564
369.0408132
366.4701617
361.0477592
352.9786235
353.3320603
337.9187684
316.982494
297.5161997
261.7982676
216.7407517
163.0665185
102.9632376
331.7519255
328.9596974
323.0558693
314.387876
313.4446904
297.3538476
276.0008393
256.5441281
222.6485668
181.6142602
134.5472292
83.32444368
296.7881825
293.9136477
287.8318246
278.9835531
277.2040257
261.1660004
240.2741615
221.5797398
190.2047937
153.3791349
112.2152623
68.40189313
264.2589336
261.4092485
255.3828975
246.6786875
244.4272791
228.9524955
209.1618711
191.5787093
163.0284683
130.2915665
94.33531461
56.70518824
234.1679691
231.4223548
225.6204527
217.2926642
214.8512762
200.2729576
181.9326527
165.7039674
140.0246663
111.1167902
79.74799559
47.33150755
206.4429698
203.8578372
198.3978238
190.6029576
188.1834803
174.7080932
157.968664
143.2439303
120.3585007
94.96650981
67.648347
39.6849923
180.9596423
178.5728983
173.5324856
166.3693599
164.124203
151.8627196
136.7852826
123.6114309
103.3821415
81.18984986
57.46549868
33.3503754
157.5563883
155.3913143
150.8178063
144.3426458
142.3823071
131.3797854
117.9616634
106.3280915
88.59095554
69.30356817
48.78482279
28.03052548
136.0466348
134.1155831
130.0337198
124.2724321
122.6754668
112.9346223
101.1354103
90.99840649
75.58287617
58.93646272
41.29328791
23.50609003
116.2306697
114.538413
110.9571832
105.914932
104.7391838
96.23688356
85.99678813
77.29295239
64.03519417
49.79890041
34.75231108
19.61059412
97.90325794
96.44947134
93.36742735
89.03603793
88.32474353
81.02386255
72.29868541
64.92836556
53.68330069
41.65884223
28.9738048
16.21529887
80.85386996
79.6358344
77.04571298
73.4064888
73.205945
67.05449329
59.80171659
53.67701729
44.31005814
34.3273669
23.80705543
13.21686313
64.89209962
63.90398027
61.79546462
58.82758959
59.15693449
54.10801147
48.25212014
43.3480551
35.73249253
27.64623687
19.12782758
10.53240313
49.75837977
49.00097954
47.36875709
45.04400074
46.00810526
41.9821203
37.38532156
33.7610428
27.78521967
21.47614236
14.82900331
8.093600396
35.4700983
34.92288089
33.75204715
32.09412492
33.3914395
30.49087676
27.11516828
24.72771559
20.31617653
15.69230153
10.81762668
5.842692395
21.06533567
20.78988316
20.0938613
19.09373977
21.35115235
19.46613479
17.26160662
16.09606577
13.18827152
10.17856414
7.006664291
3.729844142
9.698795804
9.474104928
9.131622308
8.611764651
9.5615139
8.646673597
7.583023167
7.725210103
6.278387099
4.82063748
3.308366174
1.705937999
1069.486415
862.9230475
988.9018378
1061.423689
822.2105087
858.7168332
1040.804087
978.2778947
1052.840761
1133.108126
565.0508993
1138.22836
1143.772764
1043.118953
1047.546318
964.4178685
1054.113559
937.7892747
1138.67368
1058.577678
-331.9312371
1092.232676
1053.585811
1017.715796
1096.335749
1064.692852
1097.000746
1167.605453
1135.259654
1106.257591
1144.738108
1173.463038
1178.04122
1171.695102
1004.305076
962.142177
959.8020914
978.8413656
473.3580971
167.5613878
1103.497423
-321.2465367
122.3236838
-236.5755392
1099.421068
-268.1702715
89.6592611
634.4849526
593.4977648
822.8922059
708.055948
720.2485545
976.8747907
1069.558055
1052.349856
1033.585583
880.6275675
634.4019164
1200.317873
1148.189944
840.0202734
948.6610143
906.785201
1026.848657
1003.353417
1023.786969
134.1296022
1033.208148
438.1836637
694.8970269
509.6343346
620.3610648
1118.931129
1076.595581
1074.856861
1058.411395
1071.795905
1109.324122
1095.573303
1080.658176
1196.045854
1154.957154
1011.64169
994.3502605
970.190747
637.2908241
538.9517844
1023.270606
251.8373936
412.4972944
304.853422
1112.071671
-477.1765273
-34.90371041
194.1987385
-81.50565588
1071.449767
1116.183843
1101.26936
1115.339983
1146.955686
1134.601898
1121.46148
1149.019076
1155.257662
1147.868123
1048.743104
1133.673313
1140.590637
1144.30374
1060.672949
1153.978843
1139.7167
1151.618562
1189.882668
1173.378847
1159.413545
1182.349553
1190.224943
1184.658724
1165.854648
1169.716002
1175.431213
965.1400014
970.985742
961.3197654
706.5504126
975.1085732
347.7503343
481.6943508
608.9099396
1109.843974
1110.432668
1106.090422
-385.2981664
-229.4519708
-204.712896
-219.3873399
1093.310615
1100.289564
1106.526902
-114.8512141
1214.048862
1212.863214
1151.043759
1148.475672
1155.886804
1146.392155
959.3416091
1003.619393
1137.828833
1033.322995
1024.842157
1015.314317
1042.408289
379.1892467
361.6653541
1113.317542
985.379956
744.1798577
1120.678371
1132.575956
1127.132838
1068.514326
1195.458768
1185.646698
1210.602028
1204.861924
1160.074351
1164.103621
1160.047689
1167.07042
1163.207573
1177.986219
1172.310117
1003.691714
991.0865659
998.2852356
591.6516039
610.9421079
677.0163843
547.3767484
555.5505808
536.4649519
1012.351039
349.7769306
296.1013694
227.3143087
1108.249505
1110.173065
1112.257297
-453.4414883
58.53527369
-2.358179785
175.3128719
161.1136952
174.9082522
-22.95487383
-157.5114098
-138.8414555
-36.00143705
1082.931532
1094.952975
1087.757059
809.9349127
845.8450496
858.8321361
901.1803797
916.6204271
968.637186
730.2395585
751.444099
823.1481508
758.7435976
781.1326682
872.4317494
788.7956194
813.8176784
932.5943452
910.0810458
923.524932
987.9620651
1026.622075
1054.590802
1086.573936
646.2705318
652.7629057
727.8892888
654.2559782
655.2648413
750.9272119
653.9723635
642.2915662
772.6924973
729.1923664
729.3211425
799.5004361
791.2302753
789.2132651
868.4055935
563.1980892
556.5677332
628.1913743
553.071772
536.5333246
624.3995393
528.349008
491.9303562
601.4969378
474.610138
401.5734787
530.7071519
365.6155338
486.0162224
469.0457199
533.7329141
461.918974
434.206718
509.3489857
422.2516673
375.8236565
459.9265663
356.6172095
284.0764807
366.7805669
257.5591216
417.8261154
394.3048665
449.0374509
384.8896853
351.0422687
411.3958597
337.6104993
290.2046276
351.708714
272.0766087
207.4218331
261.8988874
185.9026393
358.9856887
333.1311644
377.8481325
323.0227595
287.7134827
333.4608979
274.2503865
229.2953354
272.91455
212.7815563
156.2201542
192.5787423
139.1661129
308.8229887
282.7433504
319.6089136
272.8409642
239.310687
274.4981912
226.8739554
186.2559056
217.1852906
171.5253381
123.4065944
146.5502072
108.9606115
266.1658305
241.0697513
271.5822475
231.7422508
200.8680712
228.8774799
189.6670254
153.8220544
177.3226533
141.014633
100.5578221
117.0514599
87.71664202
229.8038795
206.3500131
231.7995829
197.7720279
169.8561726
192.501052
159.8973563
128.4447411
146.9098382
117.3252573
82.80677172
95.68523682
71.78555975
198.6495244
177.1597365
198.582644
169.3936653
144.4421823
163.0367208
135.6552792
108.1193729
122.9503799
98.45847483
68.84617682
79.0086715
59.38280037
171.8155275
152.388721
170.5900116
145.4335915
123.3124303
138.8005846
115.596848
91.52740868
103.6625244
83.1347705
57.63597739
65.81808102
49.49346806
148.5626321
131.1776487
146.78155
125.0003069
105.5120731
118.581586
98.75947152
77.76028766
87.84990483
70.47445685
48.47298404
55.17525832
41.45977152
128.2729436
112.8498762
126.3484594
107.4035491
90.33041218
101.4946003
84.44007595
66.17056637
74.67964295
59.85616096
40.86763898
46.44142011
34.82882999
110.4434265
96.87433526
108.6537655
92.10736948
77.23562616
86.8788555
72.11978864
56.28824617
63.55540463
50.83268231
34.46730395
39.1660443
29.27839402
94.6597126
82.8260901
93.19626858
78.68677391
65.81974426
74.23801404
61.40302071
47.76002248
54.04104613
43.06891001
29.01321294
33.0235902
24.57256822
80.57694301
70.36095161
79.57308453
66.80057612
55.76374822
63.18888224
51.98156449
40.31475366
45.80611492
36.30944015
24.30934786
27.77340132
20.53308705
67.90176327
59.19675901
67.45790385
56.17172584
46.81396404
53.43140242
43.61127118
33.74104138
38.59689465
30.35573827
20.20371791
23.23201703
17.02323284
56.3923234
49.10034686
56.58070979
46.57198718
38.76329755
44.72425929
36.09343164
27.86862909
32.21308406
25.04846335
16.57481045
19.256061
13.9341059
45.85013894
39.87798083
46.71984272
37.81151369
31.43984819
36.87045588
29.2634636
22.55844227
26.49337323
20.25806142
13.32393221
15.73001576
11.17800577
36.09679315
31.35625311
37.68846871
29.72149666
24.69302945
29.70461527
22.97773869
17.69029349
21.30432347
15.8732468
10.37168424
12.56070493
8.683604137
26.94004474
23.3721223
29.31585461
22.14633218
18.38806014
23.08038877
17.10850672
13.15959094
16.52985707
11.79830698
7.649810831
9.672070415
6.390681661
18.22204607
15.77953808
21.44264219
14.9451699
12.4008499
16.86611166
11.53777885
8.869810369
12.0682776
7.945181053
5.09892289
6.99816966
4.247695902
9.801818615
8.448694804
13.92703909
7.992331254
6.615511607
10.94004106
6.152775356
4.725536194
7.824054893
4.228275158
2.665340105
4.481411265
2.21068178
1.82109611
1.499203464
6.641692731
1.395540445
1.070381867
5.186180167
0.957436106
0.6470978023
3.698563027
0.5892336313
0.6882526876
2.059529134
0.5661100979
1096.648402
1125.818025
1097.946585
891.8617904
936.6103266
906.4507393
602.4188188
1007.75643
1062.692813
1024.980747
1118.024379
1075.455651
1019.995062
826.5014247
900.2326881
866.3553928
945.7413799
909.7081602
832.8726594
999.7946604
933.8042826
971.7799587
1006.816989
1043.308889
1014.21875
1057.783416
1052.638402
1046.429867
1127.160995
1121.910472
1127.667348
437.4754167
632.6038803
667.484627
583.4604833
409.8774331
582.9187036
554.2393658
1142.018464
1136.200802
1132.084444
1178.38251
1194.331181
1108.369708
1135.228568
979.360492
986.3720505
939.7433984
1040.075558
1032.974151
1040.993666
923.6017447
951.0098188
993.5887656
914.2172072
913.2016983
1047.400213
1086.13117
1080.386219
1086.152026
1042.028452
1052.93663
1064.228359
1027.710139
1047.997981
1030.030845
1086.07918
1096.125897
1106.298987
1075.068407
1085.641713
1075.502415
1100.889463
1095.745639
1091.187034
1163.283611
1157.955303
1161.98446
1125.642557
1135.027224
1144.731085
1116.0183
1125.478762
1115.985321
1162.857316
1172.790842
1154.397338
1163.771259
1153.952812
1179.349643
1174.162376
1168.739937
990.3215603
998.4234124
1020.995272
969.6986061
990.2793307
976.0355633
427.6911751
474.7676026
514.3531788
199.4328218
253.4936901
215.146688
71.63875049
109.8506934
154.2840878
-227.4511384
-62.06006019
624.1326862
676.0008052
681.0560147
670.9704359
669.9134427
611.0090993
804.0229573
716.2266203
708.0465615
698.8819422
742.6446209
749.0575996
797.8443856
742.3744335
679.7488304
883.2229155
804.879293
717.3926502
1063.705206
1058.721759
1064.549031
1046.008106
1052.291853
1057.837949
1039.836796
1046.259387
1039.879044
676.8259165
634.8476256
670.5102444
566.8599844
600.0240723
674.7716907
1206.77157
1209.710638
1204.19702
946.3404744
981.2141838
758.8688226
945.058794
969.2505734
962.0949344
917.8706909
949.3102976
929.4855633
1019.607522
1025.888204
1033.129222
1008.801639
1017.834718
1011.794619
262.0505179
720.1729772
846.104595
790.5672011
656.5071824
890.7661149
654.420711
786.6361589
719.7138255
1069.806372
1074.952703
1080.515334
1063.451205
1069.234519
1063.6385
1079.838101
1074.505968
1068.594729
1105.250298
1100.2639
1104.63706
1090.866275
1095.554351
1100.648602
1085.734403
1090.642434
1085.292392
1190.847505
1197.611786
1203.086661
985.2733045
988.0070321
998.6230856
968.1911177
975.6993404
975.918877
381.1598668
337.7997166
361.285169
261.6035387
301.2002098
344.7003576
-18.69726175
36.99818715
13.53001992
1111.637178
1116.577425
1121.635146
1105.9896
1111.338303
1106.052058
1121.782645
1116.469125
1110.799189
1143.501249
1139.645957
1144.155185
1130.518512
1134.978825
1139.274951
1126.459205
1130.826743
1125.572183
1149.42856
1153.678484
1158.783242
1143.880053
1148.66322
1144.081448
1156.534154
1152.800761
1148.007262
1184.195625
1179.356816
1184.904932
1169.19265
1174.057741
1178.766679
1163.970947
1169.079184
1163.909298
391.0929801
436.3766063
395.1749792
510.8937623
475.1567705
434.3090548
557.3802257
521.7323306
563.3226415
-175.780474
969.5526204
972.8275468
955.7641109
1033.655689
1023.662086
992.5546076
1403.940093
1139.231622
1077.845963
1069.605462
1094.247357
1200.406504
963.7223712
1092.088073
1060.609488
775.8107411
812.1673853
733.4631058
726.1916487
736.2102506
749.5519436
764.749941
781.8917144
798.9532455
678.5556908
685.4911667
711.5004549
694.9505119
705.1526895
735.7340457
715.6726177
723.6077066
780.907231
771.0617661
780.3398656
801.1792794
810.0330164
820.6020567
846.8117242
854.7108785
867.1538207
900.6225642
1048.649611
1057.185825
1067.665791
626.9487081
631.3296806
659.1295773
636.667041
642.1246199
674.4998966
647.005655
643.7326551
704.4087484
688.8867377
693.6078782
716.0807051
707.2371851
711.427884
739.5903158
722.1136256
724.8004607
761.7486131
573.565074
574.7780264
603.3088428
575.9139516
576.5387945
609.1831863
576.2788998
564.5030084
623.8564037
604.2662973
604.5369169
626.49296
602.7163552
600.827202
627.8343395
589.048678
582.312277
616.3709423
548.6625437
531.2101172
575.5989924
444.6913603
418.1375424
471.642711
520.3179969
518.7905973
546.8535661
516.4616944
513.0689379
544.4398734
508.6525082
490.4613063
545.5773607
523.6418398
520.1402303
540.5541221
506.0675559
499.681122
523.7848432
472.9142632
460.7316197
488.8037785
411.0142201
389.4510939
420.3389929
305.7290156
266.9980948
294.341999
468.8025345
464.9714786
491.7677888
459.9326
453.4717896
482.6717251
445.9817339
424.1725286
473.291859
450.7270722
444.4652653
462.3745904
421.4359413
412.0396533
432.3926126
377.0207114
362.6696319
384.8168239
310.7112861
290.1158276
311.7653407
218.1959493
186.4901437
202.8721718
419.9823969
414.4972399
439.4974448
407.5820129
399.083658
425.5862502
389.6084608
366.2441757
409.0555583
387.2645389
379.6701394
394.8907189
352.2471021
341.415927
357.485014
303.4996426
288.9492068
305.301788
239.7051044
220.7555893
235.7573004
159.8232263
136.9899035
147.3987892
374.5400604
367.9905213
390.9469259
359.9286242
350.2604852
373.9750624
339.6634282
316.3723778
353.1893924
332.8872395
324.8114478
337.6563268
296.6582622
285.8718017
298.6318505
249.0644957
235.3598177
247.2117465
190.4979543
173.8076164
183.7448501
122.7664692
104.6490183
111.5756442
332.7832996
325.6578655
346.5058964
317.049029
306.9312907
327.9250184
295.7910316
273.5625898
305.2064299
286.6335501
278.5977525
289.4198687
251.288222
241.0856384
251.420631
207.1907807
194.8835343
204.0770365
155.2237343
140.8786408
148.1581702
97.49479651
82.72224143
87.57011104
294.723528
287.4218615
306.2319379
278.7193319
268.6768081
287.2033048
257.5234121
236.8033696
264.0293688
247.2690976
239.5871357
248.7383425
213.9709943
204.578935
213.0421474
173.9875605
163.0924712
170.3730922
128.4633976
116.0839749
121.7022594
79.22399659
66.80396876
70.35619442
260.2392219
253.0550121
269.953577
244.5745555
234.9448163
251.2787091
224.1759792
205.1158506
228.6402461
213.6370918
206.4829005
214.2678505
182.9649279
174.4628031
181.4778021
147.1800779
137.5988082
143.4811909
107.3808166
96.70195858
101.1352257
65.21736818
54.69624722
57.44410654
229.0985643
222.2338704
237.389888
214.1839737
205.1637152
219.5977156
195.1084982
177.7159381
198.0820565
184.7415174
178.1992569
184.8668398
156.9228412
149.3124098
155.197588
125.1707796
116.7717363
121.6096964
90.41626751
81.19709634
84.7721343
54.17133569
45.18691641
47.3647001
201.0182862
194.6009539
208.1945325
187.1137348
178.7930335
191.5782696
169.5737564
153.8835153
171.6192101
159.7829312
153.8745255
159.6247914
134.8233745
128.0670902
133.0595298
106.8245914
99.47627011
103.5173957
76.51556567
68.54984351
71.48619094
45.27664981
37.56363652
39.32144236
175.6990483
169.8039765
182.01012
162.9571509
155.3933554
166.7481514
147.0576329
133.0221973
148.5634135
138.0815125
132.7993598
137.7961614
115.8841558
109.9275989
114.207558
91.32115018
84.90736197
88.32899167
64.94134644
58.05979716
60.50999492
37.9916722
31.35220263
32.79279818
152.8427333
147.5083813
158.4918729
141.3366827
134.5491935
144.6744229
127.1027269
114.6422801
128.3483042
119.0784772
114.3987411
118.7742099
99.49674064
94.27957092
97.98585786
78.05720008
72.47905804
75.41124499
55.16817001
49.23143228
51.30419085
31.93495964
26.21868664
27.41547101
132.1605515
127.4006149
137.3172472
121.9118548
115.8956942
124.968783
109.3195935
98.33623478
110.5070547
102.3187598
98.20958168
102.0709038
85.18561032
80.64744565
83.88853951
66.58193132
61.75478796
64.29592104
46.81088438
41.70412954
43.48012354
26.83214227
21.92079451
22.9276625
113.3781548
109.1904374
118.1831704
104.3756045
99.11102341
107.2873239
93.372722
83.76185283
94.64983739
87.4248202
83.85130577
87.28664909
72.57031052
68.65449313
71.5164888
56.54675549
52.39795324
54.62429997
39.57702477
35.20624197
36.74636978
22.47886597
18.27812975
19.13542557
96.2387739
92.61156822
100.8119869
88.45249533
83.91419159
91.32945053
78.979553
70.62170779
80.44868225
74.08015279
71.00832862
74.09188098
61.34431415
58.00006906
60.5524434
47.67838438
44.14587101
46.11760133
33.24265984
29.53039084
30.88190533
18.71927726
15.15351674
15.89240029
80.50377715
77.4182206
84.94795669
73.89049938
70.04835392
76.83047401
65.91706845
58.6803111
67.61214313
62.01418554
59.41407356
62.20755558
51.25561843
48.43875308
50.7384083
39.75660335
36.78776462
38.5535338
27.62983629
24.51220596
25.71283675
15.4320016
12.43956337
13.08458026
65.94682505
63.38069355
70.35487894
60.45950034
57.2702107
63.53621727
53.92423602
47.7355548
55.91740524
51.01153343
48.85368728
51.40681459
42.09774387
39.76950078
41.86301731
32.60184517
30.15239058
31.75180024
22.59601971
20.02056931
21.10042034
12.51917629
10.05112853
10.6217272
52.36733326
50.28831631
56.80991219
47.948223
45.37038509
51.22185176
42.739813
37.60738339
45.17470925
40.88755664
39.14196363
41.49916939
33.69284042
31.81953138
33.74830616
26.06091269
24.09413434
25.56183878
18.02129238
15.94570095
16.93069327
9.902144188
7.919595108
8.431627419
39.49791038
37.91689966
44.10678417
36.16077574
34.18872165
39.69886088
32.18581146
28.07761794
35.21056972
31.45419901
30.09842803
32.30621128
25.87873134
24.43311412
26.23483541
19.99863134
18.4850545
19.85162472
13.80266421
12.19470828
13.10666611
7.515364169
5.988856188
6.455409627
27.23522907
26.15932778
32.03797915
24.93281375
23.54982622
28.81131089
22.15176109
19.00170084
25.8059515
22.53547161
21.55300311
23.65035802
18.50729793
17.46863428
19.17745012
14.29297726
13.21026208
14.50362685
9.849410965
8.686203884
9.544906257
5.303426788
4.211698796
4.643871203
15.52892931
14.79989625
20.50014665
14.10314972
13.30330834
18.36912635
12.48041812
10.23693549
16.81763464
13.9813131
13.36007636
15.38234363
11.44495544
10.79703701
12.44400545
8.82919795
8.160567476
9.407786125
6.07518663
5.343054497
6.167511501
3.218206717
2.548470242
2.955379422
4.880973925
4.491651729
9.121020923
4.177134916
3.896506635
8.134996034
3.576568563
1.927031234
8.106354038
5.65601995
5.391561158
7.364923182
4.57988132
4.309043975
5.914640388
3.496892898
3.225388453
4.452578332
2.394233045
2.098968965
2.898106162
1.234491557
0.9800439337
1.356685115
1077.939638
1087.907353
1078.528533
868.2250048
889.0217734
879.6750074
1081.110603
1066.168959
1046.511444
888.7341171
876.4382317
848.458097
1025.930527
1004.33647
1019.105526
986.9186994
999.6459933
990.134011
1126.564785
1134.702731
951.5665232
960.1035049
973.7964623
38.27644537
815.382949
780.3962876
785.0356265
897.2061613
857.9174883
884.6995672
820.8049284
825.7472651
875.4082608
180.4706242
562.1112295
550.4566189
560.627331
821.4185251
841.1636442
828.5943444
867.9602258
854.2714163
833.3672781
872.355047
897.1510097
882.2444426
928.9690523
912.7101497
886.4517404
932.8997696
963.9002788
945.9992182
1002.916105
982.7859097
950.1722507
737.1924166
758.7250817
750.6038715
775.578666
767.0311147
744.2481409
811.9627801
789.9013011
799.7987891
766.1259946
793.3424351
784.3540986
812.039501
802.5610689
773.586384
859.3533649
831.5381798
842.8844582
796.6201562
832.052584
821.8389886
854.6910311
842.9477666
804.8888076
916.0427914
880.452179
894.8010527
1035.22525
1046.337253
1036.838974
1065.544315
1055.800446
1044.746345
1077.003867
1066.567139
1076.220506
648.6376448
670.9741858
667.4744766
677.610428
674.399809
650.8561968
721.9769313
698.2706399
702.8340428
655.256236
683.0972208
680.532493
686.7711971
685.2110363
655.6388145
745.3162349
715.3453909
718.9281907
651.5339516
687.7124915
687.6624848
684.8467879
686.7879274
647.7088166
767.1172576
727.0063007
728.8389426
857.8216413
836.8988475
843.9276904
561.4553255
582.7957008
583.5787433
579.959635
581.6490352
559.3104386
627.5206749
604.3870614
603.8679032
548.6780105
574.3897837
577.5848735
564.8509849
570.2105279
543.231988
626.5832052
598.0489331
594.1974501
518.3999211
549.5955658
558.0767458
526.1653728
539.0791682
506.3707768
609.9505347
573.6547553
562.7047908
454.1365172
490.9592826
510.1819314
440.0082778
468.8292219
430.5446846
557.3585171
510.5339673
481.4828438
326.1038066
366.3266404
402.3959352
318.9805489
285.0616223
402.8362996
359.6540933
480.9893573
500.2600278
504.5713772
489.8900619
495.4036273
475.3638501
537.4463112
516.1224954
511.4898422
453.848039
476.342268
483.5885957
458.2525033
467.9625408
444.675534
517.219433
492.1562444
483.3064755
408.6268146
434.0047159
447.0057316
401.9388744
419.036079
393.1741335
475.559482
446.4973033
429.9818995
335.4190729
361.2408347
382.6902325
308.6762445
336.546173
310.998544
395.8004957
364.6368539
336.0324884
221.4851532
242.7689784
280.4403914
211.9044606
193.1453857
257.0696024
233.051381
410.7534089
427.265091
433.9941684
411.6519696
419.8258193
402.9191468
456.0633294
437.5427139
429.8995789
374.5998535
392.7806252
402.6695572
369.8619087
381.8805274
363.3466771
422.5158074
401.5907812
389.9588548
322.9967845
342.0967713
356.6268486
309.0304135
326.2261473
307.1828491
369.1048963
346.8298221
329.4920037
252.2443741
270.3223181
290.5540879
223.8053912
247.3310224
229.8970082
287.713392
266.5439986
241.8916818
158.9967564
171.9570641
201.2342246
147.7933569
135.4632765
176.421884
161.3914808
351.071378
365.0662632
372.8563128
347.3200729
356.5750212
342.4660737
386.7735015
371.336013
362.2116851
312.1011529
326.3324238
337.2531546
301.8541525
314.5314305
300.3360706
345.9643913
329.7062782
317.0802026
259.9859025
273.8684339
288.2978745
242.5554966
258.6030377
244.9842715
289.6177513
273.4520916
257.0631233
194.8378909
207.1441064
225.6100378
167.0631477
186.7797949
175.1103009
214.0810787
199.7452146
179.1573668
119.193411
127.6272776
148.8806305
105.294613
97.32555898
124.3098719
114.270674
300.7163691
312.5039659
320.6233334
294.4475247
303.7909363
292.0282704
328.981299
316.0998193
306.7254645
262.3051993
273.7760242
284.4493224
250.3613572
262.4139859
251.1274085
286.9672878
274.345995
262.0731354
213.8584057
224.2696138
237.6332775
195.8311572
210.3324983
200.3232863
232.5104269
221.0260368
206.1015168
156.0598344
164.6626715
180.6708449
130.5031434
147.349283
139.5875645
164.6763505
155.5218297
138.0386715
92.73016429
98.26730699
115.5972687
78.90810449
74.5566693
90.30246049
84.17149414
258.2780243
268.2225873
276.2071757
250.7729977
259.7508635
249.9125155
280.7840741
270.0335764
260.9348287
221.9278914
231.265531
241.2794377
209.695832
220.733369
211.6314329
240.4447478
230.326056
219.0195613
178.0742917
186.2311764
198.1800541
161.1657496
173.8989864
166.1334462
190.9436258
182.1523048
168.980635
127.6915844
134.0776063
147.895273
105.7498812
119.8464041
114.0401718
132.5136746
125.9937039
111.2379468
74.15959795
78.25952999
92.43082532
62.72187072
59.3210543
70.42467755
66.42970803
222.3703408
230.8028878
238.3799725
214.4614874
222.8332632
214.5495306
240.494684
231.4746953
222.9370139
188.8210411
196.5138172
205.6869325
177.0229299
186.9525201
179.5087536
202.9872932
194.7696852
184.5618441
149.6745959
156.2029282
166.7582837
134.2512936
145.3798468
139.2040683
158.8143165
151.9064513
140.3961675
105.8286338
110.8034166
122.7329428
86.83805818
98.69357924
94.18073212
108.5917831
103.4871621
91.12184093
60.36651874
63.48037741
75.38619309
50.46634819
47.88978273
56.16808179
53.22156308
191.7963913
198.995924
206.01617
184.0046853
191.6602518
184.628917
206.6044149
198.9802424
191.1400105
161.3403184
167.7564255
176.0337622
150.3499198
159.1872679
153.015068
172.4144536
165.6474125
156.5416236
126.6821316
132.0057774
141.2787369
112.8077511
122.5295249
117.5168948
133.3525614
127.8015251
117.7450347
88.53778051
92.50892571
102.8013977
72.04442666
82.12102911
78.53361607
89.92684103
85.91294431
75.42672953
49.6684987
52.10860165
62.21586836
41.08431785
39.08191788
45.47671381
43.21235868
165.5896159
171.7757111
178.17305
158.2175127
165.1246876
159.1099096
177.8716186
171.3749382
164.280671
138.2563484
143.6694636
151.0619049
128.250128
136.057211
130.87439
147.1133873
141.4659762
133.4085264
107.7388322
112.1524379
120.2769095
95.38025309
103.8637221
99.7247139
112.7457972
108.1998653
99.42115303
74.56577487
77.79880845
86.68676553
60.22358641
68.85103809
65.94204925
75.13509221
71.9118187
62.94774048
41.17318133
43.1257023
51.77041847
33.73599664
32.14786703
37.19551048
35.41626882
142.9695811
148.3247758
154.0865451
136.1864783
142.3582418
137.1703575
153.3177948
147.7374789
141.3843363
118.6512443
123.2678099
129.8187041
109.6923776
116.5515802
112.1481116
125.9037835
121.1332961
114.0453738
91.89180455
95.60443858
102.7089455
80.9762914
88.36630448
84.89740238
95.76971313
91.98715841
84.33639222
63.07016687
65.74743835
73.42740371
50.60126591
58.02410346
55.62542681
63.17406138
60.53762848
52.83295971
34.30490277
35.89338564
43.32161356
27.87225108
26.59165055
30.6451064
29.22172371
123.2956442
127.967537
133.1066672
117.1930798
122.6626584
118.1503883
132.1642255
127.3311792
121.6897129
101.8243536
105.8027144
111.5686993
93.91221457
99.91154744
96.12810757
107.9129828
103.8370098
97.63083271
78.45553255
81.61882703
87.8150426
68.89220418
75.31476684
72.36880936
81.57136137
78.37976248
71.72614767
53.4627877
55.71289176
62.34625319
42.64430319
49.04742101
47.03958671
53.33417899
51.14360161
44.50042741
28.66749492
29.97854632
36.37459593
23.11872345
22.07082888
25.37530808
24.21896679
106.0532429
110.1595624
114.7025945
100.6725733
105.4822046
101.526096
113.7877932
109.567347
104.5968516
87.23709038
90.69877916
95.74063888
80.33776306
85.56056841
82.27629623
92.4800205
88.95971613
83.5501346
66.92693781
69.65287756
75.03582715
58.61970539
64.18295613
61.65158819
69.53582524
66.80917512
61.0403282
45.32391259
47.23956332
52.95888208
35.96987299
41.49642693
39.79314998
45.1151866
43.26900605
37.53484039
23.97777872
25.07383855
30.57879845
19.21035289
18.34163434
21.07220415
20.11966261
90.82277117
94.46107133
98.44112598
86.17747725
90.37231974
86.87434161
97.69283852
93.9767799
89.63241394
74.46653341
77.50847733
81.88595363
68.53501023
73.05553715
70.17514726
79.10102292
76.02917347
71.33949852
56.92344614
59.29879359
63.94996687
49.78112778
54.57709154
52.37688016
59.21000639
56.85336808
51.87344908
38.34077765
39.99219961
44.90685026
30.299581
35.06079313
33.59761252
38.15520912
36.57890764
31.6353944
20.02700426
20.95470178
25.68038269
15.95538106
15.2261792
17.51105331
16.71634405
77.25826403
80.50917128
83.96140263
73.34510266
76.969514
73.84939651
83.47731664
80.17741771
76.41434818
63.17647689
65.87585629
69.64428612
58.16498255
62.04764535
59.49592133
67.3830079
64.67535288
60.63875581
48.14805024
50.24038313
54.2296836
42.0868676
46.19353823
44.25979747
50.24848966
48.18864946
43.9162701
32.2767124
33.71727882
37.91673202
25.42391141
29.5079459
28.23573146
32.18616139
30.82390028
26.5778364
16.65838531
17.45305388
21.48853718
13.21110288
12.59152589
14.52679999
13.85567706
65.06968028
68.00136155
70.95877575
61.87941683
64.97412227
62.16488866
70.81269821
67.85559561
64.63193141
53.09632793
55.51581385
58.72431118
48.95971299
52.2597263
49.97595918
57.0163827
54.60545705
51.16449194
40.36662099
42.22982314
45.61683423
35.31267813
38.79563829
37.07705952
42.38421824
40.56378822
36.93043981
26.94801158
28.21983249
31.77793425
21.18108424
24.65821986
23.53827603
27.00485812
25.81306454
22.18990952
13.75101089
14.44019774
17.85736047
10.86885318
10.33572556
11.99551417
11.42171155
54.01688166
56.68415752
59.17613342
51.53537253
54.13668976
51.58381172
59.42430962
56.74917314
54.02771565
44.00396608
46.19497606
48.88625341
40.70147983
43.46586326
41.40029242
47.75104424
45.58178377
42.68751426
33.38934467
35.06723776
37.90237943
29.27893765
32.19324481
30.64824924
35.40544769
33.7781606
30.72632953