/*--------------------------------*- C++ -*----------------------------------*\
| =========                 |                                                 |
| \\      /  F ield         | OpenFOAM: The Open Source CFD Toolbox           |
|  \\    /   O peration     | Version:  v2012                                 |
|   \\  /    A nd           | Website:  www.openfoam.com                      |
|    \\/     M anipulation  |                                                 |
\*---------------------------------------------------------------------------*/
FoamFile
{
    version     2.0;
    format      ascii;
    class       surfaceScalarField;
    location    "0.61";
    object      meshPhi;
}
// * * * * * * * * * * * * * * * * * * * * * * * * * * * * * * * * * * * * * //

dimensions      [0 3 -1 0 0 0 0];
oriented        oriented;


internalField   nonuniform List<scalar> 
5975
(
1.283360241e-05
-5.514740522e-05
-1.27972694e-05
0.0001098028016
-5.46917294e-05
-0.0002192309662
-4.775616397e-05
0.0001040156644
0.0004309328057
-0.0002109468392
-5.701450081e-05
-0.0002667753142
-0.0004035335771
0.0002662140954
0.0003765326375
-0.0003215593393
-0.0002741329236
0.0003098163003
0.0002338245511
-0.0001688248939
-0.0001139201449
0.0001572750704
7.92546415e-05
-9.241071123e-06
-1.035210929e-05
8.039604018e-06
9.276159262e-07
0
0
0
0
0
0
0
0
0
0
0
0
0
0
0
0
0
2.936336425e-05
-7.771816492e-05
-2.936332151e-05
0.0001534303678
-7.571224563e-05
-0.0002984865838
-0.0001014778427
0.0001021305252
0.0002969636126
-0.0002583830259
-0.0002593996473
0.0002538531322
0.0002380783146
-0.0002687609738
-0.0001581147137
0.0002596569274
0.0001265985437
-0.0001135397949
-5.145650091e-05
9.76672123e-05
3.398336462e-05
-8.836860787e-07
-1.493812339e-06
6.720871928e-07
0
0
0
0
0
0
0
0
0
0
0
0
0
0
0
0
0
0
4.931313352e-05
-0.0001656286778
-4.931313356e-05
0.0001656286778
-0.0001054626854
-0.0001601353454
0.0001060231872
0.000152945193
-0.0002387125081
-0.000117734654
0.0002297538195
0.0001034803115
-0.0002114121536
-6.081629375e-05
0.000194961274
4.779429778e-05
-5.80977873e-05
-1.555368789e-05
4.73664293e-05
8.086202416e-06
0
0
0
0
0
0
0
0
0
0
0
0
0
0
0
0
0
0
0
0
0
4.545539764e-05
-3.659532746e-05
-4.088384635e-05
3.301186782e-05
-0.0001021447906
-1.87913084e-05
9.834820887e-05
1.345708096e-05
-0.0001886646737
-8.876616913e-07
0.0001703737528
-1.16154678e-06
-0.0001334086369
1.239241248e-06
0.0001107364927
-3.238810105e-07
-1.860450146e-05
-6.858748435e-07
1.083964999e-05
3.059566213e-07
0
0
0
0
0
0
0
0
0
0
0
0
0
0
0
0
0
0
0
0
0
2.176659689e-05
5.787111002e-05
-1.542873727e-05
-6.076080488e-05
-7.785090835e-05
6.239108601e-05
6.815925608e-05
-5.999885201e-05
-0.0001066631095
4.359143619e-05
8.466248447e-05
-3.584235198e-05
-4.693048792e-05
1.275131351e-05
2.986242253e-05
-7.012116492e-06
-1.450526954e-07
1.999752573e-08
0
0
0
0
0
0
0
0
0
0
0
0
0
0
0
0
0
0
0
0
0
0
0
2.426945208e-06
6.331063531e-05
-5.07607614e-07
-6.208001019e-05
-3.492707403e-05
4.973669689e-05
2.433138337e-05
-4.311304666e-05
-2.793616355e-05
2.016435971e-05
1.483260746e-05
-1.310973809e-05
-1.365116135e-06
6.609648679e-07
3.745570031e-09
-6.922104454e-09
0
0
0
0
0
0
0
0
0
0
0
0
0
0
0
0
0
0
0
0
0
0
0
0
0
-4.254042534e-07
1.158487774e-05
1.513902177e-07
-1.016968705e-05
-2.59312223e-06
4.042310646e-06
2.142783092e-07
-2.206057874e-06
0
0
0
0
0
0
0
0
0
0
0
0
0
0
0
0
0
0
0
0
0
0
0
0
0
0
0
0
0
0
0
0
0
0
0
0
0
0
0
0
0
0
0
0
0
0
0
0
0
0
0
0
0
0
0
0
0
0
0
0
0
0
0
0
0
0
0
0
0
0
0
0
0
0
0
0
0
0
0
0
0
0
0
0
0
0
0
0
0
0
0
0
0
0
0
0
0
0
0
0
0
0
0
0
0
0
0
0
0
0
0
0
0
0
0
0
0
0
0
0
0
0
0
0
0
0
0
0
0
0
0
0
0
0
0
0
0
0
0
0
0
0
0
0
0
0
0
0
0
0
0
0
0
0
0
0
0
0
0
0
0
0
0
0
0
0
0
0
0
0
0
0
0
0
0
0
0
0
0
0
0
0
0
0
0
0
0
0
0
0
0
0
0
0
0
0
0
0
0
0
0
0
0
0
0
0
0
0
0
0
0
0
0
0
0
0
0
0
0
0
0
0
0
0
0
0
0
0
0
0
0
0
0
0
0
0
0
0
0
0
0
0
0
0
0
0
0
0
0
0
0
0
0
0
0
0
0
0
0
0
0
0
0
0
0
0
0
0
0
0
0
0
0
0
0
0
0
0
0
0
0
0
0
0
0
0
0
0
0
0
0
0
0
0
0
0
0
0
0
0
0
0
0
0
0
0
0
0
0
0
0
0
0
0
0
0
0
0
0
0
0
0
0
0
0
0
0
0
0
0
0
0
0
0
0
0
0
0
0
0
0
0
0
0
0
0
0
0
0
0
0
0
0
0
0
0
0
0
0
0
0
0
0
0
0
0
0
0
0
0
0
0
0
0
0
0
0
0
0
0
0
0
0
0
0
0
0
0
0
0
0
0
0
0
0
0
0
0
0
0
0
0
0
0
0
0
0
0
0
0
0
0
0
0
0
0
0
0
0
0
0
0
0
0
0
0
0
0
0
0
0
0
0
0
0
0
0
0
0
0
0
0
0
0
0
0
0
0
0
0
0
0
0
0
0
0
0
0
0
0
0
0
0
0
0
0
0
0
0
0
0
0
0
0
0
0
0
0
0
0
0
0
0
0
0
0
0
0
0
0
0
0
0
0
0
0
0
0
0
0
0
0
0
0
0
0
0
0
0
0
0
0
0
0
0
0
0
0
0
0
0
0
0
0
0
0
0
0
0
0
0
0
0
0
0
0
0
0
0
0
0
0
0
0
0
0
0
0
0
0
0
0
0
0
0
0
0
0
0
0
0
0
0
0
0
0
0
0
0
0
0
0
0
0
0
0
0
0
0
0
0
0
0
0
0
0
0
0
0
0
0
0
0
0
0
0
0
0
0
0
0
0
0
0
0
0
0
0
0
0
0
0
0
0
0
0
0
0
0
0
0
0
0
0
0
0
0
0
0
0
0
0
0
0
0
0
0
0
0
0
0
0
0
0
0
0
0
0
0
0
0
0
0
0
0
0
0
0
0
0
0
0
0
0
0
0
0
0
0
0
0
0
0
0
0
0
0
0
0
0
0
0
0
0
0
0
0
0
0
0
0
0
0
0
0
0
0
0
0
0
0
0
0
0
0
0
0
0
0
0
0
0
0
0
0
0
0
0
0
0
0
0
0
0
0
0
5.579825729e-05
-7.28687338e-06
7.29888734e-06
-5.581027125e-05
-5.630943841e-05
0.0001120369364
1.290436169e-05
3.854861715e-05
0.0002276154956
-3.870966029e-05
-0.0002274544525
7.98685782e-05
-1.821189914e-05
1.821215836e-05
-7.986883742e-05
-5.521616705e-05
-7.218111552e-06
0.000161739044
-7.303437616e-05
1.069321561e-05
9.834059028e-06
6.552871952e-05
0.0003304459358
-0.0001616596736
-0.0001691621489
-2.797834737e-05
-3.717448544e-05
-0.0002190319337
3.834958473e-05
9.527735312e-05
-3.877674607e-05
3.877674609e-05
-9.527735312e-05
-7.771830565e-05
-1.821175841e-05
1.985679294e-06
0.0002268760345
-2.236719099e-06
-0.0001122122021
-0.0001144127926
1.489610221e-05
9.231449721e-05
-9.226492387e-05
-1.494567555e-05
9.440117717e-05
1.492397675e-05
-9.44290517e-05
-1.321572958e-05
9.44715483e-05
1.314535845e-05
1.67942966e-07
0.0001933132435
-7.822443241e-07
-0.0001926989421
0.0002184343077
1.705031493e-06
-0.0001080018583
-0.0001101518015
7.956325608e-06
5.968707925e-05
-5.994409815e-05
-7.699306703e-06
-1.481775952e-05
0.00010320231
1.477489651e-05
-5.126931184e-05
-5.189013519e-05
6.020300041e-05
8.158879501e-06
-6.04055543e-05
-7.031068211e-06
6.009190864e-05
7.142159975e-06
-6.377948922e-06
0.0001207267547
6.37053166e-06
-0.0001207193375
0.0001011250626
-0.0001010426696
-1.490015252e-05
0.0001988133413
-0.0001035359882
2.936331538e-05
1.994981815e-05
0.0001964200106
6.489966724e-05
-6.388911474e-05
-0.0001987631927
6.364708438e-05
-0.0001450562159
-0.0001515487326
-6.538648916e-06
0.0001120571339
6.502306789e-06
-0.0001120207918
0.0001185224632
-0.000118484117
-6.416295055e-06
-6.898960723e-06
5.955497176e-05
-1.123064329e-06
0.0001591150845
-4.001001268e-08
-0.0001579520101
0.0001850576605
-0.000184261072
-6.28645481e-07
-1.325192539e-05
9.235069302e-05
0.0001285081989
-3.877674594e-05
3.877674553e-05
-0.0001285081985
2.041526005e-06
8.208878649e-05
-8.413031249e-05
-7.810160421e-06
6.241205922e-05
7.959031789e-06
-6.256093059e-05
-2.072557597e-05
8.590390803e-05
2.030470233e-05
-1.433028842e-05
8.593429102e-05
1.469205502e-05
-8.629605761e-05
-5.963320895e-05
8.254236961e-06
-9.065915178e-06
6.044488717e-05
-5.732933091e-05
-9.393460097e-06
5.775639234e-05
8.966398667e-06
-7.433593922e-06
5.783644725e-05
7.407804849e-06
-5.781065818e-05
-9.309366689e-06
7.900068023e-06
-5.592003225e-05
-3.616806949e-07
-1.224574392e-05
-4.702578432e-05
-1.02276305e-05
5.643260706e-05
1.038989323e-05
-5.65948698e-05
5.617839735e-05
-5.460258599e-05
-1.088517805e-05
-2.591836131e-05
5.366994197e-05
1.323440669e-05
-9.528256393e-06
5.384477094e-05
9.607276584e-06
-5.392379114e-05
5.570898636e-05
-5.576347561e-05
-1.017314125e-05
-9.765752154e-06
5.121139569e-05
9.779884607e-06
-5.122552814e-05
5.322187464e-05
-5.326535776e-05
-9.484773277e-06
-9.198860866e-06
5.338385991e-05
8.012325832e-05
-8.048493902e-05
6.176912096e-05
-6.167214268e-05
-7.907138697e-06
-7.198095005e-06
6.00669108e-05
-5.082728979e-05
6.162504144e-05
2.675245384e-05
0.000227772033
-4.791270138e-05
0.0004418045935
0.0002270744485
-0.0002267488342
-0.0004575518558
5.719248051e-05
-5.727549982e-05
-7.350574604e-06
-1.014492761e-05
5.692986486e-05
-9.647389575e-06
5.613634369e-05
9.943652945e-06
6.236049596e-05
-6.099024766e-05
-8.658807939e-06
6.293898077e-05
-7.907419264e-06
-7.141573729e-06
6.235271598e-05
7.200916975e-06
-5.041475626e-06
6.219665599e-05
5.048963076e-06
-6.220414344e-05
8.885304899e-07
-1.318797397e-05
5.566588311e-05
-4.336643963e-05
7.534321755e-05
-7.445468706e-05
7.318133406e-05
-1.22192443e-06
2.63632519e-05
-9.163991708e-06
5.598207386e-05
5.554640926e-05
-4.237113132e-05
4.924491731e-05
-9.342309799e-06
9.349158602e-06
-4.925176611e-05
5.081016715e-05
-5.103056404e-05
-9.545355265e-06
-1.340763431e-05
-5.416442632e-05
2.596877766e-05
-7.067319523e-06
6.318732835e-05
6.266388312e-05
-5.010273977e-05
-7.700304635e-05
2.574317145e-05
5.915994293e-05
8.491310238e-07
-7.785217738e-05
-8.171636238e-06
-4.689926499e-05
5.92693529e-05
-4.577192538e-05
-5.770550693e-05
1.107830963e-05
5.701709053e-05
-9.418322921e-06
2.705603355e-05
-1.034730962e-05
-1.486147649e-05
-4.791274574e-05
5.647140222e-05
-4.427684517e-05
5.66645338e-05
1.012544926e-05
-1.03067837e-05
5.385127641e-05
-5.386329574e-05
5.482475329e-05
5.152134931e-05
-1.09001116e-05
1.022399824e-05
-1.082572316e-05
5.212307423e-05
5.330107445e-05
5.855982998e-05
-1.415801175e-05
-5.159991324e-05
8.307558321e-06
-9.882129287e-06
6.013440095e-05
6.13071496e-05
1.001360752e-05
6.080339388e-05
-9.191959966e-06
-6.040276715e-05
6.053424538e-05
-4.780832505e-05
0.000417971899
-0.0002681788611
0.0003087138778
0.0003288926748
-0.0003357701592
-0.000350199889
0.0002624049153
-0.000327771159
0.0001298600324
0.0002196508967
-0.0002356638788
-0.000171935047
9.165055152e-05
-0.0001847382008
3.418288086e-05
1.283497125e-05
-4.318852419e-05
-3.198442011e-05
-1.302748643e-05
0.0001033339203
1.289587617e-05
-6.786820109e-06
0.000103592316
6.770636616e-06
-0.0001035761325
0.000110031289
-0.0001099577763
-6.612161537e-06
0.0003310326774
-0.0001022429207
0.0002971131867
0.0002256920311
-0.0002276897857
-0.0003141782159
-0.0004220301281
0.0002281988701
0.0002731622349
-0.0002599627405
0.0001800318043
0.0002881410491
-0.0003004497249
-0.0002122773376
-0.000312538693
0.0003190440926
0.0001529158898
-0.0002861611905
6.633832622e-05
0.0001599422707
-0.0001726159037
-9.308787733e-05
-0.000151966512
0.0002067369029
4.288284496e-05
-0.0001244669034
1.13764742e-05
2.208724568e-06
-1.763615428e-05
-1.036643098e-05
-2.568270846e-05
2.927068594e-05
-2.936331552e-05
0.0001285081985
2.936331592e-05
-1.123064318e-06
0.0001285081985
1.123064319e-06
-0.0001285081985
0.0001534303678
-0.0001534303678
-1.123064313e-06
0.0001902403256
-0.0001043685224
0.0001527654316
0.0002153878562
-0.0002196282338
-0.0001678296374
-0.0002763978653
0.000223004665
0.0001360471332
-0.0002455305553
8.247621068e-05
0.0002368548504
-0.000249859325
-0.0001003200163
-0.0001862096994
0.0002778063009
6.322334001e-05
-0.0002241039729
2.126970492e-05
9.473643434e-05
-0.0001139572474
-3.297973708e-05
-7.39375841e-05
0.0001415980882
1.316923688e-05
-7.411316529e-05
1.231113372e-06
0
-2.657384637e-06
-1.113900931e-06
-6.908006268e-06
8.045941316e-06
6.807310508e-05
-8.270973374e-05
8.620732194e-05
-8.696669207e-05
4.818994596e-05
6.550110988e-05
4.836330564e-05
5.128443212e-05
6.708058599e-05
-6.725190858e-05
-5.71343301e-05
-0.0001643152021
6.602852737e-05
4.466497008e-05
-0.000104571527
2.477601325e-05
0.0001786684802
-0.0001911903495
-3.094754629e-05
-0.0001311537949
0.00020940979
1.951621353e-05
-0.0002047568005
9.632226874e-06
0.0001597694306
-0.0001821157345
-1.207204023e-05
-7.462059741e-05
0.0002210605258
7.693992565e-06
-0.0001554397263
2.613330907e-06
4.160792404e-05
-5.520489349e-05
-4.291265458e-06
-2.492257475e-05
8.241188762e-05
1.113832023e-06
-2.770000624e-05
0
0
0
0
-3.333792284e-07
1.172734005e-07
-4.13258908e-05
-4.959651762e-05
5.954077103e-05
-7.67548389e-05
-4.500523969e-05
2.849102106e-05
-5.103987501e-05
5.69636562e-05
-6.124779787e-05
5.00763059e-05
-2.402474491e-05
6.615379856e-05
-5.065633544e-05
-8.6208678e-05
-4.040524239e-05
0.0001090020716
-0.0001286150963
4.531005167e-05
-4.141203183e-06
0.0001638962004
-3.4329811e-05
-0.0001287861531
-1.397997381e-05
6.632523551e-05
-8.869434149e-05
2.054455254e-05
1.944966567e-06
0.0001362530747
-8.369734036e-06
-6.665559103e-05
-1.727302653e-07
3.383678237e-06
-9.18707882e-06
1.396417259e-06
-7.847394318e-07
2.893888947e-05
0
-1.665199139e-06
0
0
0
0
0
0
-7.061283449e-05
-1.531327215e-05
2.216587471e-05
-3.967815014e-05
-7.026787901e-05
5.548406706e-06
-5.998019185e-05
2.905655416e-05
-3.710635718e-05
6.496240505e-05
6.321392066e-05
5.140504775e-05
-5.359353666e-05
-4.618121558e-05
-2.91596247e-05
3.384487113e-05
-5.051198596e-05
3.775462052e-05
5.043900072e-05
8.892424108e-05
-2.082639845e-05
-4.444631327e-05
-2.845924295e-06
5.694420001e-06
-1.509031353e-05
7.190335193e-06
1.982286289e-05
4.606742498e-05
-5.645148782e-07
-6.536750442e-06
0
0
0
0
6.745617473e-07
6.828807212e-07
0
0
0
0
0
0
0
0
-2.395697782e-05
-1.450718185e-06
3.202267213e-06
-9.927765826e-06
-2.205724985e-05
-6.097990444e-07
-1.238481245e-05
3.010477145e-06
-7.528692428e-06
1.606021736e-05
5.523072233e-05
2.10673917e-05
-8.654635394e-06
-7.635485137e-06
-8.682549665e-07
1.408333235e-07
-2.711390994e-06
2.517380467e-06
2.786706814e-05
1.992312139e-05
-8.819704669e-08
-9.085459372e-07
0
0
0
0
2.964010977e-06
9.688892597e-07
0
0
0
0
0
0
0
0
0
0
0
0
0
0
0
0
0
0
0
-4.567456234e-07
0
0
0
0
0
0
6.175120109e-06
4.939327518e-07
0
0
0
0
0
0
1.898371399e-07
0
0
0
0
0
0
0
0
0
0
0
0
0
0
0
0
0
0
0
0
0
0
0
0
0
0
0
0
0
0
0
0
0
0
0
0
0
0
0
0
0
0
0
0
0
0
0
0
0
0
0
0
0
0
0
0
0
0
0
0
0
0
0
0
0
0
0
0
0
0
0
0
0
0
0
0
0
0
0
0
0
0
0
0
0
0
0
0
0
0
0
0
0
0
0
0
0
0
0
0
0
0
0
0
0
0
0
0
0
0
0
0
0
0
0
0
0
0
0
0
0
0
0
0
0
0
0
0
0
0
0
0
0
0
0
0
0
0
0
0
0
0
0
0
0
0
0
0
0
0
0
0
0
0
0
0
0
0
0
0
0
0
0
0
0
0
0
0
0
0
0
0
0
0
0
0
0
0
0
0
0
0
0
0
0
0
0
0
0
0
0
0
0
0
0
0
0
0
0
0
0
0
0
0
0
0
0
0
0
0
0
0
0
0
0
0
0
0
0
0
0
0
0
0
0
0
0
0
0
0
0
0
0
0
0
0
0
0
0
0
0
0
0
0
0
0
0
0
0
0
0
0
0
0
0
0
0
0
0
0
0
0
0
0
0
0
0
0
0
0
0
0
0
0
0
0
0
0
0
0
0
0
0
0
0
0
0
0
0
0
0
0
0
0
0
0
0
0
0
0
0
0
0
0
0
0
0
0
0
0
0
0
0
0
0
0
0
0
0
0
0
0
0
0
0
0
0
0
0
0
0
0
0
0
0
0
0
0
0
0
0
0
0
0
0
0
0
0
0
0
0
0
0
0
0
0
0
0
0
0
0
0
0
0
0
0
0
0
0
0
0
0
0
0
0
0
0
0
0
0
0
0
0
0
0
0
0
0
0
0
0
0
0
0
0
0
0
0
0
0
0
0
0
0
0
0
0
0
0
0
0
0
0
0
0
0
0
0
0
0
0
0
0
0
0
0
0
0
0
0
0
0
0
0
0
0
0
0
0
0
0
0
0
0
0
0
0
0
0
0
0
0
0
0
0
0
0
0
0
0
0
0
0
0
0
0
0
0
0
0
0
0
0
0
0
0
0
0
0
0
0
0
0
0
0
0
0
0
0
0
0
0
0
0
0
0
0
0
0
0
0
0
0
0
0
0
0
0
0
0
0
0
0
0
0
0
0
0
0
0
0
0
0
0
0
0
0
0
0
0
0
0
0
0
0
0
0
0
0
0
0
0
0
0
0
0
0
0
0
0
0
0
0
0
0
0
0
0
0
0
0
0
0
0
0
0
0
0
0
0
0
0
0
0
0
0
0
0
0
0
0
0
0
0
0
0
0
0
0
0
0
0
0
0
0
0
0
0
0
0
0
0
0
0
0
0
0
0
0
0
0
0
0
0
0
0
0
0
0
0
0
0
0
0
0
0
0
0
0
0
0
0
0
0
0
0
0
0
0
0
0
0
0
0
0
0
0
0
0
0
0
0
0
0
0
0
0
0
0
0
0
0
0
0
0
0
0
0
0
0
0
0
0
0
0
0
0
0
0
0
0
0
0
0
0
0
0
0
0
0
0
0
0
0
0
0
0
0
0
0
0
0
0
0
0
0
0
0
0
0
0
0
0
0
0
0
0
0
0
0
0
0
0
0
0
0
0
0
0
0
0
0
0
0
0
0
0
0
0
0
0
0
0
0
0
0
0
0
0
0
0
0
0
0
0
0
0
0
0
0
0
0
0
0
0
0
0
-5.636989884e-05
7.359347766e-06
-8.089375573e-06
8.204038585e-06
-5.648456185e-05
-5.588728973e-05
-8.012357095e-06
1.074200297e-05
0.0001120222891
-1.072735567e-05
-0.0001140185131
0.0001140683167
1.069219946e-05
1.292784082e-05
-5.684951176e-05
0.0002527058136
-0.0002525386885
3.894432699e-05
-0.0001249667237
1.161412437e-05
0.000252216777
1.086291722e-05
0.0002270989746
-1.108585733e-05
8.400347568e-05
-8.452710936e-05
-1.380665474e-05
8.741245511e-05
-9.455921798e-06
5.551751858e-05
-8.875582499e-06
5.375462077e-05
8.965732673e-06
-1.483226444e-05
0.0001076124284
7.790882504e-06
7.241919519e-06
-5.366970375e-05
-5.414326222e-05
1.994981816e-05
0.000161739044
-1.994981815e-05
0.0001653774295
1.881344472e-05
-8.083825762e-05
-8.340279843e-05
1.290256498e-05
-1.251958411e-05
8.362049481e-05
-3.779583543e-05
0.0001859924114
-0.0001857496306
3.755305456e-05
-9.723298945e-06
9.665789797e-06
0.0001851151696
8.290139534e-06
0.0001597465339
-8.921588944e-06
1.06435706e-05
0.0002186536543
0.0001935507116
-9.960767073e-06
0.0001942950724
-3.799643902e-05
-0.0001940944688
0.0001201995225
-0.0001201995224
-3.877674606e-05
-3.877674446e-05
0.0001450562205
2.056496728e-05
1.821177267e-05
-7.149048801e-05
-7.356572793e-05
-2.266110253e-06
0.0002353513458
-0.0001164681226
-0.0001186550243
-1.988077707e-07
4.171775055e-06
-4.224035221e-06
0.0001185747233
-4.432585407e-06
0.0001121353245
4.354394858e-06
0.0001206972969
4.201232912e-06
0.0001207966429
-2.360772969e-06
-0.0001207019802
6.313411186e-05
-7.16655624e-06
-6.413517625e-06
6.316291734e-05
-1.666450797e-05
1.670012142e-05
-9.230053733e-05
9.013598009e-05
-9.033278829e-05
-1.646769977e-05
-1.480428734e-05
8.999459188e-05
-9.671657171e-05
1.491186468e-05
9.672868377e-05
-1.682211107e-05
1.675606976e-05
-4.861177749e-05
-4.80387529e-05
-9.455104135e-05
9.493778649e-05
-7.229195493e-06
7.121761851e-06
-9.483035284e-05
0.0001014326374
-0.0001013078858
-6.911571719e-06
-1.300740162e-05
0.0001011049778
-0.0002011892619
-1.351961005e-06
0.0002017589786
-7.828467269e-06
7.325710712e-06
-9.9253868e-05
-8.428770342e-06
-9.716085256e-05
-4.484407917e-06
0.0001100831115
0.000209745571
-0.0001058528396
4.538117006e-06
2.487178323e-06
0.0002100986415
-8.49551328e-06
8.802083876e-06
-6.025066875e-05
5.929123809e-05
-5.944723126e-05
-8.339520114e-06
-7.543822333e-06
5.913575372e-05
1.173676491e-05
-1.191516212e-05
5.112606725e-05
-5.029844746e-05
5.120948922e-05
0.0001055552848
-5.252008588e-05
-5.309256688e-05
-8.779938059e-06
5.31262302e-05
-8.906984163e-06
5.121964527e-05
8.898734583e-06
-6.062376989e-05
8.162310264e-06
6.062033913e-05
-9.199923459e-06
9.110398949e-06
1.057180512e-05
0.0001207276871
-1.063099533e-05
-6.004005082e-05
-6.062844607e-05
0.0001227907372
5.574324188e-06
-6.115751139e-05
-6.167722046e-05
-7.106208407e-06
6.173375564e-05
-0.000122817472
6.332443446e-06
0.0001228555602
-8.532068158e-06
8.505333336e-06
-8.52371853e-06
0.000124876374
-6.267038326e-05
0.0001248356968
-1.693997672e-05
-5.047666455e-05
8.277154663e-06
9.886718873e-05
-4.98061784e-05
9.88789009e-05
1.162762829e-05
-1.140903631e-05
5.073012733e-05
5.11995487e-05
-1.866334585e-05
-4.712525047e-05
-4.767200377e-05
9.718787588e-06
9.19077116e-06
-4.874304305e-05
-9.211044241e-06
1.165955936e-05
0.0001988133413
-1.165955933e-05
0.0002320903687
1.053649504e-05
-0.0001118908463
-0.0001201995224
-2.936331542e-05
0.0001201995224
-0.0002320903687
-6.364708436e-05
0.0002315946072
2.599406569e-05
-2.599406569e-05
2.601501094e-05
8.290139525e-06
0.0001534303678
0.0002653250732
-0.0001368168747
-8.290139534e-06
-1.770392616e-05
0.0002653250732
-0.0001141590851
6.400841256e-06
0.0001142605506
-8.684711373e-06
8.59394293e-06
-8.683214031e-06
-8.610927837e-06
-0.0001183969077
0.0001163573014
-0.0001163742863
0.0001163418476
0.0001162287521
-5.840399554e-05
6.769569646e-06
6.169961846e-06
1.054666527e-05
-5.89481252e-05
-5.953311259e-05
-0.0001691333932
1.034703595e-06
0.0001680586796
-1.432352888e-05
1.056756512e-05
-1.053649504e-05
-9.276747877e-06
-0.0001834130945
0.0001761151655
-0.0001748243482
0.0001765212236
8.562392357e-05
1.321293243e-05
1.762077539e-05
-8.56556648e-05
-8.797601412e-05
-9.017021225e-05
-9.244616286e-05
9.594860497e-06
-0.0001368168747
0.0001368168757
-4.818994597e-05
2.291830441e-05
-4.818994598e-05
-6.266489938e-05
6.27165119e-05
-8.659824192e-06
-8.033426435e-06
1.843988743e-05
-1.834099506e-05
-4.493981826e-05
-4.549186239e-05
-4.61495886e-05
-4.637440716e-05
1.8178301e-05
8.663969487e-05
-1.891408783e-05
-8.835402545e-05
8.819133138e-05
9.990899053e-06
-8.798642176e-05
8.787418943e-05
-1.626279014e-05
-1.591915289e-05
5.946975083e-05
-9.266313102e-06
8.997741546e-06
-8.975221978e-06
8.807706214e-06
5.784608704e-05
-8.897400911e-06
-5.886002849e-05
5.869251273e-05
-5.854001302e-05
-8.187020407e-06
-8.151591539e-06
-5.474876611e-05
9.843160973e-06
5.451288172e-05
-1.001080145e-05
1.008678864e-05
-1.008331618e-05
-1.056437597e-05
5.550448653e-05
5.517450626e-05
-5.160822809e-05
9.545252951e-06
5.184285974e-05
-1.068587431e-05
1.028713544e-05
-1.07853352e-05
-1.004759948e-05
5.236261019e-05
5.242308986e-05
-8.398419523e-06
6.084638037e-05
6.110155194e-05
-0.000142294445
0.000464659224
0.0001418696098
-0.0002280038299
-0.0002363186611
0.000497850131
-0.0002444212158
-0.0002529129126
4.806713226e-05
0.000252821585
-0.000493888428
0.0004792784156
0.0001823343031
0.0001839364842
-8.21475846e-06
-5.72123329e-05
5.68407386e-05
-5.685145848e-05
5.681739449e-05
-1.02977883e-05
9.179868951e-06
-9.213932938e-06
9.035539612e-06
-8.786485647e-06
-5.666295518e-05
6.388982516e-06
6.229407009e-05
-6.330336628e-06
-6.275087264e-05
6.272633753e-05
-6.269341869e-05
5.071998506e-06
-5.66425084e-06
5.697169683e-06
6.313036278e-05
1.126482805e-05
4.946625154e-05
-1.100230016e-05
5.005684907e-05
-4.997670063e-05
9.519680839e-06
-1.030841375e-05
1.038856219e-05
-1.009392832e-05
-1.061635054e-05
5.050233898e-05
2.123849321e-06
-1.530224164e-05
0
0
0
-6.517818165e-09
0
0
0
0
0
0.0001077143806
-1.289922166e-05
1.0810849e-05
-1.086309503e-05
0.0001077666267
0.000109886295
0.0003977641123
0.0001032826027
-0.0002027359782
-0.000141678791
0.0001418183584
0.000396198422
0.000430568785
0.0003459566623
-0.0003693613643
0.0002638744562
-0.000292556449
0.0002919415484
0.0003139213597
-0.000298641921
0.0003476411654
0.0001984485949
-0.0002384087793
0.0002959897498
-0.0002873170392
0.000267196238
0.0001654701164
-0.0002999848848
0.000192531439
6.631109184e-05
-9.64650067e-05
0.0001430986354
-0.0001080026134
9.622329849e-05
4.053507607e-05
-0.0001177073675
4.940723863e-05
0
-3.496860486e-06
0
0
0
0
0
0
0
0
0
0
0
0
0
0
0.0001450562159
-2.936331698e-05
1.994981814e-05
-1.994981815e-05
0.0001450562159
0.0001534303678
0.0002625608727
0.0001030352551
-0.0001446708144
0.0001453353918
0.000254379485
-0.0001428222892
0.0002885616922
0.0001974860671
-0.0002208887122
0.0002504599718
-0.0002771553692
0.0002649195275
0.000178311573
-0.000282718565
0.0002120123059
0.0001053677155
-0.0001307130793
0.0002460430434
-0.0002281108175
0.0002121963351
8.305137268e-05
-0.0002449658021
9.911379351e-05
2.528948474e-05
-4.1963049e-05
8.602364205e-05
-6.037527357e-05
4.818204875e-05
1.273381995e-05
-7.038902545e-05
1.811523856e-05
0
0
0
0
0
0
0
0
0
0
0
0
0
0
0
0
0.0001323353201
-0.0001323805925
-4.93813386e-05
1.165053516e-05
-1.132193263e-05
0.0001314679667
0.0001655877844
0.0001155449605
-0.0001231458198
0.0001057992669
-0.0001448661434
0.0001426989111
0.0001061217262
-0.0001458047899
0.0001431023734
7.259719347e-05
-8.407551052e-05
0.0002184678389
-0.00023911119
0.0002247719667
6.143112446e-05
-0.0002509142764
8.895643853e-05
3.20288241e-05
-4.104841744e-05
0.0001761529878
-0.0001605836264
0.0001425099216
2.381615285e-05
-0.0001766378994
3.575882568e-05
4.932851559e-06
-1.007089977e-05
3.749634655e-05
-2.047158388e-05
1.447528589e-05
1.426709574e-06
-3.010380425e-05
2.991076399e-06
0
0
0
0
0
0
0
0
0
0
0
0
0
0
0
0
2.910634521e-06
-7.000274607e-06
-3.505502755e-05
4.581345345e-06
-9.784361874e-07
-1.334931682e-06
7.705180717e-06
2.882482119e-05
-1.342183559e-05
9.777397275e-06
9.30561971e-05
-0.0001264644017
0.0001173989284
-1.622045924e-05
-0.0001336649284
8.437229008e-06
-1.716283186e-05
1.818605072e-05
0.0001502455491
-0.0001676490155
0.0001450329925
-1.498306869e-05
-0.0001887838018
-2.035123143e-06
-5.507905445e-06
8.678778395e-06
8.821045949e-05
-8.21474875e-05
6.241147126e-05
-2.904733261e-06
-0.0001025984014
4.316839559e-07
2.224711073e-08
2.163729923e-07
5.024792368e-06
-1.922860795e-06
3.569527e-07
0
-4.697024393e-06
1.374902347e-08
0
0
0
0
0
0
0
0
0
0
0
0
0
0
0
0
-7.023753977e-05
6.837769452e-05
-9.922399885e-06
-8.534582749e-06
1.005945245e-05
-7.079280202e-05
-5.98832646e-06
-6.260794001e-05
-6.318995163e-05
6.735514065e-05
5.74479876e-05
-8.045381223e-05
6.607376189e-05
-5.744197863e-05
-9.410737279e-05
-5.598763284e-05
-3.343941307e-05
4.215048164e-05
6.362909204e-05
-7.528171004e-05
5.41992676e-05
-2.475751942e-05
-9.803179748e-05
-2.771912092e-05
-4.706671456e-06
9.883321392e-06
1.618854897e-05
-1.549615561e-05
6.377294282e-06
-1.448821424e-06
-2.831296136e-05
-2.946113339e-06
0
0
0
0
0
0
0
0
0
0
0
0
0
0
0
0
0
0
0
0
0
0
0
0
-5.01176842e-05
5.193689008e-05
4.074389754e-07
-8.188962725e-06
6.092699069e-06
-4.69800745e-05
-9.751743216e-06
-5.938142999e-05
-3.093772591e-05
3.716818578e-05
1.50366771e-05
-2.514901994e-05
1.459924243e-05
-2.427698459e-05
-3.770778859e-05
-3.568252407e-05
-6.285307411e-06
1.146269407e-05
5.698116954e-06
-9.201064005e-06
2.387632002e-06
-2.543071252e-06
-2.044502879e-05
-7.225040803e-06
0
2.08156247e-09
0
0
0
0
-1.559923049e-08
0
0
0
0
0
0
0
0
0
0
0
0
0
0
0
0
0
0
0
0
0
0
0
0
0
-2.596647681e-06
3.267021728e-06
3.229983112e-09
-5.396270447e-07
6.394252494e-09
-1.835056099e-06
-1.900037033e-06
-8.302047314e-06
-6.933858571e-08
4.750266185e-07
0
-3.324531258e-08
0
0
-1.722804616e-06
-9.514960323e-07
0
0
0
0
0
0
0
0
0
0
0
0
0
0
0
0
0
0
0
0
0
0
0
0
0
0
0
0
0
0
0
0
0
0
0
0
0
0
0
0
0
0
0
0
0
0
0
0
0
0
0
0
0
0
0
0
0
0
0
0
0
0
0
0
0
0
0
0
0
0
0
0
0
0
0
0
0
0
0
0
0
0
0
0
0
0
0
0
0
0
0
0
0
0
0
0
0
0
0
0
0
0
0
0
0
0
0
0
0
0
0
0
0
0
0
0
0
0
0
0
0
0
0
0
0
0
0
0
0
0
0
0
0
0
0
0
0
0
0
0
0
0
0
0
0
0
0
0
0
0
0
0
0
0
0
0
0
0
0
0
0
0
0
0
0
0
0
0
0
0
0
0
0
0
0
0
0
0
0
0
0
0
0
0
0
0
0
0
0
0
0
0
0
0
0
0
0
0
0
0
0
0
0
0
0
0
0
0
0
0
0
0
0
0
0
0
0
0
0
0
0
0
0
0
0
0
0
0
0
0
0
0
0
0
0
0
0
0
0
0
0
0
0
0
0
0
0
0
0
0
0
0
0
0
0
0
0
0
0
0
0
0
0
0
0
0
0
0
0
0
0
0
0
0
0
0
0
0
0
0
0
0
0
0
0
0
0
0
0
0
0
0
0
0
0
0
0
0
0
0
0
0
0
0
0
0
0
0
0
0
0
0
0
0
0
0
0
0
0
0
0
0
0
0
0
0
0
0
0
0
0
0
0
0
0
0
0
0
0
0
0
0
0
0
0
0
0
0
0
0
0
0
0
0
0
0
0
0
0
0
0
0
0
0
0
0
0
0
0
0
0
0
0
0
0
0
0
0
0
0
0
0
0
0
0
0
0
0
0
0
0
0
0
0
0
0
0
0
0
0
0
0
0
0
0
0
0
0
0
0
0
0
0
0
0
0
0
0
0
0
0
0
0
0
0
0
0
0
0
0
0
0
0
0
0
0
0
0
0
0
0
0
0
0
0
0
0
0
0
0
0
0
0
0
0
0
0
0
0
0
0
0
0
0
0
0
0
0
0
0
0
0
0
0
0
0
0
0
0
0
0
0
0
0
0
0
0
0
0
0
0
0
0
0
0
0
0
0
0
0
0
0
0
0
0
0
0
0
0
0
0
0
0
0
0
0
0
0
0
0
0
0
0
0
0
0
0
0
0
0
0
0
0
0
0
0
0
0
0
0
0
0
0
0
0
0
0
0
0
0
0
0
0
0
0
0
0
0
0
0
0
0
0
0
0
0
0
0
0
0
0
0
0
0
0
0
0
0
0
0
0
0
0
0
0
0
0
0
0
0
0
0
0
0
0
0
0
0
0
0
0
0
0
0
0
0
0
0
0
0
0
0
0
0
0
0
0
0
0
0
0
0
0
0
0
0
0
0
0
0
0
0
0
0
0
0
0
0
0
0
0
0
0
0
0
0
0
0
0
0
0
0
0
0
0
0
0
0
0
0
0
0
0
0
0
0
0
0
0
0
0
0
0
0
0
0
0
0
0
0
0
0
0
0
0
0
0
0
0
0
0
0
0
0
0
0
0
0
0
0
0
0
0
0
0
0
0
0
0
0
0
0
0
0
0
0
0
0
0
0
0
0
0
0
0
0
0
0
0
0
0
0
0
0
0
0
0
0
0
0
0
0
0
0
0
0
0
0
0
0
0
0
0
0
0
0
0
0
0
0
0
0
0
0
0
0
0
0
0
0
0
0
0
0
0
0
0
0
0
0
0
0
0
0
0
0
0
0
0
0
0
0
0
0
0
0
0
0
0
0
0
0
0
0
0
0
0
0
0
0
0
0
0
0
0
0
0
0
0
0
0
0
0
0
0
0
0
0
0
0
0
0
0
0
0
0
0
0
0
0
0
0
0
0
0
0
0
0
0
0
0
0
0
0
0
0
0
0
0
0
0
0
0
0
0
0
0
0
0
0
0
0
0
0
0
0
0
0
0
0
0
0
0
0
0
0
0
0
0
0
0
0
0
0
0
0
0
0
0
0
0
0
0
0
0
0
0
0
0
0
0
0
0
0
0
0
0
0
0
0
0
0
0
0
0
0
0
0
0
0
0
0
0
0
0
0
0
0
0
0
0
0
0
0
0
0
0
0
0
0
0
0
0
0
0
0
0
0
0
0
0
0
0
0
0
0
0
0
0
0
0
0
0
0
0
0
0
0
0
0
0
0
0
0
0
0
0
0
0
-0.0002360634956
-3.883368405e-05
0.0002361875193
2.959889596e-05
-2.979064848e-05
-0.000235871743
2.940106395e-05
-0.0002272566205
-6.723239478e-05
1.241017698e-05
-2.056711611e-05
3.520754328e-05
-8.187282194e-05
-7.987001698e-05
-2.056593654e-05
-7.866031922e-06
-5.536249222e-05
5.466792143e-05
-5.474307085e-05
2.916994759e-05
-0.0002188008174
0.0002107580092
-0.0002105317389
2.894367728e-05
3.816075472e-05
0.0001249283733
-0.0001248609664
1.939015272e-07
2.41623501e-06
1.131506473e-05
-1.148822347e-05
9.464470703e-05
-9.675162698e-05
9.685293699e-05
1.121375472e-05
1.312241524e-05
6.301916282e-06
-6.250058455e-06
-6.059874951e-05
6.272219719e-06
7.163749586e-06
1.041234695e-05
-1.036952794e-05
1.057241234e-05
5.900636264e-05
6.228199286e-06
9.000779852e-05
-1.326513202e-05
1.158369331e-05
-1.174610703e-05
1.012481394e-05
-1.010142573e-05
-0.0003019898788
0.0003871300433
-0.0004549551479
0.0004223274859
-0.0003824439913
0.0003372512711
0.0003255792975
0.0003204482375
-0.0003126120186
0.0002167502572
-0.0002949692707
0.0002465441385
-0.0001981021176
0.0001516037283
0.0002797579858
0.0002650839551
-0.0001324221277
5.862676087e-05
-0.0001086616055
7.091130073e-05
-3.994084711e-05
1.808476511e-05
8.358607855e-05
7.123777308e-05
1.091584039e-05
0.0001034623376
-1.104425773e-05
-0.0001055519393
0.0001056046847
-0.000105700499
6.618296005e-06
-8.904329863e-06
8.808515578e-06
-9.018124747e-06
-8.754695417e-06
0.0001078204468
0.0001078265813
-0.0001423405076
0.0003261693325
-0.0003649056138
0.0003615957753
-0.0001778735203
-0.0003495148308
-0.000227870505
0.0003301391292
0.0001864988045
-0.0001852488674
0.0001865745004
0.0001848171435
0.0003867505136
-0.0002873443779
0.0002450029694
-0.0003072929318
0.0002774155382
-0.0002482193297
-0.0003096168456
0.0002146484527
0.0002988128016
-0.000308383286
0.0002932524157
0.0003131107348
0.0002773128449
-0.0002585722724
0.0001219052498
-0.0001793836206
0.0001416673574
-0.0001082653441
-0.0001908343472
7.804205941e-05
0.0002190801372
-0.0002354441336
0.0002050111264
0.0002519916111
0.0001297874214
-8.033455811e-05
2.406275236e-05
-5.181441447e-05
3.190711372e-05
-1.51494823e-05
-2.359630062e-05
4.286358603e-06
4.509997863e-05
-5.493437559e-05
3.49673795e-05
6.380720265e-05
2.02984942e-05
6.657784083e-06
1.994981816e-05
0.0001285081985
-1.994981816e-05
-0.0001368168747
0.0001368168747
-1.053649503e-05
0.0001450562159
-1.053649503e-05
-1.123064315e-06
0.0001450562159
-0.0001458392201
0.0001805381082
-0.0002269276183
0.0002178342069
-0.0002047912742
-0.0002224665836
0.00018844822
0.0001853156712
-0.0001862687445
0.0001834272152
0.0001855095579
0.0002402696766
-0.0002602400789
0.0001183581041
-0.0001695556164
0.000146252197
-0.0001227390613
-0.000264484899
9.97461411e-05
0.0002618793227
-0.0002718023822
0.0002504066448
0.0002833564565
0.000154908385
-0.0001944879553
4.698920033e-05
-8.385081275e-05
6.51157586e-05
-4.768141873e-05
-0.0001287529757
3.212702845e-05
0.0001556989324
-0.0001724065443
0.0001362536995
0.0001867023365
6.139244567e-05
-3.916698126e-05
5.650955077e-06
-1.867468251e-05
8.75303639e-06
-2.274512699e-06
-4.357389976e-06
1.069205689e-08
1.468613223e-05
-1.987164822e-05
9.737949676e-06
2.816555025e-05