/*--------------------------------*- C++ -*----------------------------------*\
| =========                 |                                                 |
| \\      /  F ield         | OpenFOAM: The Open Source CFD Toolbox           |
|  \\    /   O peration     | Version:  v2012                                 |
|   \\  /    A nd           | Website:  www.openfoam.com                      |
|    \\/     M anipulation  |                                                 |
\*---------------------------------------------------------------------------*/
FoamFile
{
    version     2.0;
    format      ascii;
    class       volScalarField;
    location    "0.61";
    object      omega;
}
// * * * * * * * * * * * * * * * * * * * * * * * * * * * * * * * * * * * * * //

dimensions      [0 0 -1 0 0 0 0];


internalField   nonuniform List<scalar> 
3019
(
799.3984323
147.8322242
71.46282606
46.28396593
37.07679387
33.49869692
31.80537647
31.14891208
30.74788466
30.59130192
30.50658735
30.46250337
491.9179535
137.1934557
69.51253864
45.76819711
37.02019338
33.54666368
31.80514471
31.11425048
30.68238612
30.51317253
30.41917477
30.37028438
351.1227785
126.4097761
66.08390173
44.80394037
36.77972936
33.51990221
31.77646264
31.06897026
30.61632775
30.4368429
30.33450795
30.28191355
293.6679188
113.098591
61.71279187
43.49171914
36.44323391
33.42475645
31.71846074
31.01097516
30.5445949
30.35787677
30.2495674
30.19328738
219.9394845
96.93689763
56.83823284
42.13075963
36.1317816
33.29504844
31.63736852
30.94143703
30.4680024
30.27680295
30.16322016
30.1044383
167.4646118
83.00018559
52.93357273
41.17083461
35.85129784
33.14254279
31.53758838
30.85736922
30.38172139
30.18791547
30.07188415
30.01093751
140.1817175
75.26099026
51.03907693
40.60911246
35.56869839
32.97496631
31.42471326
30.76218462
30.28869528
30.09440638
29.97693251
29.91490412
130.7741495
72.91593131
50.00405627
40.10848867
35.29487005
32.80053221
31.30262988
30.65750924
30.18692856
29.99276987
29.87477598
29.81231544
124.5850679
71.10895877
49.1705812
39.66512954
35.03489109
32.62461682
31.17419386
30.5450879
30.08015764
29.88772827
29.77007369
29.70766569
119.5229257
69.59808968
48.51426724
39.2788604
34.79128602
32.45065738
31.04158108
30.42666226
29.96593823
29.77486408
29.65792775
29.59605746
115.3046191
68.31045958
47.99050004
38.94921854
34.56593162
32.28103923
30.90671639
30.3038168
29.84974938
29.66142915
29.54572697
29.48463674
111.7347038
67.20078008
47.55812311
38.67073051
34.35990524
32.11744462
30.77122666
30.17802028
29.72736193
29.54047809
29.42593971
29.36586306
108.6680662
66.23468446
47.19089025
38.43448956
34.1728679
31.96090754
30.63635386
30.05046085
29.60643376
29.42261177
29.30958917
29.25057363
106.0013226
65.38667727
46.87381961
38.23193896
34.00329626
31.81177258
30.5029496
29.92218047
29.47935368
29.29632822
29.18444429
29.12656006
103.657634
64.63767952
46.59776086
38.05653831
33.84929553
31.66994959
30.37159262
29.79389229
29.35761091
29.17769396
29.06728524
29.01046562
101.572932
63.97207817
46.35638937
37.90365229
33.70908614
31.53512175
30.24263022
29.66627381
29.22776971
29.04761193
28.93811128
28.88235207
99.69990402
63.37811757
46.14539095
37.770102
33.58118125
31.40691505
30.1162818
29.53961762
29.10848269
28.9314855
28.82326485
28.76843544
98.00794602
62.84789491
45.96168735
37.65350723
33.46429188
31.28492475
29.99266995
29.41442322
28.9760909
28.79763336
28.6900408
28.6361283
96.47448265
62.37490183
45.80240892
37.5517792
33.35723994
31.16874326
29.87186936
29.2906768
28.86266737
28.68744104
28.5808294
28.52765379
95.07890165
61.95184786
45.66420319
37.46283102
33.25889263
31.05794598
29.75392687
29.16892189
28.72591215
28.5481458
28.44193571
28.38951741
93.79960657
61.56990266
45.54302542
37.38444073
33.16811006
30.95208835
29.63892696
29.0489009
28.62311722
28.44823438
28.34260287
28.29070438
92.61235423
61.21907639
45.43435671
37.3143089
33.08377994
30.85077406
29.52714161
28.93165666
28.47703003
28.29961461
28.19427082
28.14298913
91.4930648
60.88921261
45.33364273
37.25019525
33.00483662
30.75356906
29.41937351
28.81725082
28.39293966
28.21607728
28.11083429
28.05983297
90.42773302
60.573651
45.23741392
37.19032779
32.93055361
30.66027941
29.31786293
28.70929947
28.20638547
28.02671087
27.92144479
27.87097085
982.3849876
835.4653442
179.5242721
606.4156567
961.6511777
513.7965574
173.9567433
177.4499887
458.4942296
597.241805
341.9570215
697.6043266
717.1353466
629.6911227
301.4033344
329.7570658
1394.191736
846.3997888
1539.051237
1160.690057
600.149139
804.3353043
367.3928522
158.6086207
170.1556599
523.0939894
576.8789982
1088.052038
275.3154506
292.2598335
612.4972489
554.0896165
6198.906152
2353.452388
1323.379799
644.6309662
4836.293079
3556.794473
1167.537364
4980.822662
6077.487319
3513.663982
4750.321036
6455.205777
2315.764121
3167.358315
1591.53946
2070.14937
5799.684935
6412.966634
2075.579747
6142.956796
5364.716028
162.7243886
84.21815835
1111.297976
3233.586657
2363.354809
4598.729788
2983.837414
1509.994321
858.8903503
6230.689903
6562.943899
6701.265371
5579.553331
6397.131559
1217.813976
1454.286998
5935.827999
5447.069277
6008.430202
5568.228451
6329.192411
6280.042596
6143.854075
3932.646656
5455.09896
5001.310866
6096.211998
6300.13816
4335.620736
4624.429508
5057.307705
6358.124693
5233.61681
3867.806904
4178.601469
5968.648047
4621.018422
4863.91292
3777.63693
4211.974022
6143.996489
71.96079082
50.42240188
46.28723583
38.59075243
37.03808425
34.08078723
708.7099108
468.0183026
505.453737
140.2172158
81.15005045
83.58111317
69.87467597
49.87298348
50.37898907
45.95036833
38.56601984
38.62615976
37.05745002
34.15346358
34.10866369
446.5825122
245.1181451
269.0895429
129.1636301
77.17141683
80.49844735
66.9942607
48.68769637
49.60173247
45.07477615
38.24861583
38.5017697
36.85679133
34.13384391
34.15355669
481.4533881
552.7203097
310.7961316
142.8080096
155.1030034
116.819234
71.65972309
75.95895815
62.9113627
47.01033156
48.31840008
43.8414302
37.79053366
38.14794513
36.53115098
34.02902187
34.11084135
338.4443627
448.6384218
237.4016327
121.8356399
137.951401
100.9932217
65.02326995
70.04422869
58.02134091
45.09277303
46.53482494
42.45327758
37.3018843
37.66199659
36.20028749
33.88165481
33.99412628
225.4473455
304.2552787
177.9227178
101.3381376
116.341881
85.99817008
59.11682926
63.39791572
53.75053165
43.50976441
44.63979789
41.34700151
36.94116085
37.20024342
35.9222195
33.71197108
33.84062651
172.4703611
207.2463977
144.9484966
88.08712108
97.16172483
76.55254708
55.61648291
57.96837766
51.33333574
42.69097444
43.23615334
40.74349406
36.60749691
36.85685061
35.63882502
33.52626983
33.66650811
156.2515731
166.0050968
132.5427452
83.57957369
86.18727872
73.42844721
54.26171796
55.23254164
50.24349093
42.07610929
42.52951303
40.22819828
36.2886753
36.52607242
35.36215849
33.33426044
33.4784803
148.3009822
154.1212009
126.0130022
81.02116705
82.8909796
71.52894934
53.21653645
53.97491916
49.36090083
41.54008176
41.93483394
39.77064847
35.99004678
36.21199426
35.0984268
33.14227804
33.2860759
141.6714719
146.5320173
120.700108
78.89268195
80.45383006
69.95272635
52.40425108
52.99441789
48.66403934
41.08111975
41.41807575
39.37002681
35.7138385
35.91880902
34.85053896
32.95387195
33.09473562
136.0809739
140.1858034
116.2917757
77.08801043
78.41411209
68.61412522
51.75377579
52.22893005
48.11150622
40.69735565
40.97832899
39.02652458
35.46176694
35.64848228
34.62047589
32.77150995
32.90762981
131.3150482
134.8195794
112.5750668
75.54014468
76.67911983
67.46354342
51.2123041
51.60965931
47.65932
40.37943891
40.61219893
38.73602173
35.23477028
35.40265411
34.40958971
32.5970654
32.72709634
127.1994617
130.2311592
109.393802
74.19827118
75.18704385
66.46427291
50.74933551
51.09000631
47.2775408
40.11370962
40.30862229
38.49008567
35.03197793
35.18186748
34.21791631
32.43168639
32.55484275
123.6054766
126.2562468
106.634995
73.02404315
73.89021701
65.58871561
50.34764657
50.64363695
46.94894066
39.88813044
40.0539252
38.27980799
34.85098193
34.98478573
34.04415244
32.27567837
32.3918065
120.4373777
122.7770585
104.2169948
71.98922976
72.75322256
64.8165506
49.99650709
50.2554451
46.66331093
39.69415591
39.83692538
38.09812371
34.68897443
34.80879717
33.88643657
32.128782
32.2381153
117.6119925
119.7020583
102.0728084
71.07095783
71.7495395
64.13139328
49.68813726
49.91564729
46.41374841
39.52600678
39.6498618
37.93995717
34.54343251
34.65112389
33.74293303
31.99046957
32.09341849
115.0640497
116.9510728
100.1502048
70.25107878
70.85733083
63.52037266
49.41687801
49.61700219
46.19547167
39.37984588
39.48750956
37.80181401
34.41232813
34.50936143
33.61207613
31.86015276
31.95715728
112.7521754
114.4654891
98.41522904
69.51722644
70.05995572
62.97482903
49.17886602
49.35438184
46.0052051
39.25299061
39.34640635
37.68118082
34.29402124
34.3816046
33.49254597
31.73726041
31.82875325
110.6466107
112.2078816
96.84402656
68.86022819
69.34614977
62.48815724
48.97082756
49.12418085
45.84010898
39.14316346
39.22402019
37.57592835
34.18705671
34.26626663
33.3831413
31.62122211
31.70762765
108.7223382
110.1501703
95.41573017
68.27073123
68.70697217
62.0533877
48.7890474
48.92309254
45.69698978
39.04807673
39.11810195
37.48398875
34.09006549
34.16192407
33.28272521
31.51147164
31.5932142
106.9543466
108.2681652
94.1089259
67.73777584
68.13272482
61.66204985
48.6289321
48.74719836
45.57196571
38.96522299
39.02632039
37.40317341
34.00167269
34.06721308
33.19015688
31.40742557
31.48494468
105.3123564
106.5366465
92.89912909
67.24885027
67.61207448
61.3043326
48.48517032
48.59169634
45.46060268
38.89191434
38.94611148
37.33119306
33.9205146
33.98075701
33.10431714
31.30854329
31.38223934
103.7605833
104.9257871
91.75820249
66.79024958
67.13236082
60.96945451
48.35211823
48.45116255
45.35824413
38.82543547
38.87476417
37.26576455
33.84526225
33.90119831
33.02411608
31.21427256
31.28456005
102.2617941
103.4056805
90.65588168
66.34695872
66.68095374
60.64563529
48.22391206
48.32010496
45.26013192
38.76311803
38.80961188
37.20465843
33.77461025
33.82723695
32.94847025
31.12402461
31.19136161
100.6943862
101.9589498
89.49953438
65.87770236
66.24996911
60.30165021
48.08691282
48.19446484
45.15560679
38.69868446
38.74852875
37.14215294
33.70327543
33.7579324
32.872031
31.03203781
31.10238693
1027.19793
1231.625821
1170.219379
707.8798248
734.9273709
883.1949719
186.6544537
306.7575508
278.651766
636.0685514
1154.138197
2107.396479
1541.400259
943.2191011
404.8086216
420.433203
561.3634221
169.5258294
245.2214668
234.769377
270.1910617
251.3298473
170.9317955
533.6965725
602.3439689
354.6997755
489.7327767
453.0380027
507.0084822
339.0059765
1831.748911
1294.356492
824.1239306
791.8042538
676.243422
742.8587768
911.8520544
863.8255174
419.8051351
458.5559543
684.1161701
308.9721499
378.0195775
366.9432669
435.850859
394.3085287
319.7078569
2115.721533
1867.627571
1308.382538
3340.612733
3573.627351
5012.956412
883.5801824
1422.200684
1204.239971
1673.534117
2729.370592
2408.667253
839.840272
886.1597171
1394.740214
621.7096456
734.5223982
706.104879
768.0443563
647.8144943
1028.341425
953.7449153
771.8473293
2817.722273
3045.539237
1173.343889
1173.500433
257.257246
266.8160216
425.9805002
162.1636692
201.4720384
196.1612952
228.3550722
207.4356354
166.0267481
538.2519743
629.5447809
608.8331298
677.965115
653.7163986
558.8122244
936.438566
767.560695
802.5617992
278.8786854
336.296775
329.9867274
354.30063
345.9815203
287.0054864
578.0890514
427.0713542
446.2795973
574.7987668
812.7843911
778.6546585
2665.101455
4214.569163
3762.588278
1024.265603
1070.025933
920.6766287
951.498846
1401.566155
663.4778871
760.0232983
741.953292
4395.538247
2982.403297
3344.454707
2352.374808
2644.990622
3918.317183
1221.412997
1667.78691
1519.630177
2554.088645
3660.858604
3341.146049
4491.473479
4075.562496
2848.842221
1714.080505
2549.28404
2356.359179
3028.808637
2785.689635
1904.62648
3365.015547
3053.990385
1864.907833
121.390621
122.7542609
164.9410541
84.75303026
100.5505609
99.68574715
1407.911398
1313.60644
1062.856693
2955.878631
1901.155189
2102.068735
1552.896081
1692.451158
2639.451585
1148.878637
1205.004794
1658.033267
902.2594223
996.9569664
991.8030806
1053.25434
918.575353
2379.966027
2558.386002
1286.214475
1777.710672
1639.104504
2138.001973
1949.806919
1383.067181
33.47700938
32.3515568
31.79310248
31.41778015
31.16763242
30.99134608
764.5888965
659.1298373
681.4385307
145.3369173
117.8486539
119.2619393
71.0360736
62.20289279
62.43117913
46.15076987
43.02474497
43.09025698
37.08663404
35.86748929
35.84752598
33.54376636
32.39893807
32.38010398
31.80787585
31.40969062
31.41526253
31.13743314
30.94477541
30.96992604
476.5068207
377.8855499
390.7657977
134.3811336
110.7130067
112.608703
68.57368066
60.47073203
61.06856533
45.61036474
42.59377621
42.75879028
36.9726304
35.81404456
35.84215556
33.53450208
32.3912814
32.39784438
31.79607557
31.38233049
31.39759243
31.09768068
30.89326132
30.92075649
338.5024037
242.4100882
249.0882528
123.4687077
102.524952
104.7898078
65.10659061
57.85532119
58.59304961
44.50429607
41.82618987
42.0441581
36.70206564
35.63566864
35.68819021
33.4529291
32.34376798
32.37247208
31.75342659
31.3353351
31.36003503
31.04558142
30.83524982
30.86561678
275.1861625
206.4652986
216.8423189
109.1685029
91.71462681
94.64755511
60.4828478
54.44636448
55.35444815
43.14079534
40.83463594
41.08995412
36.35631113
35.40411374
35.46259154
33.32958416
32.25751321
32.30441468
31.68089207
31.2713684
31.30317154
30.9822972
30.76864352
30.80312356
204.1080493
164.361837
174.3468813
93.02817594
79.85989509
82.71335276
55.71846867
50.96191467
51.77575484
41.83421608
39.91789428
40.12280516
36.06266056
35.18001979
35.23748599
33.18307456
32.15115589
32.20666043
31.58941518
31.18950507
31.23178015
30.90374943
30.69152964
30.73152172
158.5601644
132.1956049
138.8881962
80.4139544
70.66531318
72.55950263
52.25446173
48.48979911
48.96912771
41.02349213
39.35091684
39.4711522
35.78027091
34.94054997
35.0013691
33.01813379
32.02735396
32.09108909
31.48253834
31.09390234
31.14281303
30.81334608
30.6036563
30.64862841
136.5290042
115.5281157
118.1332048
74.55118707
66.45585092
66.99234829
50.76082948
47.40728684
47.6358372
40.47844642
38.89484135
39.00499843
35.49913721
34.69645384
34.75730373
32.84465483
31.89193154
31.9607481
31.36463305
30.98712703
31.04142313
30.71266956
30.50648278
30.55599496
129.1010084
110.0925316
111.3319705
72.43023371
64.72113189
65.11152246
49.77724539
46.58690279
46.77819769
39.992316
38.48040914
38.580097
35.22844346
34.45704644
34.51615673
32.66863586
31.74977546
31.82145721
31.23906877
30.87169
30.93010151
30.60346537
30.40095613
30.45457124
123.2266596
105.7056489
106.7246969
70.70702699
63.36973136
63.68084461
48.9914041
45.91184511
46.06734582
39.56314572
38.10780587
38.19701879
34.97236007
34.22697875
34.28347212
32.49389074
31.60423741
31.67726463
31.10828569
30.74989057
30.81128029
30.48747826
30.28861069
30.34549479
118.397933
102.0630944
102.9141873
69.25722687
62.26023209
62.51971658
48.37271069
45.37067434
45.49470737
39.19124411
37.77785321
37.85628542
34.73316498
34.00882549
34.06213822
32.32298342
31.45771173
31.53097463
30.97432263
30.62374273
30.68712898
30.36638807
30.17067433
30.23028189
114.3577559
98.99644477
99.71632143
68.01783289
61.32030147
61.54183587
47.8750971
44.93630496
45.0366343
38.87511224
37.49079248
37.55864513
34.51259355
33.80448402
33.85419516
32.1577417
31.31204164
31.38467034
30.83896351
30.49489482
30.55947826
30.2417001
30.04887094
30.11025191
110.925547
96.38277261
96.99938833
66.94691117
60.51050398
60.7023369
47.46091999
44.578748
44.66227543
38.60806188
37.24347331
37.30187146
34.31140458
33.61509653
33.66102182
31.9993721
31.16863963
31.23998886
30.70365189
30.36470911
30.42983532
30.11474424
29.92408202
29.98692029
107.9672353
94.12707577
94.66158994
66.01242619
59.80483973
59.9725831
47.10733113
44.2766195
44.34777233
38.3809771
37.0301283
37.08062056
34.12890554
33.4406625
33.48291053
31.84837248
31.02841677
31.09809332
30.56942588
30.23424176
30.29941289
29.9866108
29.79791261
29.86127321
105.3878414
92.15991326
92.62771601
65.19079642
59.18520858
59.33283822
46.80123355
44.01697157
44.07839368
38.18574635
36.84478096
36.88877979
33.96340509
33.28025273
33.31910711
31.70474009
30.89187771
30.95966615
30.43698878
30.10430003
30.16913272
29.85817397
29.670555
29.73453547
103.1144211
90.42811419
90.84156552
64.4639955
58.63804206
58.76868463
46.53435742
43.7917883
43.84518051
38.01634417
36.68257656
36.72117457
33.81300911
33.13261197
33.16839538
31.56819672
30.75925607
30.82507174
30.30679194
29.97546023
30.03969275
29.7301021
29.54361586
29.60719071
101.0863023
88.88768039
89.25680653
63.81723591
58.15240531
58.2685239
46.3009201
43.59574125
43.64223493
37.86854874
36.5399187
36.57390361
33.67600576
32.99649787
33.02950666
31.43836712
30.63062028
30.69444276
30.17910988
29.84813893
29.91158082
29.60288106
29.41639463
29.48023604
99.26092764
87.50659483
87.83821429
63.23984704
57.72050046
57.82375466
46.09701055
43.42530625
43.46566495
37.73944288
36.41421404
36.44416887
33.55097
32.87081975
32.90131663
31.31485995
30.5059503
30.5678024
30.05410376
29.72260593
29.7851391
29.47687734
29.29091184
29.35361615
97.61051035
86.26336886
86.56223989
62.72454243
57.33693116
57.42856096
45.91969287
43.27781358
43.31267681
37.62675611
36.30339335
36.32980792
33.43664599
32.75457953
32.78280836
31.19726659
30.38514933
30.44509735
29.9318458
29.5990572
29.66061499
29.3523186
29.16525541
29.22833618
96.11337621
85.14085432
85.41110555
62.26479211
56.9966671
57.07798234
45.76603084
43.15063397
43.18068288
37.52842694
36.20559556
36.22892502
33.33187965
32.64684613
32.67303274
31.08516591
30.26810074
30.32623174
29.81235307
29.47758339
29.53817564
29.22940304
29.04258473
29.10379529
94.74865806
84.12215006
84.36817755
61.85289949
56.69361796
56.76627208
45.6324886
43.04070295
43.06675515
37.44233309
36.1189545
36.13967294
33.23553093
32.54669011
32.57106915
30.97810959
30.15464224
30.21112252
29.69554203
29.35821115
29.41798182
29.108135
28.91899217
28.98135338
93.49368371
83.18882546
83.41570699
61.47967109
56.42041919
56.48637
45.51487345
42.94446572
42.96744854
37.36622452
36.04154078
36.06013526
33.14646493
32.45319028
32.47598949
30.87570063
30.04446856
30.09972209
29.58119214
29.24073972
29.30017578
28.98846656
28.79985178
28.85972281
92.32197643
82.31989239
82.53408569
61.1347573
56.1687866
56.23022426
45.408594
42.85808419
42.87897134
37.29779981
35.97141411
35.98836704
33.06357768
32.3654579
32.38689822
30.77750111
29.93692297
29.99208606
29.46873305
29.12470545
29.185139
28.86981731
28.67733395
28.74131481
91.20440293
81.49236292
81.70383009
60.80706984
55.92999856
55.98966973
45.30900343
42.77771947
42.79752727
37.23482592
35.90670455
35.92248903
32.98580608
32.28262971
32.30293327
30.68301781
29.83027235
29.88887447
29.35666853
29.00859459
29.07369102
28.750842
28.56008796
28.62437794
90.10707086
80.6780762
80.91350125
60.48208679
55.69265339
55.7591142
45.21035144
42.69874231
42.72014642
37.17463019
35.84511152
35.86104177
32.91157698
32.20329329
32.22355512
30.58633253
29.71692374
29.7929034
29.23666779
28.88361802
28.96823576
28.62195012
28.42320928
28.51517995
181.6091058
205.2952869
202.3762353
621.9413343
712.0444785
698.0383262
1097.192032
1079.460359
906.9549541
198.9724077
196.5681885
175.0206979
404.1592637
359.1245349
554.810467
567.446019
644.4222944
976.6774878
1019.494005
1220.453214
1709.245504
1821.941572
1071.523503
905.2663461
956.2993077
601.0139651
531.2045142
542.7919768
1468.420695
1570.887187
62.74149313
62.80193282
72.14399
50.40215372
55.78094239
55.77458156
43.07616652
43.0563963
46.26129751
38.56864074
40.53762117
40.56975737
35.81382871
35.78383806
37.01361876
34.04763232
34.81380037
34.84387675
618.5753782
636.9010881
734.2244816
480.0696547
551.8015675
537.7386384
587.8475261
570.1732668
492.3563129
114.6996749
115.7393362
141.9892689
82.16445499
96.5618445
95.56735882
98.63745563
97.70455638
82.8437703
61.42935423
61.86695579
70.58024251
50.097963
55.19970484
54.94290932
55.63455826
55.45108392
50.19413665
42.88362976
42.96167323
46.09629551
38.58270356
40.51112167
40.46838346
40.58579262
40.57083419
38.62508243
35.85601554
35.86003428
37.06370245
34.14583397
34.90773701
34.90402442
34.87665764
34.89867126
34.13270509
356.1369129
367.387501
456.208298
318.6584483
312.9770586
262.5563142
106.8895125
108.8236783
131.7963278
78.30306694
91.50121964
90.03701045
94.28286396
92.8918911
79.34620186
59.26685218
59.87583639
67.81990921
49.0171204
53.76229008
53.31440831
54.55761286
54.2790855
49.4447416
42.24109461
42.47067479
45.34143344
38.38442279
40.19324849
40.011931
40.37652723
40.26207426
38.42496507
35.74703665
35.77435276
36.93184837
34.14093776
34.86714294
34.85265924
34.900788
34.88629536
34.14840458
509.1092309
529.9719187
226.4408642
234.9880041
325.8257841
147.2835715
181.79736
176.0523084
191.5738816
186.9429271
151.3661384
97.44804365
100.0796316
120.2809997
73.20133286
84.85960501
82.8511607
88.47086627
86.73709805
74.6431396
56.23509124
57.0694628
64.04999484
47.47231356
51.67285273
51.05242011
52.81331264
52.26409009
47.91102219
41.34335015
41.59108618
44.18132324
37.91657699
39.54399234
39.36596468
39.87033854
39.71366461
38.03688621
35.52061647
35.57975778
36.61871036
34.05896781
34.74489716
34.70461434
34.81612556
34.78224333
34.08794807
375.0830921
412.2698293
184.8728043
195.677551
256.0623943
127.3568008
155.6652434
148.3079112
169.7105095
162.8642837
132.7698979
85.68169787
88.70509983
105.105483
66.69475259
76.27468618
74.02649239
80.72924574
78.524112
68.3797117
52.6390347
53.53533831
59.24445992
45.56823029
49.07551287
48.42025854
50.40911841
49.74454893
46.05464775
40.34877299
40.58820229
42.79485705
37.41306242
38.82555038
38.6619645
39.18349014
39.00241405
37.5354035
35.29289466
35.34859668
36.27571213
33.92031674
34.57544487
34.52893854
34.66337878
34.62046637
33.95901476
247.4650924
273.7659805
146.541637
155.0442275
190.1117941
105.9735964
127.094011
120.8596347
140.9728672
133.8560151
111.0173233
74.73571473
77.18808138
89.35903336
60.41657645
67.75879542
65.96308014
71.82794733
69.72436284
61.85363707
49.54460523
50.21425989
54.68243005
43.83962375
46.66763757
46.19416692
47.79212968
47.20422044
44.21919888
39.59524673
39.74080475
41.57074878
37.02559907
38.25475892
38.15155605
38.50660265
38.37106653
37.11037295
35.06172619
35.12136531
35.99277775
33.75605835
34.38331326
34.33232995
34.48152856
34.43312067
33.79923257
181.3646633
192.6929251
121.7856439
126.4658506
151.1123137
90.48304352
106.1163721
102.7794917
115.2158134
110.3144294
93.55788243
67.86094776
69.10816363
78.24223755
56.20473279
61.89285173
61.00176398
64.37583895
63.00263687
56.99754047
47.87444979
48.13238315
51.70336691
42.85768191
45.23925739
45.0356338
45.79116853
45.47052664
43.03125384
39.11776878
39.23308814
40.88161886
36.68984709
37.85173897
37.75467674
38.05032787
37.95033751
36.77302769
34.81835766
34.8794898
35.70939778
33.57353711
34.17454115
34.12100676
34.2803774
34.22772312
33.62046784
158.4952485
161.1077904
112.6374424
114.0151034
134.4179675
84.30658596
97.39571769
96.41657068
100.1443233
98.44879943
85.08746564
65.52852525
65.97540617
73.97128551
54.56650706
59.62642054
59.25846729
60.44437018
60.01999787
54.88984082
46.97863538
47.1882821
50.49572189
42.22223183
44.47067222
44.29613298
44.84021014
44.65198104
42.37334456
38.68239267
38.78730183
40.35150553
36.36660696
37.47377089
37.38373541
37.65927424
37.56563181
36.4457672
34.57579788
34.63592616
35.43027185
33.38242001
33.95980777
33.90620304
34.06729684
34.01352047
33.43056313
150.1519355
152.0902192
107.7930314
108.9143119
127.5163286
81.61482878
93.74534717
92.93421158
95.48383267
94.59439336
82.23725078
64.00835406
64.35431131
71.96874082
53.45324358
58.29326002
58.01156106
58.91478459
58.59369519
53.70574187
46.23156574
46.40470758
49.56298483
41.66686278
43.81241173
43.66431568
44.12828773
43.96706999
41.79845656
38.28886239
38.38332657
39.8797162
36.06266446
37.12491837
37.04243724
37.295574
37.20930379
36.13666136
34.34066336
34.39853792
35.1629571
33.19005047
33.747032
33.69465425
33.8528528
33.79976064
33.23799537
143.2216574
144.8403688
103.8033013
104.7328684
121.9333369
79.39121161
90.7063565
90.02556272
92.15876956
91.4167886
79.91110961
62.79045669
63.07340485
70.32205442
52.58950106
57.26070759
57.03641891
57.74675078
57.49700636
52.78583892
45.62593112
45.76482919
48.82283132
41.18862309
43.25933765
43.13716165
43.52280725
43.38783962
41.30093714
37.93742551
38.02126852
39.46478878
35.78068649
36.80670069
36.73208551
36.9618978
36.883311
35.84902069
34.11628398
34.17124347
34.91090802
33.00049917
33.54031055
33.48986789
33.64273882
33.59126204
33.04745552
137.3938301
138.7610468
100.4661451
101.2477533
117.321955
77.51282934
88.14523268
87.56758578
89.37280854
88.74652673
77.95456196
61.77194977
62.01120244
68.92950102
51.90454602
56.42469704
56.23818982
56.82298927
56.61938602
52.06268668
45.14214857
45.25332374
48.23870227
40.78662207
42.80658777
42.70738899
43.0211552
42.91106985
40.88022851
37.62906791
37.70212066
39.10716666
35.52244071
36.52050493
36.45407817
36.65950725
36.58898215
35.58468729
33.90483137
33.95638312
34.67622635
32.81642527
33.34213887
33.29415497
33.44002066
33.39075916
32.86180011
132.439362
133.6066569
97.63955044
98.30468136
113.4486497
75.90600236
85.96425984
85.46910838
87.01237202
86.47835342
76.28544438
60.90098102
61.1068147
67.73571237
51.33940428
55.72201637
55.56274752
56.05927802
55.88739988
51.47173247
44.74949393
44.84071223
47.76484969
40.45347936
42.43820604
42.35681293
42.61316164
42.52355698
40.53100114
37.36249102
37.42542887
38.80409597
35.28917785
36.26700312
36.20858418
36.38970773
36.32736799
35.34513973
33.70789061
33.75571041
34.46048063
32.63985916
33.15441011
33.10926079
33.24687185
33.20028102
32.68320553
128.1752833
129.1851722
95.21502171
95.78837497
110.1457885
74.51672573
84.0870992
83.65791169
84.99183563
84.53147146
74.84613681
60.14592699
60.32513322
66.70155848
50.85880321
55.11817054
54.98003109
55.40923881
55.26115451
50.97228645
44.42171799
44.49863738
47.36748062
40.1759635
42.13360205
42.06534342
42.27909602
42.20478103
40.24087705
37.1329454
37.18719529
38.54789824
35.08052071
36.04446771
35.99324622
36.15206573
36.09738603
35.13047209
33.52605343
33.57011063
34.26408589
32.47215428
32.97830355
32.93612767
33.06486625
33.02121066
32.51320277
124.46075
125.3437347
93.11096634
93.61050776
107.2899493
73.30356986
82.45433705
82.07890826
83.24318373
82.8422109
73.59214861
59.48517756
59.64244855
65.7972212
50.44298019
54.59257279
54.47170237
54.84653151
54.71745222
50.54159291
44.14206055
44.20809548
47.02673927
39.94128468
41.87634657
41.81805586
41.99983241
41.93689117
39.99650825
36.93428566
36.98137745
38.32945763
34.89434443
35.84915767
35.80408094
35.94366826
35.89566447
34.93893045
33.35877789
33.39929247
34.08601462
32.31381474
32.81401749
32.77473027
32.89470036
32.85399884
32.35251706
121.1942643
121.9736095
91.26755969
91.70677155
104.7933885
72.23618336
81.02218809
80.69134339
81.71546776
81.36339603
72.4907304
58.90331218
59.04209212
65.00084439
50.08001162
54.131736
54.02541478
54.35472469
54.24145862
50.16628826
43.90045422
43.95768708
46.73110345
39.74003915
41.65567772
41.60534929
41.76192863
41.70784095
39.78760246
36.76103779
36.80221917
38.14116943
34.72784103
35.67694946
35.63707128
35.76039757
35.71804162
34.76776996
33.20491622
33.24219508
33.92446334
32.16468046
32.66102436
32.62444231
32.7361521
32.69825397
32.20111879
118.2903473
118.9865646
89.6363052
90.02655296
102.586377
71.2906931
79.75626058
79.46226108
80.37038352
80.0588308
71.51679077
58.38810241
58.51122633
64.2953018
49.76156241
53.72563093
53.63168482
53.92237863
53.8224935
49.83737286
43.6903765
43.74020524
46.47304751
39.56585608
41.46467689
41.42098398
41.55679183
41.5099268
39.60712371
36.60898511
36.64519302
37.97750334
34.5783914
35.52432205
35.48888452
35.59837238
35.56080559
34.61427897
33.06318656
33.09754747
33.77756446
32.02427595
32.51850924
32.48441127
32.58850909
32.55320239
32.05858647
115.6777091
116.306321
88.1787263
88.52844153
100.6121901
70.44758764
78.62811242
78.36506083
79.17642588
78.89847812
70.64960509
57.93010518
58.03962689
63.66670812
49.4814429
53.36648015
53.28335995
53.54056189
53.45219157
49.54813345
43.50749678
43.55084045
46.24729947
39.41448044
41.29880132
41.26087889
41.37880489
41.33809674
39.45035614
36.47508334
36.50698796
37.83461693
34.44384277
35.38855054
35.35698509
35.45446461
35.4210341
34.47617942
32.9324179
32.96413924
33.64367702
31.89201383
32.38560918
32.35378903
32.45090394
32.41797559
31.92434352
113.3099679
113.880623
86.86886474
87.18357717
98.83279962
69.69315329
77.61744801
77.38143049
78.10907591
77.85992607
69.87400824
57.52297603
57.62026387
63.10544673
49.23542878
53.04895284
52.97560049
53.20277427
53.1246581
49.29391757
43.34885043
43.38637921
46.05029803
39.28301969
41.1550152
41.12222778
41.22430155
41.18902794
39.31414733
36.35706183
36.38518654
37.70981472
34.32247865
35.2675568
35.23940474
35.32631814
35.29651949
34.35166607
32.81157966
32.84091137
33.52143197
31.76731926
32.26152877
32.23179397
32.32251292
32.2917638
31.79781237
111.1554751
111.675218
85.68805096
85.97209715
97.22269841
69.01776971
76.71010309
76.49796212
77.1516691
76.92791907
69.17966994
57.16173433
57.24802114
62.60466569
49.02021618
52.76903198
52.70445773
52.90454155
52.83570001
49.07131073
43.21186328
43.2442242
45.87918625
39.16914465
41.03087169
41.00262167
41.09063608
41.06019547
39.196084
36.25298142
36.27779392
37.60090949
34.21280824
35.15958523
35.13443488
35.21204474
35.18544589
34.23920355
32.69970726
32.72688422
33.40960361
31.64961864
32.14550585
32.11767187
32.20255555
32.17379513
31.67841608
109.1885758
109.6633181
84.61960437
84.87719924
95.76077668
68.41237185
75.89350202
75.70196165
76.29129756
76.08984126
68.55769977
56.84091938
56.91768317
62.15765883
48.83226969
52.52249583
52.46549395
52.64189769
52.58126702
48.87692455