/*--------------------------------*- C++ -*----------------------------------*\
| =========                 |                                                 |
| \\      /  F ield         | OpenFOAM: The Open Source CFD Toolbox           |
|  \\    /   O peration     | Version:  v2012                                 |
|   \\  /    A nd           | Website:  www.openfoam.com                      |
|    \\/     M anipulation  |                                                 |
\*---------------------------------------------------------------------------*/
FoamFile
{
    version     2.0;
    format      ascii;
    class       volScalarField;
    location    "1.53";
    object      omega;
}
// * * * * * * * * * * * * * * * * * * * * * * * * * * * * * * * * * * * * * //

dimensions      [0 0 -1 0 0 0 0];


internalField   nonuniform List<scalar> 
3259
(
30.47461637
30.50132766
30.54614614
30.62929104
30.75687062
31.00088735
31.49822354
32.31775146
33.80941193
36.78167477
45.80557554
110.6146133
30.38391717
30.41346757
30.46463344
30.55809003
30.70487838
30.98691247
31.55244964
32.44066857
34.03363022
37.23734278
47.72072156
155.4645901
30.29883654
30.33118213
30.38788453
30.48993942
30.6477994
30.95643742
31.574043
32.57097762
34.34877031
37.84956524
49.54087879
406.5370205
30.21384943
30.24873851
30.31025801
30.42053233
30.58946631
30.91971018
31.57959774
32.73242765
34.89051823
39.18968634
55.07704437
746.8703253
30.13127867
30.16868501
30.23399178
30.35014015
30.52748679
30.87446356
31.5697379
32.86063945
35.65842953
42.09680186
82.35038643
978.2249185
30.04474031
30.08435011
30.1528722
30.27458661
30.4602677
30.81945935
31.54128055
32.89281305
36.35054748
47.73527691
210.3943975
688.6355018
29.95872666
30.00046467
30.07147832
30.19638571
30.38693138
30.75457899
31.49651437
32.89408823
36.61080434
54.4784029
389.5452375
375.4708905
29.86610313
29.90950083
29.98277529
30.11129855
30.30743199
30.68062278
31.43780376
32.87374983
36.8349089
59.12074725
401.542415
302.7217615
29.77421366
29.81902651
29.89398769
30.02392062
30.22194777
30.59877399
31.36769563
32.83751199
37.06436668
63.54853915
392.1737812
270.8474505
29.67431542
29.71994707
29.79646201
29.9289587
30.13106018
30.51026682
31.28847952
32.78970978
37.32581115
67.03500351
376.5825038
249.2603623
29.5772064
29.62336341
29.70075942
29.83335227
30.03521899
30.41628252
31.20229236
32.73489963
37.6719382
69.49409705
358.2757601
233.1990612
29.47096349
29.51713468
29.59538894
29.72988855
29.93531593
30.31792327
31.11127187
32.67927959
38.12882327
71.11183113
338.873438
220.6316738
29.37087097
29.41687632
29.49528848
29.62872934
29.83195729
30.21627701
31.01759258
32.63079919
38.64427288
72.08148547
319.4448465
210.5128314
29.25967136
29.30517593
29.38395574
29.51909015
29.72626462
30.1123783
30.9232111
32.59626655
39.14226216
72.5540514
300.5124735
202.047757
29.15920464
29.20416717
29.28264006
29.41582161
29.61868573
30.00715558
30.82977498
32.57908292
39.57761673
72.62334456
282.4451784
194.7332164
29.04389864
29.08811577
29.16669069
29.3018029
29.51032183
29.90133949
30.73854828
32.57751531
39.93331292
72.37681107
265.3540729
188.2873666
28.94561751
28.98915421
29.06719588
29.19966852
29.40113268
29.79548637
30.65043771
32.5869937
40.21379493
71.90962705
249.4526297
182.4987956
28.82609934
28.86880675
28.94679823
29.08166146
29.29224705
29.69003264
30.56597737
32.60279239
40.42981355
71.30356339
234.704462
177.1772845
28.7326801
28.77470823
28.85212423
28.98389721
29.1830715
29.58535335
30.48535807
32.62030817
40.58753638
70.57640003
220.9574711
172.2302052
28.60773439
28.64892245
28.72614662
28.8606074
29.07509093
29.48180873
30.40852092
32.63604588
40.69291339
69.75195913
208.1731415
167.6324338
28.52237664
28.56296425
28.63972629
28.77128467
28.96707514
29.37975709
30.33525727
32.64781343
40.7537034
68.86959886
196.395232
163.3413339
28.38946022
28.42921318
28.50561182
28.63915066
28.8614714
29.27970153
30.26531956
32.65441953
40.777864
67.96118487
185.5991283
159.2941914
28.31616628
28.35546806
28.431611
28.56431899
28.75653265
29.18243172
30.19875756
32.65520727
40.77052099
67.03746859
175.6946963
155.4512187
28.14675393
28.18509714
28.26079409
28.39509002
28.65733947
29.08960542
30.13659608
32.65024136
40.73729615
66.12002967
166.6939426
151.8032963
109.5691311
136.2518519
45.56430293
92.61090036
47.47148449
112.7719381
94.15975389
118.6769682
1081.933805
720.310954
151.8330913
709.865337
1052.018632
8562.304564
1090.599013
119.9816033
1692.683199
7704.738149
1060.431899
1665.587801
4664.345142
775.3279398
227.0868234
240.0619557
211.5058805
222.1972952
772.3939943
569.0786016
198.2181094
207.8557442
195.2358152
560.6234267
743.752369
756.028565
245.625275
256.1159916
1333.538894
2693.345354
1995.388092
3055.38063
1094.659153
6770.123329
3315.091053
5844.299425
1090.769154
4278.722731
2474.537756
49.07624044
116.4480835
115.3239443
168.5158269
4233.778475
7935.682441
999.6063554
407.1906554
425.395703
6548.969578
3452.828771
722.3406375
891.7516383
8679.649275
321.7458197
363.5146932
432.1347743
448.360939
1097.447197
2266.451846
1708.555299
8353.044188
2064.369958
1874.976592
15899.00433
1070.182737
1586.474106
380.8976686
400.9751417
910.9972606
745.7861036
361.604904
375.9077027
728.9033067
808.3320386
1136.752858
459.8657565
501.4788042
6278.85129
7096.689637
1779.973946
7691.337558
5657.912945
2549.510994
1071.718554
6756.640507
4087.192714
7477.871774
4508.887102
1530.084071
344.3971147
357.3292159
740.8340278
633.1616085
326.7248262
340.1079639
1624.03925
1602.7596
1030.19351
1695.661663
1065.275009
1656.668859
1644.038036
1664.95898
311.1280467
322.5069133
606.1148758
543.7432641
298.7994631
307.9326088
1058.498209
1058.524817
740.7346803
758.3452369
1065.680578
1069.895058
1408.969741
928.1781136
916.0338891
12002.22775
2203.663757
2364.558791
5129.847527
4333.854634
1721.029665
1700.946528
1081.07166
6544.747374
7115.591413
6808.838748
5407.92025
1146.332254
1764.052151
1710.757855
3333.794432
1624.814657
1637.669182
2053.900162
978.6498322
1560.105565
1500.772572
828.100252
1151.941195
13014.97019
1099.598495
763.581523
766.3615229
1712.981647
8021.245997
8306.931079
9600.913813
6207.024172
5917.340656
1671.561703
1660.499557
1065.907959
1631.679936
1666.83674
1667.904055
1651.256062
1654.493226
1108.54524
1119.723126
785.7103221
1724.594997
1632.953913
1684.208571
1675.50578
791.5273649
795.9019107
1138.883096
6135.735975
8870.479236
9185.581853
8860.564888
8787.017042
6743.262769
1730.227554
6727.348272
4938.529801
5315.474337
1079.154057
1693.193925
1678.697487
6710.868657
7339.755795
7102.787089
5852.535865
6360.574983
7786.803088
7409.335137
4875.2243
7009.070088
6096.003589
2084.874665
1681.880601
1135.645342
32.29997744
33.31963475
33.76389532
35.70578706
36.68918995
42.01495868
32.41566681
33.50289714
33.35341157
33.98031653
36.06570635
35.79121772
37.13388279
43.22132553
42.19585804
46.22380525
54.61014262
53.37601665
113.9682842
179.5374377
171.9880868
32.53582759
33.73164135
33.54831994
34.25055301
36.49521516
36.15224986
37.6371385
44.22046947
43.43132176
48.16226825
56.43887423
58.13721347
157.5459572
290.7749979
264.304109
32.69240713
34.1131021
33.81131227
34.7303284
37.37156884
36.67137528
38.70459454
46.81222754
44.54608639
53.4095593
169.7286455
127.469136
612.6550774
32.83853303
34.64027101
34.23429836
35.45425028
39.1263301
37.7300245
41.11409045
55.1903205
48.13697498
69.76811353
522.9004656
230.177468
1003.166282
32.88856048
35.10597237
34.77714622
36.21660055
42.07823098
39.75990005
46.00275657
93.85939838
61.11583043
161.4473025
797.4653891
692.7394245
778.4425686
32.89565597
35.26163934
35.16201599
36.55374931
45.28770461
42.96925562
53.30746977
185.2561011
115.6299123
355.6670342
629.6630749
767.0586098
424.9086118
32.88052586
35.3696394
35.29044117
36.77898909
47.30418207
45.77258778
57.94257588
215.4713223
203.0530616
402.0462615
510.6236722
588.0069012
313.3237064
32.84782023
35.46540092
35.39423338
37.00546193
49.65105538
47.8544676
62.51198264
221.4215837
217.6884281
395.3299494
445.5221598
492.6712363
277.5636867
32.80250936
35.56079795
35.48870983
37.25488065
52.21096717
50.28780341
66.26567785
221.7923604
221.9249857
380.8120345
395.3000009
431.7267693
254.0234284
32.74894982
35.6762882
35.58651556
37.57462775
54.49542143
52.82492543
68.96511214
218.7108359
221.3120042
362.9892592
356.3506734
384.6485941
236.8363536
32.69283561
35.84541713
35.71225264
38.00602231
56.24203351
54.98417113
70.7760759
213.1335358
217.5137581
343.7535243
325.6287062
348.0019415
223.5022727
32.6418189
36.0847808
35.89882826
38.51440992
57.48430697
56.59494721
71.89089813
205.9790397
211.4498181
324.2548673
300.8331716
318.9497428
212.864068
32.60330877
36.37181118
36.15355152
39.02245127
58.32728488
57.72866768
72.47531392
197.9845713
204.0400028
305.1624853
280.5288066
295.38242
204.040714
32.5817756
36.6667633
36.44618536
39.47596345
58.85049025
58.48558144
72.63627208
189.5661477
195.9024442
286.8581379
263.6810529
276.0411166
196.4722213
32.57679522
36.93821208
36.73762324
39.85186098
59.10625238
58.93676445
72.46424598
181.0152221
187.4279964
269.5023091
249.4434808
259.9098599
189.8274424
32.58383913
37.17206355
37.00027903
40.15004207
59.15713929
59.13527936
72.04081254
172.7028834
178.8992456
253.2845564
237.2517555
246.2375199
183.8937792
32.59852423
37.36682593
37.22430109
40.38143491
59.07051612
59.14772539
71.4667727
164.820884
170.6948547
238.2548254
226.5973982
234.4780975
178.4655848
32.61599014
37.52288971
37.4093585
40.55327701
58.86563761
59.02944367
70.76836637
157.3086507
162.914477
224.2475364
217.1313818
224.1548998
173.4246463
32.63242584
37.64157477
37.55586446
40.67105103
58.56021882
58.79749286
69.96486729
150.1691027
155.4962135
211.1932413
208.6442748
214.961449
168.7344657
32.64532706
37.72640101
37.66568605
40.74215242
58.17889563
58.47060855
69.09276592
143.4781576
148.4696256
199.1136129
200.9750765
206.7140122
164.3601427
32.65330722
37.78189669
37.74276074
40.77480409
57.74742178
58.07487232
68.18822796
137.2829502
141.9208577
188.0114669
193.9576198
199.2537358
160.2334296
32.65548712
37.81179382
37.79159033
40.77493565
57.27786485
57.63378183
67.26306694
131.514569
135.8751571
177.7720341
187.4538807
192.4269975
156.2968834
32.65195593
37.81918901
37.81561705
40.74687006
56.77670864
57.15814589
66.32188296
126.1333174
130.2737418
168.3549279
181.3666339
186.1197352
152.5130857
32.64157183
37.80670307
37.81819244
40.6920156
56.22226204
56.66376328
65.32096892
120.8449501
125.1350571
159.2105792
175.2613185
180.269055
148.6273499
169.5069157
162.7380086
106.5469427
257.4972193
240.6318046
134.4034722
1235.793574
52.95918847
51.63634087
45.19797988
88.48496727
57.12294817
58.50369669
57.72395461
55.01326384
46.39639534
101.0683874
61.17866881
65.07424837
58.99984474
60.64039923
98.85193685
190.893811
182.5293681
115.1162122
1076.918995
727.7595564
737.2190623
530.4250392
537.8450146
728.2370043
3203.000688
3787.468142
177.7791401
2977.605844
2417.620112
1149.829833
1020.205032
692.9809854
512.0092364
522.3847275
296.2247337
537.4062992
105.6447297
160.6344069
12353.18743
1219.580786
2127.612072
747.6320873
752.2761209
1091.215292
123.6917479
204.194937
194.8958504
5695.467751
5882.141435
9784.319742
587.727595
601.8798345
803.8180839
230.2654737
300.853122
296.2951766
342.8654695
320.3894684
236.1155637
214.7955237
276.4189984
271.4048767
287.8549362
282.9760624
218.9080263
758.6153446
570.7266646
580.0700775
448.8080823
455.0301955
575.6334318
201.3067667
255.3523465
250.7267095
265.699377
260.5740812
204.6054531
189.5403581
238.3648133
246.3696138
242.2854
192.3526703
555.6799779
437.6465384
442.7846106
248.217693
364.6374401
349.3370921
400.9321952
373.127406
257.2336996
2103.620398
2785.700637
2705.230031
4019.030951
3749.465518
2902.471321
3513.764975
4684.780143
4309.037449
3916.04762
3058.834403
58.18791508
57.35828796
48.55995984
124.9815457
74.99197022
76.33675685
65.73172246
66.18120917
122.6070876
308.9293715
266.0207484
162.1782205
4578.390147
928.7307469
1149.080304
383.5576718
328.1169541
6894.399343
682.0878308
708.7343054
1051.525177
413.3619305
524.3121175
511.6298893
543.4862773
536.0383249
420.1111602
4836.626354
1347.94656
1908.633134
1654.698477
1850.296671
3909.855316
1047.640976
1044.860049
716.6656884
3399.257885
4926.623036
13125.06771
336.6354979
586.4433401
539.8814866
654.8369509
602.8557681
351.1308125
436.735442
557.8429667
552.7757315
572.0439886
567.9403892
444.4924481
1916.03299
2301.039575
3803.086785
3527.952505
4416.391067
4895.209802
2479.707461
13123.03829
12163.47419
387.0235206
473.2405541
464.8911688
496.7628098
484.4131337
393.241738
827.4292391
620.1397683
647.1555118
556.9937268
564.7527133
754.6710533
366.4176832
445.5530889
439.5626285
457.9336116
451.3718688
370.8453856
733.1796687
1052.869648
1052.341653
463.2976902
592.9443783
588.8075168
656.9944067
662.5017063
503.8824407
4303.901747
4525.923573
6077.640222
2674.762221
3524.956315
3314.031585
5585.564683
5091.631338
3831.201818
348.7484389
423.0430769
417.3355689
434.0791653
428.4078704
352.8828863
733.8043724
544.0232681
551.0384875
485.4444276
499.3786553
666.5731746
331.2410133
397.9276722
390.6665697
411.4448438
404.9774308
335.7279048
314.7576919
372.2207852
367.2838769
383.8726308
377.6197855
318.3650384
589.3698394
463.0403095
473.2520974
427.3582297
432.2224765
548.8320478
301.7233468
353.4934852
348.9452768
362.5971369
358.05005
304.6421321
3131.720359
2953.12924
2196.626917
4896.847402
3847.518753
3967.457802
3498.950424
3593.320048
4625.488769
3597.137382
1075.280076
2161.597904
1527.332431
2273.573452
2189.837558
1126.216425
13369.54878
4938.794235
5037.072414
9232.326158
10958.89719
8374.554544
6791.376598
8879.049298
8469.779369
8576.241984
9538.1797
6800.911495
30.79030176
30.89037599
31.02433778
31.21320469
31.49932264
32.03761219
30.73201381
30.84667456
30.85627547
31.00127359
31.22079308
31.20580408
31.53916395
32.13130062
32.0516348
32.3404603
32.64457072
32.61903701
33.84579482
34.38945076
34.34792797
36.86297163
38.1757608
38.0586302
111.7286982
126.3491618
124.9698679
30.67519303
30.80228353
30.8209843
30.97263983
31.21590934
31.21927604
31.56365503
32.22023885
32.14992561
32.47086034
32.80200278
32.7647425
34.09457987
34.67642477
34.60663486
37.34463816
38.7908176
38.65961678
30.61807541
30.75549578
30.77576121
30.93948912
31.20129985
31.20998874
31.58025136
32.3238836
32.24426419
32.61077897
32.98935193
32.93567162
34.45954699
35.11415065
34.98063237
38.06514256
39.65324589
39.3884877
50.51351209
60.4809085
59.20442574
468.2993762
1925.338758
2119.041576
30.55827422
30.70365532
30.72705104
30.89863112
31.17480784
31.18956783
31.57660555
32.39781349
32.3470984
32.77269494
33.2336624
33.17000793
35.06501867
35.8898024
35.66175955
39.66735834
41.78669442
41.14447257
58.70818315
77.11131615
68.45888517
864.9036202
1351.162069
1487.988388
30.49387959
30.64494698
30.67238081
30.84854281
31.13608595
31.15705412
31.55765908
32.41284188
32.403695
32.87374533
33.43915723
33.40208986
35.85937616
37.02808586
36.72372514
43.1565108
47.22374086
45.53098171
97.40158791
179.3189287
133.6962933
928.8076135
770.2351668
931.9350662
30.42360213
30.5785229
30.61031868
30.78847844
31.08470786
31.11193796
31.52079841
32.40307318
32.41225031
32.89571157
33.49702429
33.48778066
36.43439141
38.09167454
37.88430963
49.65555493
60.73588655
56.32218834
259.305426
511.6123455
427.0000834
587.0011854
316.0648873
382.0354377
30.34717441
30.50445026
30.54046266
30.71887079
31.02186109
31.0546197
31.46873367
32.3721237
32.39664719
32.89088565
33.5163494
33.51367747
36.66713682
38.56058488
38.44743651
55.60788158
75.71682309
73.39432198
400.3311204
588.3386231
596.4189156
340.8621831
216.1502433
228.1678238
30.26457697
30.42331561
30.46317033
30.64076561
30.94917077
30.98665347
31.40402278
32.32500164
32.36139118
32.86601228
33.5139118
33.5159999
36.89107398
39.02997756
38.90951916
60.28509382
83.55543967
81.84403206
400.2529719
541.6423344
553.065626
293.3571659
201.1385504
204.264251
30.176387
30.33588484
30.37913443
30.55539493
30.86812228
30.90960819
31.32908497
32.26572788
32.31098784
32.82646139
33.49663034
33.50202237
37.1250466
39.5532346
39.41360619
64.52182246
88.81810507
87.70853564
388.6469429
498.8423185
509.1134839
264.7535366
190.4325459
192.8810686
30.08289971
30.2429763
30.28916315
30.4639781
30.7801099
30.82490099
31.24612384
32.19781552
32.24928423
32.77643382
33.47030136
33.47741133
37.40207595
40.21128221
40.02954337
67.73859058
92.21778503
91.50856749
372.1645408
460.6611666
469.7816401
244.8367838
181.9582612
183.9001563
29.98504576
30.14540582
30.1940567
30.36764533
30.68659437
30.73394864
31.15724541
32.12516897
32.17981747
32.72075926
33.44228617
33.44889924
37.77658524
41.04006007
40.82157427
69.97006333
94.24946051
93.85615317
353.4713904
427.0643982
435.0480307
229.7718665
175.0682677
176.6766342
29.8832236
30.04405864
30.09467914
30.26748941
30.58908232
30.63824774
31.06463212
32.05259616
32.1067215
32.66615964
33.42404123
33.42692691
38.25532432
41.91841214
41.70297682
71.40780407
95.17538741
95.0308491
333.9728138
397.6732188
404.6824444
217.9131814
169.2446624
170.6177879
29.77877251
29.9398463
29.99191852
30.16457711
30.48900181
30.53928396
30.97037515
31.98504255
32.03497115
32.62059747
33.42768781
33.42443344
38.77273915
42.71046929
42.52483173
72.24077757
95.26978874
95.303922
314.6372503
371.7118092
377.9433231
208.2662646
164.2083267
165.4047121
29.6718746
29.83365745
29.88672612
30.05990001
30.38760664
30.43840223
30.87628275
31.92647201
31.9693517
32.59031459
33.45912258
33.44875487
39.25795464
43.36170619
43.21267158
72.60455882
94.75072545
94.9318123
295.8904889
348.51238
354.094114
200.1265256
159.7649588
160.8292381
29.56411718
29.7262477
29.7799015
29.9542845
30.28591254
30.3367523
30.78381275
31.87880278
31.91342493
32.57737091
33.51399121
33.4986048
39.6740689
43.8679205
43.75461574
72.59156445
93.74574002
94.03651137
278.0539646
327.7048632
332.7473438
193.0481221
155.7715372
156.7327984
29.45495521
29.61822396
29.67220491
29.84836925
30.18468767
30.23521848
30.69404624
31.84158717
31.86847658
32.57894753
33.5820862
33.56439359
40.00992586
44.2413353
44.15907652
72.27527336
92.38928948
92.75121508
261.2364607
308.7962996
313.4068518
186.7862311
152.143495
153.0211178
29.34632974
29.51003325
29.56407628
29.74262273
30.08451503
30.13447658
30.60770269
31.8130425
31.83363435
32.59052909
33.65407837
33.63611441
40.27345238
44.50855498
44.45032998
71.76964559
90.85707441
91.25069696
245.6309081
291.5656158
295.7919774
181.1267915
148.7919387
149.6096486
29.23661985
29.40202099
29.45606533
29.63742135
29.98583843
30.03504995
30.52511584
31.79054812
31.80686293
32.60715402
33.72319257
33.70648527
40.47442044
44.68993496
44.65210467
71.13204339
89.22031921
89.63941155
231.1286698
275.798495
279.7085863
175.9006921
145.6394962
146.4132357
29.12865387
29.29444819
29.3483393
29.53305567
29.88899577
29.93736823
30.44631318
31.7714148
31.78544957
32.62449912
33.78448989
33.77008469
40.61841759
44.79562648
44.77572577
70.37756437
87.49040021
87.93061417
217.6010046
261.2603656
264.9202533
171.0371281
142.6528528
143.3875845
29.01920479
29.18747387
29.24146293
29.42973533
29.79416439
29.84177943
30.37106426
31.75343748
31.76679363
32.63940037
33.83518214
33.82357725
40.71190934
44.83648216
44.83156646
69.53447747
85.7069157
86.15577813
205.0265418
247.7677463
251.2290714
166.5123746
139.8244303
140.5243652
28.91270753
29.08110856
29.13545449
29.3274797
29.70133597
29.74858846
30.29889023
31.73505235
31.74884127
32.64996151
33.87431311
33.86561854
40.76283098
44.82443328
44.8317628
68.6430308
83.92754447
84.37238379
193.4468394
235.2497108
238.5458018
162.2702969
137.126401
137.8041528
28.8030796
28.97507289
29.03124087
29.22606459
29.61018606
29.658164
30.22905346
31.71512833
31.73016857
32.65520275
33.90191153
33.89606661
40.77827071
44.77061303
44.78770115
67.72789596
82.17967556
82.62137359
182.7880708
223.6029537
226.8014
158.2444968
134.5235571
135.1948503
28.69692396
28.86841728
28.92910996
29.12457159
29.51977532
29.57113495
30.16029135
31.6929994
31.70975045
32.65451333
33.91829364
33.91519864
40.76402324
44.68137447
44.70712574
66.79382157
80.45894756
80.90834389
172.9594881
212.6630667
215.8351926
154.3880882
131.9898499
132.6781663
28.57355165
28.75194645
28.83147943
29.01459705
29.42276131
29.4888553
30.08701986
31.66642671
31.68719398
32.64781048
33.92438737
33.9238249
40.72364532
44.56200399
44.59804211
65.84496748
78.76745934
79.26085856
163.9499262
202.3898813
205.5980274
150.668766
129.5025493
130.2552866
123.5740504
122.2367065
108.5127351
168.5353462
162.2439595
138.4432769
91.1927193
76.07100133
77.07744296
111.2421388
89.28945965
90.88535543
78.14598685
79.19696082
95.65406713
135.2705698
133.8442525
117.4984642
104.025831
115.4820703
121.1412397
138.2762887
137.0929335
2631.092328
92.32796948
93.83869904
117.7207661
2662.481215
2911.565424
7604.703942
5803.710926
4760.950518
5243.263579
2152.993017
2415.929375
2981.827846
1821.816869
32.59778173
32.5553729
32.26685836
33.26579031
32.88453697
32.93737965
34.29215938
34.23273179
33.70975491
35.6335963
34.8616847
34.92696401
37.96105354
37.8381323
36.59825237
41.78353279
39.49071315
39.65047613
32.73298004
32.66674797
32.35782274
33.41423012
33.01550472
33.09179683
32.9610641
32.98956425
33.38548887
34.544073
34.42170377
33.87638378
35.89028586
35.07976758
35.22460299
34.99584612
35.04367803
35.84843418
38.53454026
38.24477389
36.91414708
42.6034242
40.03917576
40.44730793
39.77637198
39.93716632
42.43959917
129.2304146
127.8014542
112.8156676
177.0682532
148.2608856
150.1331023
144.5444688
146.3441812
174.3743059
32.88671637
32.84214799
32.50103476
33.66229987
33.22543147
33.28185804
33.13015562
33.17535862
33.60144532
34.86058339
34.76340716
34.16772784
36.36581414
35.48081728
35.59345405
35.29780166
35.37792973
36.24418773
39.13611323
38.95694895
37.4879123
43.88844716
40.96454842
41.19776514
40.60353629
40.77698976
43.67632632
204.8694169
208.408753
271.5891785
33.10761399
33.04663279
32.65002338
34.00188599
33.49352872
33.57761188
33.34542019
33.41593201
33.90094987
35.45311268
35.27529519
34.58788945
37.10929181
36.09858709
36.31600279
35.73914283
35.89686531
36.85532182
40.46385875
40.06320359
38.38770196
45.75147407
42.36163777
42.94759607
41.4867343
41.85137196
45.1266257
65.43596814
62.17371816
51.40150536
155.5297225
85.43024011
90.22566233
79.33670634
80.19752951
131.6910392
1622.053466
1768.825573
524.606284
1258.528416
1125.808464
1541.534104
1385.289698
33.35228884
33.29429249
32.80790896
34.49993501
33.85384822
33.94775767
33.66672332
33.76012447
34.36430301
36.42711685
36.14765139
35.25372949
38.59961123
37.23369124
37.61860505
36.58768804
36.87989988
38.10111772
43.8825287
42.89984016
40.39610472
52.5099847
46.61647314
48.05457493
43.92419192
44.86588534
49.80296132
107.7671242
85.5141893
62.88378828
389.0344083
150.620373
216.9788853
102.2583099
124.894536
275.6127519
1082.877056
1222.640004
996.7437818
681.613663
547.8202639
976.8332957
832.337699
33.47645992
33.46223394
32.88224713
35.01739624
34.16847576
34.2054962
34.03450718
34.11025274
34.90509272
37.62358979
37.33227691
36.04881277
41.22969424
38.98658746
39.48129462
38.04785139
38.50370753
40.44738935
52.56837341
49.6952418
44.48937904
79.20150728
59.12023725
65.23539506
51.07452199
53.98312192
67.04258077
322.2065224
247.3977372
128.0098873
812.0075656
532.5342154
651.0114208
275.2105793
404.4528887
802.6503052
487.4807284
618.1218958
857.2960938
312.7293098
270.2374117
446.0649647
369.5966193
33.50977765
33.50430176
32.89616317
35.23109085
34.26438606
34.27933234
34.22819783
34.24741676
35.19844399
38.33548642
38.22355895
36.49556187
44.68229912
40.73931367
40.97247646
39.96072921
40.39652634
43.85474764
70.21608306
65.50595476
51.55320141
164.4420882
96.6060505
106.91415
74.37778926
84.87269122
139.0609892
594.0418088
572.7621275
310.4730636
679.2050603
685.5482116
663.6830522
699.5014403
698.4280682
723.3222642
245.782758
273.9166868
497.2934231
196.2015554
183.1669734
238.0269554
213.8477807
33.5169233
33.51716428
32.88625701
35.34424533
34.31459221
34.32366992
34.29253888
34.30428393
35.31792638
38.79139893
38.67517102
36.72314358
46.77605493
41.66774081
41.91016742
41.19918984
41.43091509
46.2666232
79.95821075
77.90882932
56.76694961
212.6596061
121.4544236
124.082481
114.7440276
118.4148266
209.0920539
564.7307764
576.5548771
402.0732838
529.9388543
604.4459464
588.3421577
642.3843087
621.472719
551.6663704
207.6289417
211.2959064
325.4234302
165.3531934
163.3056671
174.2521509
168.024491
33.50673587
33.51073738
32.85734148
35.44197465
34.345326
34.35099634
34.33176583
34.33895899
35.41832447
39.28087926
39.1534302
36.94784462
49.02976879
42.68524275
42.96715551
42.15928431
42.41691425
48.42994389
86.47309351
85.09470034
61.42066131
220.6098722
129.9943341
131.434924
126.3541933
128.3119924
219.3791011
519.6621258
530.5113014
398.0701415
460.2423976
544.5309739
531.2566936
573.0211896
558.4289252
475.9104528
195.4701824
198.2141101
285.0116339
157.9728014
156.390082
161.4143606
159.6430048
33.48423518
33.49068443
32.81479046
35.53615668
34.36517277
34.36933456
34.35612251
34.36081898
35.51225337
39.85980496
39.7014262
37.18829742
51.57736452
43.91665984
44.26807487
43.26539429
43.58192039
50.93324947
90.71009119
89.8156312
65.42842263
222.0252332
134.6288548
135.3777321
132.6716871
133.7322831
222.1026618
479.1762317
488.8718206
384.8595108
406.6638967
494.7864217
483.6100395
518.5758229
506.4236505
418.7826103
185.9519602
188.1250419
259.1674745
152.0712684
150.7541964
154.8837145
153.4460062
33.45588568
33.46308178
32.76283393
35.6436946
34.38292112
34.38868972
34.3735222
34.37797149
35.61399316
40.60894328
40.40479693
37.48480127
53.97113392
45.38368173
45.75899554
44.63285586
45.00655465
53.41348747
93.38708981
92.84169956
68.38098431
219.7500231
136.8004123
137.0302542
135.9845373
136.4611694
220.6266076
443.2929091
451.8440759
367.6380666
365.2208248
452.7108592
443.20818
472.8929639
462.5903599
374.6328811
178.3562923
180.1139308
240.7037263
147.1123784
145.9913082
149.4908673
148.2778313
33.43108974
33.43628066
32.7067093
35.79654885
34.41441668
34.42690059
34.39563735
34.40411093
35.75225755
41.4833539
41.26156004
37.88826021
55.85676884
46.82786067
47.15431745
46.1274694
46.48492468
55.43812656
94.8337166
94.57269326
70.39624153
214.7123425
137.0243575
136.8377767
137.1341759
137.1107158
216.1807144
411.8927793
419.3646633
348.6402093
332.6845061
416.8672822
408.7313401
434.0893576
425.3029885
340.1215521
172.0433395
173.5253094
226.5383568
142.8673575
141.8986528
144.9117321
143.8710468
33.4228759
33.42245795
32.65360405
36.0189679
34.48013161
34.50357198
34.4418904
34.45962198
35.95684186
42.33046798
42.12798647
38.38433972
57.214607
48.02781247
48.28333492
47.46333511
47.75460284
56.91890512
95.31244555
95.26589276
71.66637724
207.8622019
135.7607614
135.2721124
136.5511264
136.1905329
209.6920171
384.3153317
390.9081699
329.1144782
306.573748
386.1273645
379.1127598
400.9197507
393.3744509
312.5990813
166.6409863
167.9200982
215.3259169
139.1812402
138.3329782
140.9626028
140.0572095
33.43999248
33.43293064
32.61142244
36.29777288
34.59007125
34.62362665
34.52982457
34.55872329
36.224826
43.0544599
42.88702619
38.89907303
58.14921781
48.94910653
49.13926106
48.5217188
48.74350994
57.95010269
95.08030185
95.19570565
72.37243098
200.0380105
133.4886294
132.8015699
134.7272752
134.1320009
202.0611421
359.7863355
365.6875458
309.8925229
285.2455832
359.542194
353.4346951
372.3699587
365.8283747
290.1832223
161.9229532
163.0487525
206.1104006
135.9384859
135.1857735
137.5107704
136.7129229
33.48420885
33.47098499
32.58549516
36.5942286
34.73440452
34.77348295
34.65910137
34.6961656
36.52056193
43.6325933
43.50162541
39.36932777
58.7468967
49.62444778
49.75909507
49.31492968
49.47651677
58.624934
94.30246315
94.54117582
72.63744304
191.6919316
130.5243947
129.7015147
132.0763475
131.3167788
193.8062373
337.8447642
343.1360707
291.3614693
267.6304376
336.4006118
331.0623831
347.5733691
341.8695257
271.736662
157.7178239
158.7284856
198.2688715
133.0452953
132.3676373
134.4535369
133.7401985
33.54704822
33.53017862
32.57657321
36.87362075
34.89260583
34.93194368
34.81309563
34.85292045
36.80672198
44.06970562
43.97278556
39.76549421
59.06423343
50.08871342
50.17567899
49.88098718
49.99075673
59.00824084
93.09994324
93.43248844
72.53667648
183.1472429
127.0812436
126.170245
128.8512002
127.9765735
185.287584
318.0317577
322.8519636
273.76484
252.7995467
316.1228978
311.394744
325.944549
320.9278279
256.2727322
153.9168203
154.8337026
191.4143855
130.4298736
129.8131682
131.7064397
131.0605392
33.61805895
33.60000703
32.5811168
37.11726794
35.04639159
35.08285764
34.97080042
35.00901326
37.06002905
44.38659562
44.31702894
40.08213996
59.1601181
50.37968267
50.43068279
50.25272784
50.32040825
59.15290995
91.63753401
92.01747515
72.16336368
174.7423694
123.4010532
122.4760332
125.2505184
124.3262439
176.8067566
299.982719
304.3934298
257.2482674
240.1516017
298.1576829
293.9364246
306.8752529
302.4102871
243.1262415
150.4388449
151.2840612
185.3249848
128.0381141
127.4684326
129.20967
128.6179931
33.68934632
33.67184168
32.59439596
37.32175238
35.1862083
35.21831653
35.11838273
35.15288265
37.27426181
44.60926514
44.56146531
40.32934328
59.10387294
50.54266126
50.56673497
50.47467431
50.51201401
59.12964139
90.05153365
90.4575412
71.62237141
166.7579946
119.7188218
118.8017298
121.554802
120.6353758
168.7109041
283.5147795
287.5738922
241.9465466
229.1588047
282.1608953
278.3659499
289.9322944
285.9335484
231.7582749
147.1939005
147.9885244
179.7877268
125.8149518
125.2797731
126.9087429
126.3572958
33.75503891
33.7393834
32.61156994
37.48744332
35.30707079
35.33391312
35.24921092
35.27883649
37.44962627
44.7516667
44.72319581
40.51559899
58.92705847
50.60304747
50.60199409
50.58485189
50.59673054
58.98168444
88.3654118
88.79589733
70.95394001
159.1612227
116.0615871
115.1481597
117.8879594
116.9730662
161.0206651
268.3897534