/*--------------------------------*- C++ -*----------------------------------*\
| =========                 |                                                 |
| \\      /  F ield         | OpenFOAM: The Open Source CFD Toolbox           |
|  \\    /   O peration     | Version:  v2012                                 |
|   \\  /    A nd           | Website:  www.openfoam.com                      |
|    \\/     M anipulation  |                                                 |
\*---------------------------------------------------------------------------*/
FoamFile
{
    version     2.0;
    format      ascii;
    class       volVectorField;
    location    "2.94";
    object      U;
}
// * * * * * * * * * * * * * * * * * * * * * * * * * * * * * * * * * * * * * //

dimensions      [0 1 -1 0 0 0 0];


internalField   nonuniform List<vector> 
3259
(
(101.54502 -0.2244416349 7.389905844e-21)
(101.4722924 -0.678236704 1.165809664e-19)
(101.3309666 -1.148102918 -2.348407065e-19)
(101.0979778 -1.668804597 -4.603089461e-22)
(100.6978901 -2.047248977 -1.85951286e-21)
(100.2307696 -2.644155773 0)
(99.66313148 -3.390701607 0)
(98.82626451 -4.061031827 0)
(97.71733473 -4.953672559 0)
(96.30529734 -6.091321261 -7.340654542e-19)
(94.45947365 -7.731450695 -7.898351202e-19)
(92.35711001 -9.561741142 0)
(101.9884668 -0.2419228183 0)
(101.9281023 -0.7323225275 0)
(101.8112736 -1.238101768 0)
(101.6177297 -1.795362287 0)
(101.2662401 -2.231852591 0)
(100.8857636 -2.88513186 0)
(100.4452799 -3.687885064 0)
(99.76286789 -4.404406514 0)
(98.88208524 -5.341943027 5.606399187e-19)
(97.78445497 -6.533704788 -1.399542309e-19)
(96.39910679 -8.295406477 5.027810349e-19)
(94.97937334 -10.75317988 -4.738579462e-19)
(102.4590947 -0.2526500975 0)
(102.4119744 -0.7657259793 0)
(102.3220441 -1.29323005 0)
(102.1699468 -1.864371408 0)
(101.8674496 -2.333189869 0)
(101.5822379 -3.00753924 0)
(101.2617902 -3.805262494 0)
(100.7351376 -4.555394919 9.150441443e-19)
(100.0633941 -5.481452113 -1.035813057e-20)
(99.26637418 -6.602921299 5.536020627e-20)
(98.42117548 -8.145013206 5.824442557e-19)
(97.90462911 -10.4779041 4.299003547e-19)
(102.9443439 -0.2569516268 0)
(102.9096799 -0.7788954309 0)
(102.8450431 -1.314249015 0)
(102.7319099 -1.883031823 0)
(102.4755472 -2.365466505 0)
(102.2732016 -3.031624811 0)
(102.0484463 -3.792196419 7.387891105e-22)
(101.6565465 -4.544390789 -6.001827956e-21)
(101.1441105 -5.42449765 -1.142046232e-18)
(100.5574361 -6.405689129 9.332013595e-20)
(100.0079872 -7.568946529 6.025815131e-19)
(96.666951 -8.46260528 -4.693001109e-19)
(103.4324398 -0.255680011 0)
(103.4084849 -0.7744838974 0)
(103.3650029 -1.30550078 0)
(103.2848785 -1.858732023 0)
(103.0703425 -2.33948581 0)
(102.9341103 -2.975862232 0)
(102.7817717 -3.676010847 0)
(102.4773721 -4.391089743 -6.733912038e-20)
(102.0672078 -5.197296902 2.929280843e-19)
(101.5639161 -6.017122378 1.429100301e-19)
(101.193322 -6.890081791 0)
(93.48179904 -6.605944918 -6.155883046e-19)
(103.9131986 -0.2498692804 0)
(103.8979163 -0.7558420047 0)
(103.8708646 -1.27266205 0)
(103.8165643 -1.800203294 0)
(103.6368276 -2.266631299 0)
(103.5481238 -2.859780576 0)
(103.4416063 -3.490098875 0)
(103.185554 -4.127821457 0)
(102.8088729 -4.831161218 -7.378007798e-20)
(102.2914224 -5.51181533 8.178880664e-19)
(101.7325824 -6.179692512 7.023994495e-19)
(95.15222168 -6.224407595 -2.731504171e-20)
(104.3786773 -0.2405486914 0)
(104.3699945 -0.7263012412 0)
(104.3547366 -1.221525071 0)
(104.3189972 -1.716947745 0)
(104.1657175 -2.160074812 0)
(104.1068803 -2.703568153 0)
(104.0227117 -3.263941723 0)
(103.7849227 -3.82013445 0)
(103.4066622 -4.399501298 0)
(102.8583838 -4.955300566 0)
(101.0829686 -5.35383727 -1.206378589e-20)
(98.24969781 -5.736136629 -1.451717954e-19)
(104.8230923 -0.2287235489 0)
(104.8189886 -0.6890844688 0)
(104.8111568 -1.157639478 0)
(104.7872105 -1.617807834 0)
(104.6525654 -2.032187884 0)
(104.6086188 -2.524377103 0)
(104.5284543 -3.021324936 0)
(104.2889689 -3.499440222 0)
(103.8872376 -3.976522066 0)
(103.3076616 -4.417491832 0)
(100.8643899 -4.64615687 0)
(99.28479998 -5.007176083 0)
(105.2426036 -0.2153229706 0)
(105.2412477 -0.6471549266 0)
(105.2369882 -1.086011678 0)
(105.2189248 -1.510129751 0)
(105.0964733 -1.893173614 0)
(105.0556674 -2.335894244 0)
(104.9656908 -2.776014803 0)
(104.7131392 -3.184790529 0)
(104.2773795 -3.580483422 0)
(103.65144 -3.934583014 0)
(100.6716631 -4.069705673 0)
(99.80742104 -4.389926089 0)
(105.6350357 -0.2011348351 0)
(105.6348925 -0.6030177304 0)
(105.6310865 -1.010875314 0)
(105.6140676 -1.399590657 0)
(105.4988237 -1.750832892 0)
(105.4525512 -2.147780828 0)
(105.3434609 -2.536591105 0)
(105.0716647 -2.887083361 0)
(104.5984858 -3.218550176 0)
(103.9191612 -3.507850853 0)
(100.4735454 -3.581702737 0)
(100.1321378 -3.865549972 0)
(105.9996182 -0.1867808853 0)
(105.9994682 -0.5586205436 0)
(105.9937762 -0.9355286075 0)
(105.9741218 -1.290471328 0)
(105.8621259 -1.610809658 0)
(105.8046079 -1.966341926 0)
(105.6711969 -2.308688681 0)
(105.3764573 -2.611894144 0)
(104.866716 -2.89258179 0)
(104.1302694 -3.132505752 0)
(100.2882537 -3.165368087 0)
(100.3335525 -3.417663664 0)
(106.3366762 -0.1727308916 0)
(106.3355827 -0.5153970936 0)
(106.3263368 -0.8623716733 0)
(106.3014157 -1.185821768 0)
(106.1896769 -1.476958855 0)
(106.1171789 -1.795375777 0)
(105.957237 -2.097174287 0)
(105.6376451 -2.361213478 0)
(105.0941648 -2.601778524 0)
(104.2982316 -2.80329145 0)
(100.1274748 -2.809498095 0)
(100.4570623 -3.034399751 0)
(106.6472976 -0.1593276952 0)
(106.6445632 -0.4743659605 0)
(106.6306251 -0.7930771742 0)
(106.5986501 -1.087702695 0)
(106.4849547 -1.351790871 0)
(106.3952347 -1.637295329 0)
(106.2079475 -1.904252081 0)
(105.8635235 -2.135543904 0)
(105.2897094 -2.344177145 0)
(104.4328688 -2.515260432 0)
(99.99649628 -2.505038495 0)
(100.5312391 -2.705922577 0)
(106.933078 -0.1468102443 0)
(106.9282048 -0.436218961 0)
(106.9088455 -0.7287540182 0)
(106.868675 -0.9973976041 0)
(106.7514535 -1.236792472 0)
(106.6433384 -1.493362855 0)
(106.428898 -1.730539056 0)
(106.0607398 -1.934329804 0)
(105.4597912 -2.117246791 0)
(104.5415082 -2.263851606 0)
(99.89613172 -2.244120283 0)
(100.5737404 -2.4241903 0)
(107.1959581 -0.1353329918 0)
(107.1886081 -0.4013896875 0)
(107.1634089 -0.6700815647 0)
(107.1143782 -0.9156274487 0)
(106.9924904 -1.132759596 0)
(106.8655324 -1.364075635 0)
(106.6247644 -1.575887214 0)
(106.2345541 -1.756521144 0)
(105.6091309 -1.918455688 0)
(104.62972 -2.045121404 0)
(99.82527766 -2.020619021 0)
(100.5954639 -2.182797834 0)
(107.4381069 -0.1249856012 0)
(107.4280625 -0.3701164973 0)
(107.3968272 -0.617419164 0)
(107.3386107 -0.8427073804 0)
(107.2112415 -1.039976299 0)
(107.0654711 -1.249413377 0)
(106.7995744 -1.439714886 0)
(106.3891983 -1.600864241 0)
(105.7413828 -1.745553149 0)
(104.7016071 -1.855782144 0)
(99.78263788 -1.829946224 0)
(100.6034142 -1.976592529 0)
(107.6617707 -0.1158127218 0)
(107.648903 -0.3425029007 0)
(107.6115883 -0.5709084589 0)
(107.544093 -0.7786993971 0)
(107.4106585 -0.9584198354 0)
(107.2464158 -1.149068842 0)
(106.956769 -1.321211166 0)
(106.5281385 -1.466084361 0)
(105.8594658 -1.596585334 0)
(104.7598823 -1.692952908 0)
(99.76728364 -1.668450614 0)
(100.6023433 -1.801501554 0)
(107.8693035 -0.1078262704 0)
(107.8535375 -0.3185580353 0)
(107.8101924 -0.5305414167 0)
(107.733481 -0.7234786452 0)
(107.5934919 -0.8878738578 0)
(107.4113211 -1.062578983 0)
(107.0992118 -1.21916351 0)
(106.6542718 -1.350927493 0)
(105.9657087 -1.469670652 0)
(104.8064099 -1.554121656 0)
(99.77820479 -1.533293949 0)
(100.5954257 -1.65412932 0)
(108.0627756 -0.1010254146 0)
(108.0440911 -0.2982464111 0)
(107.9948245 -0.4962187764 0)
(107.9090615 -0.6768992151 0)
(107.7622722 -0.8279954766 0)
(107.5628735 -0.9893186573 0)
(107.2297658 -1.132475286 0)
(106.7698339 -1.254043143 0)
(106.061936 -1.362957026 0)
(104.8426257 -1.436976755 0)
(99.81329611 -1.421599793 0)
(100.5846133 -1.53155317 0)
(108.2452038 -0.09537838496 0)
(108.2235361 -0.2814721166 0)
(108.1684196 -0.4677820819 0)
(108.0737762 -0.6385425788 0)
(107.919378 -0.7784063892 0)
(107.703455 -0.9285673752 0)
(107.3511514 -1.060915662 0)
(106.8766647 -1.17400885 0)
(106.1495835 -1.274744718 0)
(104.8701872 -1.339755701 0)
(99.86932053 -1.33088833 0)
(100.5710666 -1.431353833 0)
(108.4158541 -0.09092530458 0)
(108.3913397 -0.2682693064 0)
(108.3305513 -0.4451315959 0)
(108.2273176 -0.6088248635 0)
(108.0669582 -0.7386030038 0)
(107.8351779 -0.8797102473 0)
(107.4651506 -1.004610317 0)
(106.976594 -1.10955052 0)
(106.2299533 -1.203707461 0)
(104.8909899 -1.261229664 0)
(99.94263042 -1.259267759 0)
(100.5555625 -1.35161751 0)
(108.5877911 -0.08746393531 0)
(108.5599201 -0.2582680798 0)
(108.4931611 -0.42796613 0)
(108.3802589 -0.5846854029 0)
(108.2079422 -0.7084693982 0)
(107.9598835 -0.842757839 0)
(107.5729006 -0.9621444006 0)
(107.071112 -1.060070713 0)
(106.3042923 -1.148907 0)
(104.9069152 -1.200476247 0)
(100.0297886 -1.205472034 0)
(100.5386732 -1.290959511 0)
(108.7208598 -0.08561782202 0)
(108.6909326 -0.2525319072 0)
(108.619638 -0.4176058929 0)
(108.5009818 -0.5736141569 0)
(108.3407628 -0.6871889697 0)
(108.0790015 -0.8168603066 0)
(107.6759312 -0.9327497424 0)
(107.1614325 -1.02479482 0)
(106.3738118 -1.109554594 0)
(104.9197469 -1.156734205 0)
(100.1277768 -1.16863041 0)
(100.5208003 -1.248353504 0)
(108.9756463 -0.08341852679 0)
(108.9410735 -0.2472378849 0)
(108.8607827 -0.4086280754 0)
(108.724707 -0.5571059598 0)
(108.4646703 -0.6759207141 0)
(108.1884016 -0.8024027508 0)
(107.7711832 -0.9164643775 0)
(107.2485724 -1.003120389 0)
(106.4396883 -1.084890662 0)
(104.931267 -1.129519183 0)
(100.2336208 -1.148205761 0)
(100.5022133 -1.223112442 0)
(92.21909087 -9.469765331 -5.279514234e-19)
(94.73973906 -10.57848162 -4.823330075e-21)
(94.00329576 -7.519507432 -1.728344849e-19)
(92.33473215 -9.224002909 -4.760684583e-19)
(95.89524279 -8.220891408 1.483623454e-18)
(94.78268098 -10.30275592 4.945852698e-19)
(92.60974989 -9.377856548 4.567738934e-19)
(93.41832493 -10.07229577 0)
(90.83641336 -11.21317947 9.727251324e-19)
(90.3848984 -10.47774583 1.004296974e-18)
(97.9030164 -10.52593131 -3.542263001e-19)
(90.33888256 -10.4243412 -9.860143289e-19)
(89.65342789 -10.42111088 -1.037183424e-18)
(82.19310916 -9.960420155 -1.419435443e-19)
(90.90011725 -11.27342271 0)
(93.58098165 -10.14941094 0)
(89.57512055 -11.1881312 0)
(42.20295489 -6.09371964 5.256259532e-19)
(89.68527843 -10.47135779 -1.057774179e-18)
(89.51888413 -11.12711206 -5.732814631e-19)
(83.20964903 -27.92698938 0)
(90.81272271 -10.86004427 -1.095289851e-18)
(92.32335287 -10.50145778 -1.10555098e-18)
(92.81729434 -10.76463049 2.853637208e-21)
(91.73928758 -10.13295091 5.781527902e-19)
(92.17141127 -10.40938608 0)
(90.7674999 -10.79517636 5.390632079e-19)
(90.1382453 -10.12811968 -8.478040397e-22)
(91.20464021 -9.766462452 -6.033716876e-19)
(91.6027541 -10.04052704 0)
(91.07434603 -9.673783188 -6.098569388e-19)
(90.0747883 -10.08396652 5.539937263e-19)
(89.68916476 -10.12017551 -1.728181193e-18)
(89.75338893 -10.16085643 1.746084739e-18)
(92.99607089 -10.84401813 6.589853791e-19)
(93.54110575 -11.0259746 -2.054071387e-18)
(92.31916471 -12.09929594 -1.749693345e-19)
(92.29382911 -12.39395836 -1.079513538e-18)
(87.85872189 -24.14530125 -7.466222699e-19)
(85.40086189 -26.36379654 0)
(90.05782756 -10.7632028 -1.707053471e-18)
(74.91736736 -25.84067567 4.12779514e-19)
(84.68756506 -26.50774361 -7.367998409e-20)
(76.49943865 -26.03981055 0)
(90.09690513 -10.83595831 1.14865383e-18)
(84.23816795 -27.96284292 -7.205486989e-20)
(89.20365264 -27.38067648 -5.811436276e-20)
(97.94291375 -8.239206488 -4.145157878e-19)
(97.51309647 -9.978619458 -1.746060013e-19)
(95.14304886 -10.36580565 0)
(96.21432787 -10.78129457 0)
(81.29886851 -8.878424493 9.07528925e-19)
(79.74125758 -9.557566323 0)
(90.75485814 -11.08826864 0)
(92.06346632 -10.9277272 3.595442984e-21)
(92.30227733 -11.08415464 -8.685838372e-19)
(45.74948949 -6.460743453 -1.035050874e-18)
(70.26396459 -11.06876474 2.560107429e-20)
(89.45435922 -9.890140714 0)
(89.78089928 -10.28742643 1.056295621e-18)
(91.66949056 -11.32853346 2.725899078e-18)
(93.59697557 -11.11492138 -1.612305226e-18)
(93.99324099 -11.35346638 0)
(92.39012052 -11.13357891 4.328083903e-19)
(92.69171033 -11.26249737 4.282111603e-19)
(91.20189791 -11.50081349 -4.950143728e-19)
(89.53032821 -27.12252806 0)
(89.88205276 -11.44424112 5.819844298e-19)
(58.13417524 -18.98535246 3.041709258e-18)
(85.6918462 -19.70680862 7.569777672e-19)
(87.92830354 -23.68307735 1.297726903e-18)
(87.52036947 -11.84015044 1.142313919e-18)
(89.88973334 -10.62992598 4.657841683e-22)
(89.52514589 -11.08711902 1.968212191e-18)
(91.77322614 -10.73306596 -6.585915852e-22)
(91.98511002 -10.87768227 2.265290494e-21)
(90.80787479 -11.03230558 -4.927576571e-19)
(90.63536694 -10.66119134 0)
(91.50696645 -10.53539842 -4.711007349e-19)
(91.70622963 -10.67268813 9.42678244e-19)
(89.50001233 -9.952101689 -1.117871236e-18)
(89.87151002 -10.28633192 -1.401797992e-18)
(91.30399157 -11.58247036 9.927421327e-19)
(92.8027873 -11.28991325 -4.300510966e-19)
(93.06030681 -11.27933229 2.525989647e-18)
(61.77542092 -18.88053206 -3.337343992e-18)
(59.92469877 -19.08377304 -1.693559622e-18)
(89.95698071 -11.56823637 2.889156788e-19)
(63.15670229 -21.05478 -2.884646959e-19)
(68.04433461 -21.49726524 -2.346670731e-19)
(86.94206367 -25.60945548 -1.545178895e-19)
(89.96192377 -10.64500925 5.480738606e-19)
(75.37654515 -26.25895992 -6.795198465e-18)
(81.99231432 -26.69338715 -2.454507814e-20)
(63.64645347 -21.40201575 1.001117531e-18)
(80.78346007 -26.61559366 7.85028354e-21)
(89.65035874 -11.04517192 6.991294018e-18)
(91.24225955 -10.34181567 -4.735163318e-19)
(91.4404579 -10.4800132 4.723394909e-19)
(90.57176097 -10.62897637 0)
(90.3008232 -10.27971828 -5.102458818e-19)
(91.00337642 -10.14936776 5.373192065e-22)
(91.18072903 -10.28491933 -4.763185466e-19)
(88.40520895 -10.30155245 1.841050224e-18)
(88.42301455 -10.26607178 -1.172106664e-18)
(89.6485163 -10.37239195 0)
(89.6557437 -11.26428834 0)
(89.73326939 -10.53296505 0)
(88.46685771 -10.45407564 0)
(88.42130693 -10.36123111 -6.371231932e-19)
(89.49040867 -11.065098 -5.620775899e-19)
(90.75542758 -9.968605414 9.815771121e-19)
(90.94417665 -10.09743618 4.872352939e-19)
(90.28314086 -10.25126842 2.657205663e-19)
(89.8898138 -9.923561142 2.163270712e-18)
(90.5032668 -9.771764741 -4.950910177e-19)
(90.69175343 -9.914545463 0)
(89.05499185 -10.12441135 -6.011303382e-19)
(88.97417229 -10.078469 -1.788118999e-18)
(89.62052161 -10.07264806 1.712820325e-18)
(89.80952739 -10.20009302 1.174317196e-18)
(89.18165512 -10.19226824 2.875629262e-21)
(89.12456696 -10.15963835 -1.2144598e-18)
(91.24672072 -11.70801592 0)
(92.2979904 -11.49306519 4.159585197e-19)
(92.36714075 -11.61804545 1.862329946e-18)
(33.29281448 -11.28802442 2.923121302e-17)
(89.64946561 -11.95200391 -3.087093289e-19)
(87.2677887 -25.35083367 0)
(69.40405032 -21.38699641 -2.413726959e-19)
(72.03534624 -21.14495466 0)
(88.84031083 -10.65738864 6.412485906e-19)
(88.8290856 -10.59042634 6.341943496e-19)
(90.03130973 -10.70344355 -5.625416425e-19)
(75.5100101 -26.0432086 6.761872643e-19)
(70.88801863 -24.75681718 0)
(71.65148797 -24.77739853 1.581273816e-19)
(78.40944093 -26.37431373 -5.362877667e-20)
(90.11298378 -10.91181221 -1.171134188e-18)
(88.91352912 -10.80578304 1.008493453e-18)
(88.8815593 -10.73559529 3.256278423e-18)
(87.03730735 -28.08007357 0)
(87.62254363 -9.715600888 1.35817931e-18)
(87.63353731 -9.775730722 6.814919612e-19)
(87.73219079 -10.13501572 -1.952510516e-17)
(89.69719215 -10.32059945 0)
(88.54077737 -10.24908248 -3.202615373e-18)
(88.72756665 -10.23479903 1.124667079e-17)
(93.00204129 -11.26490185 6.956578841e-18)
(92.75266938 -11.40325266 4.373169456e-19)
(81.76304238 -10.13524408 -1.042288208e-18)
(91.07966758 -11.42038862 0)
(91.8481765 -11.39321723 0)
(91.96533975 -11.45407877 0)
(89.75631444 -11.36068145 -5.762275938e-19)
(58.88170474 -19.41210712 5.429455711e-19)
(58.19206284 -19.4847685 0)
(45.75584603 -2.085437288 1.485685946e-19)
(57.1348272 -15.06420662 -6.56320141e-19)
(61.80972124 -18.40315724 2.817391783e-18)
(88.69590457 -10.55839213 -6.257831936e-19)
(88.5668676 -10.53526448 -6.295720306e-19)
(89.80423053 -10.59373889 1.613049149e-18)
(89.48113923 -11.06259705 -2.160038387e-18)
(87.8324051 -10.02881371 -6.812779195e-19)
(87.93981703 -10.06949766 1.370199049e-18)
(87.66165513 -9.864736272 -6.865729658e-19)
(87.72945263 -9.959592735 1.376457438e-18)
(89.21726992 -10.26201682 0)
(89.19547214 -10.22621034 0)
(89.84418017 -10.23689845 5.809896944e-19)
(88.11635886 -10.14313719 0)
(88.129206 -10.14446018 1.662067052e-18)
(88.02517445 -10.09821938 1.369618148e-18)
(88.09247595 -10.12178027 -2.07566885e-18)
(92.08632698 -11.50199174 0)
(92.25321036 -11.56483942 0)
(91.53378929 -11.70515311 -4.83280231e-19)
(62.71977525 -19.27698579 6.342765048e-19)
(51.3791201 -16.39362516 0)
(48.06337547 -15.1485249 3.374230066e-18)
(52.45961045 -17.26892411 8.088214794e-18)
(52.73595586 -17.02847034 7.91993693e-19)
(61.57459346 -19.18581737 -1.151135852e-18)
(90.19797287 -11.72509101 -5.924711749e-19)
(64.79651552 -21.12776425 0)
(73.50391113 -23.30537503 0)
(72.25450987 -23.37851424 2.797147903e-19)
(90.00535171 -10.66457344 0)
(88.82398492 -10.55499215 -1.739719038e-21)
(88.78965787 -10.54916046 6.279457346e-19)
(75.78332553 -26.27518679 2.400140737e-18)
(67.3531616 -22.89136415 -6.64734065e-19)
(67.82482903 -23.19103548 0)
(70.95317712 -23.20687197 -1.838483289e-19)
(68.93595056 -22.96371763 5.002378058e-19)
(62.83297651 -21.44348042 0)
(67.04633485 -23.19203159 1.905755724e-19)
(79.61026888 -26.6082541 6.261957203e-20)
(71.25303664 -24.51347292 -1.999499608e-19)
(72.80678244 -24.60869565 -4.667373065e-20)
(88.54116816 -10.94694438 -1.807034494e-17)
(88.93469902 -10.84427661 1.945827428e-18)
(90.14523082 -10.97951062 0)
(98.59747335 -3.950578776 7.371488171e-20)
(97.7495971 -4.589021557 -1.323235533e-18)
(97.43090422 -4.820560468 0)
(96.35110366 -5.6186117 -5.11886434e-19)
(95.94312301 -5.931099073 7.450318402e-19)
(94.53553624 -7.05678052 6.319315176e-19)
(99.52829664 -4.335854608 0)
(98.84801864 -5.020255316 -1.164690281e-18)
(98.02049896 -4.715739513 6.321389693e-19)
(98.59332741 -5.268621539 0)
(97.73748828 -6.123038025 0)
(96.69210891 -5.772394865 4.814091606e-19)
(97.41611354 -6.458819495 -2.219438679e-19)
(96.31368659 -7.695162346 -7.92983825e-19)
(94.9673492 -7.245808279 6.049626931e-19)
(94.93535925 -7.909178524 -7.260168858e-19)
(94.43301046 -8.582630642 5.398356799e-19)
(93.65254496 -8.278465738 -4.472348668e-21)
(92.79370697 -9.785962686 -5.045195772e-19)
(92.36599668 -10.2568508 5.430870587e-21)
(91.92775322 -9.991383684 -5.635674397e-19)
(100.4950348 -4.534039876 -9.235196681e-19)
(99.96914736 -5.221692087 -7.67563121e-19)
(99.12129155 -5.092692092 1.151366116e-18)
(99.77474054 -5.467347279 2.411668377e-19)
(99.13955898 -6.295870829 -1.221323323e-19)
(98.08253855 -6.197678057 0)
(98.90954099 -6.614906356 0)
(98.18251062 -7.766186444 2.183337598e-19)
(96.77256514 -7.773451621 -4.792305774e-19)
(96.92280506 -8.319482998 0)
(96.61780362 -8.864491691 2.396803776e-19)
(95.79973904 -8.982194502 9.407486078e-19)
(95.37207049 -10.80605843 1.287250535e-19)
(95.19995248 -11.47707474 4.098997355e-19)
(94.48018694 -11.26013552 4.520085634e-19)
(101.434513 -4.561523102 3.887314468e-19)
(101.033827 -5.225274973 -4.132880658e-19)
(100.2446587 -5.239789631 -4.760140545e-19)
(100.886603 -5.455960151 -4.125877909e-19)
(100.4184246 -6.200780047 -2.020683138e-19)
(99.4758126 -6.294131185 2.329007317e-19)
(100.2574354 -6.47366417 -7.713374161e-19)
(99.7971415 -7.396518787 5.17054862e-19)
(98.62148256 -7.701470573 -2.037867497e-19)
(99.66453473 -7.736732647 0)
(99.54622095 -8.909992592 -3.345423512e-20)
(98.18939779 -9.734770614 3.014752253e-20)
(97.33630715 -9.047584411 1.212760026e-20)
(102.2823541 -4.44273617 7.750655409e-20)
(101.9723609 -5.060605161 0)
(101.2824523 -5.198744562 -3.926951089e-19)
(101.8537975 -5.26903601 0)
(101.4735875 -5.909243282 -1.057955294e-18)
(100.7061851 -6.145247661 1.010530036e-20)
(101.3419072 -6.12896607 -1.11112213e-19)
(100.9713443 -6.811327787 0)
(100.1304719 -7.262799876 -1.67292632e-19)
(100.9184391 -7.056725806 1.292336679e-19)
(98.60369124 -7.516454871 0)
(99.73391266 -8.628318872 2.460360629e-19)
(94.0295995 -6.924672789 0)
(103.0190745 -4.199604735 0)
(102.7494492 -4.74992706 -3.085271439e-20)
(102.1819581 -4.995283331 -4.610333547e-19)
(102.6384549 -4.932819787 0)
(102.2620154 -5.46946591 4.719600756e-19)
(101.6945357 -5.809967595 1.008766954e-18)
(102.1291848 -5.644981642 9.928466837e-19)
(101.8729394 -6.184494283 -8.245024682e-19)
(101.2180494 -6.656534475 -1.005465262e-18)
(101.7339399 -6.371932194 -1.459945006e-20)
(95.09142773 -6.006484142 0)
(97.67334896 -7.073516856 0)
(94.28529972 -6.265166388 -4.651541381e-19)
(103.6446206 -3.899387913 0)
(103.3827632 -4.356806069 0)
(102.9203694 -4.655097117 8.947433886e-20)
(103.2693705 -4.507897826 0)
(102.8642558 -4.95128889 2.893430906e-21)
(102.4250774 -5.344940275 -4.421918082e-19)
(102.7266098 -5.09605519 0)
(102.2558627 -5.497183613 -3.135377658e-19)
(102.034227 -6.020728725 -6.533106964e-19)
(101.2566332 -5.557400359 -2.512533071e-19)
(95.4446102 -5.427789503 -6.068079818e-19)
(94.78252104 -5.801924834 0)
(97.68181662 -5.907571827 3.948912477e-20)
(104.1710289 -3.579834611 0)
(103.8966435 -3.957986289 0)
(103.5214 -4.256338743 0)
(103.7765213 -4.080190043 0)
(103.3514276 -4.433799129 0)
(102.9970762 -4.81848543 0)
(103.2064267 -4.547300927 0)
(102.3812677 -4.813029956 0)
(102.2787439 -5.317145293 8.88476859e-21)
(100.9089047 -4.809118949 0)
(96.73302145 -4.873880362 0)
(95.85666743 -5.307672269 -2.022343543e-19)
(99.11309858 -5.179047783 0)
(104.6137738 -3.262479804 0)
(104.316138 -3.576596579 0)
(104.0094722 -3.860465591 0)
(104.1870578 -3.676456238 0)
(103.7348317 -3.961105716 0)
(103.4560315 -4.311000421 0)
(103.5735674 -4.049896217 0)
(102.4291667 -4.231865788 0)
(102.4019877 -4.658033278 0)
(100.7208653 -4.204605607 0)
(97.57739855 -4.331496779 0)
(96.95796168 -4.733790823 0)
(99.69954 -4.534664979 0)
(104.9874978 -2.959856057 0)
(104.6622439 -3.222970387 0)
(104.4088223 -3.485344992 0)
(104.5237202 -3.305671047 0)
(104.0404581 -3.538640262 0)
(103.8176107 -3.850791061 0)
(103.8581684 -3.609503176 0)
(102.410416 -3.734389798 0)
(102.4296172 -4.100396159 0)
(100.5224784 -3.696476153 0)
(98.26950507 -3.852172335 0)
(97.7641093 -4.205513441 0)
(100.0647743 -3.988949446 0)
(105.3047183 -2.678743771 0)
(104.9514197 -2.901268045 0)
(104.7393253 -3.139485687 0)
(104.8038945 -2.970718997 0)
(104.2882422 -3.164575284 0)
(104.1072139 -3.440729461 0)
(104.0819914 -3.221816992 0)
(102.3510073 -3.305744585 0)
(102.3985618 -3.6212074 0)
(100.3326146 -3.263392256 0)
(98.82232782 -3.433425168 0)
(98.42023121 -3.742127355 0)
(100.2919295 -3.523154839 0)
(105.5759546 -2.42180529 0)
(105.1962782 -2.612111725 0)
(105.0163651 -2.825949228 0)
(105.0405939 -2.671274651 0)
(104.4916684 -2.834888043 0)
(104.3428276 -3.078162749 0)
(104.2596995 -2.881544116 0)
(102.2690518 -2.935949899 0)
(102.3320587 -3.208128872 0)
(100.1649778 -2.893316803 0)
(99.25235398 -3.067465969 0)
(98.94059162 -3.337261188 0)
(100.4317034 -3.124722145 0)
(105.8099766 -2.189879341 0)
(105.4064469 -2.354505164 0)
(105.2517526 -2.544814665 0)
(105.2434274 -2.405599123 0)
(104.660407 -2.54530295 0)
(104.536787 -2.758898484 0)
(104.4018994 -2.583666922 0)
(102.1771988 -2.616778683 0)
(102.2466217 -2.851698374 0)
(100.0263569 -2.576793766 0)
(99.57952377 -2.747894178 0)
(99.34298474 -2.983447001 0)
(100.5162111 -2.783376866 0)
(106.0138175 -1.982610654 0)
(105.5891377 -2.126604406 0)
(105.4544598 -2.294828149 0)
(105.4193784 -2.171244736 0)
(104.8016655 -2.291691455 0)
(104.6980592 -2.478681527 0)
(104.5164539 -2.323497264 0)
(102.0839011 -2.341573022 0)
(102.1537622 -2.544081944 0)
(99.91839825 -2.305625271 0)
(99.82407734 -2.469406556 0)
(99.64764137 -2.674608526 0)
(100.5654052 -2.490613112 0)
(106.1930493 -1.799042036 0)
(105.7496419 -1.926270886 0)
(105.6311691 -2.074021638 0)
(105.5735266 -1.965644833 0)
(104.9208932 -2.070367255 0)
(104.8333557 -2.233466279 0)
(104.609333 -2.096930956 0)
(101.9944689 -2.104549841 0)
(102.0610155 -2.278933841 0)
(99.8402835 -2.07326612 0)
(100.0044548 -2.227603226 0)
(99.87452296 -2.40567387 0)
(100.5915505 -2.239665109 0)
(106.3521324 -1.637947773 0)
(105.8919642 -1.751436513 0)
(105.7867916 -1.880246787 0)
(105.7097487 -1.786464775 0)
(105.022263 -1.878226241 0)
(104.9477711 -2.019703494 0)
(104.6849946 -1.900527373 0)
(101.9126558 -1.900857989 0)
(101.9731566 -2.050683203 0)
(99.7907174 -1.874750145 0)
(100.1364345 -2.018685027 0)
(100.0414337 -2.172429218 0)
(100.6024277 -2.025087544 0)
(106.4947077 -1.498046124 0)
(106.0192832 -1.600258973 0)
(105.9250935 -1.711488957 0)
(105.8311363 -1.631686958 0)
(105.1088597 -1.712619954 0)
(105.0452037 -1.834432461 0)
(104.7464748 -1.731320916 0)
(101.841793 -1.726669402 0)
(101.8938043 -1.854684485 0)
(99.76860761 -1.70624392 0)
(100.2329953 -1.839404465 0)
(100.1634536 -1.971194391 0)
(100.603259 -1.842551302 0)
(106.6238107 -1.378069349 0)
(106.1341681 -1.47101036 0)
(106.0490812 -1.565958827 0)
(105.9401509 -1.499433525 0)
(105.1828202 -1.57114904 0)
(105.1284609 -1.675079181 0)
(104.7958023 -1.586707916 0)
(101.7850562 -1.578730175 0)
(101.8261741 -1.687317979 0)
(99.77310292 -1.564775031 0)
(100.3042188 -1.687142006 0)
(100.2528477 -1.798899859 0)
(100.5975793 -1.688541517 0)
(106.741831 -1.276711993 0)
(106.2386678 -1.361953593 0)
(106.1611969 -1.441921698 0)
(106.0387351 -1.387838911 0)
(105.2457414 -1.451574081 0)
(105.1995359 -1.539290831 0)
(104.8344543 -1.464336318 0)
(101.7447216 -1.454662749 0)
(101.7733841 -1.545564042 0)
(99.80242376 -1.447467546 0)
(100.3573552 -1.559598869 0)
(100.3189728 -1.653023886 0)
(100.5876086 -1.560012626 0)
(106.8506826 -1.192562734 0)
(106.3344004 -1.271417696 0)
(106.263366 -1.337644944 0)
(106.1284046 -1.295143829 0)
(105.2989261 -1.351902797 0)
(105.2598964 -1.424853704 0)
(104.8640055 -1.362267388 0)
(101.7213444 -1.352450293 0)
(101.7373075 -1.427131107 0)
(99.8535557 -1.351713977 0)
(100.397364 -1.454689878 0)
(100.3684338 -1.531328254 0)
(100.5746629 -1.454420125 0)
(106.9521637 -1.124271774 0)
(106.4227793 -1.197992543 0)
(106.3571302 -1.251503414 0)
(106.2104739 -1.219911339 0)
(105.3438409 -1.270740386 0)
(105.310869 -1.329920961 0)
(104.8863177 -1.279160982 0)
(101.7139895 -1.270442708 0)
(101.7180664 -1.330112161 0)
(99.92288516 -1.275459709 0)
(100.4276989 -1.370540249 0)
(100.4057454 -1.431771795 0)
(100.559587 -1.36971578 0)
(107.0479231 -1.071124448 0)
(106.5051115 -1.14069294 0)
(106.4438818 -1.182188876 0)
(106.2862068 -1.161129638 0)
(105.3820738 -1.207099812 0)
(105.3539628 -1.253221591 0)
(104.903291 -1.214042941 0)
(101.721 -1.207343194 0)
(101.7144709 -1.252939925 0)
(100.0068851 -1.217301883 0)
(100.450825 -1.305692622 0)
(100.4340788 -1.352566701 0)
(100.5430004 -1.304396494 0)
(107.1391786 -1.032361134 0)
(106.582589 -1.098715548 0)
(106.52489 -1.128791845 0)
(106.3568179 -1.117984075 0)
(105.4152332 -1.160181712 0)
(105.3907768 -1.193830555 0)
(104.9167304 -1.166106573 0)
(101.7406042 -1.162185078 0)
(101.724794 -1.194405103 0)
(100.1024403 -1.176285001 0)
(100.4685233 -1.259057281 0)
(100.4557028 -1.292362894 0)
(100.5253432 -1.25735684 0)
(107.2270686 -1.007345846 0)
(106.6563728 -1.07131409 0)
(106.601335 -1.090528964 0)
(106.42354 -1.089729991 0)
(105.4449999 -1.129368961 0)
(105.4229224 -1.150989282 0)
(104.9284168 -1.134776027 0)
(101.7711543 -1.134348677 0)
(101.7472764 -1.153619984 0)
(100.2068896 -1.151815153 0)
(100.482098 -1.229856367 0)
(100.4722646 -1.250146254 0)
(100.5068895 -1.227798436 0)
(107.3224683 -0.9944260955 0)
(106.7357702 -1.056524393 0)
(106.6742969 -1.066638282 0)
(106.4951004 -1.074255906 0)
(105.4772527 -1.112856576 0)
(105.4520904 -1.124135673 0)
(104.9426267 -1.118821122 0)
(101.8162594 -1.124765921 0)
(101.7801151 -1.130002479 0)
(100.3307428 -1.144415199 0)
(100.4932041 -1.216250366 0)
(100.4849116 -1.225300834 0)
(100.4853473 -1.213982813 0)
(91.78875148 -9.902018751 -5.696318399e-19)
(91.38510917 -9.633677503 5.78759468e-19)
(91.81449338 -9.232866638 -1.078579055e-18)
(94.28125259 -11.18287477 -4.506597753e-19)
(93.82424008 -10.96101412 4.813175772e-19)
(94.24015039 -10.44118559 0)
(90.42012275 -20.56905371 6.60519634e-19)
(93.40598895 -8.157210383 0)
(92.70427541 -7.78799803 0)
(93.5605177 -7.28273287 -1.794926909e-20)
(91.56608783 -8.74126668 8.404533055e-19)
(92.4174211 -8.00744006 -2.865255693e-21)
(93.12772103 -8.414314371 6.112025933e-19)
(95.50811308 -8.937388449 9.862671666e-19)
(94.7074394 -8.670921645 -5.367641211e-19)
(95.42574639 -8.067061113 -5.117957062e-19)
(93.82317848 -9.92010876 -6.945126561e-19)
(94.47110031 -8.960735946 -5.319842478e-19)
(95.31112913 -9.250645279 1.172030857e-21)
(93.38088128 -8.539136509 -5.881900397e-19)
(94.18487418 -8.870578949 -1.474117962e-20)
(93.50059007 -9.801188419 5.584792682e-19)
(93.01265979 -10.58992553 -5.177011373e-19)
(92.51986032 -10.34377348 5.390986105e-19)
(92.943504 -9.873621803 -9.919664422e-19)
(90.78759957 -11.16529161 -9.566185554e-19)
(91.51744645 -11.15992666 -4.518553122e-19)
(91.585218 -11.21227972 9.224547501e-19)
(90.78633367 -10.44705118 -1.457876457e-18)
(90.84543354 -10.49908217 8.200508494e-22)
(90.43961628 -10.53305542 1.12612362e-21)
(80.34681085 -7.546019041 5.662735235e-19)
(81.16314364 -8.806510192 -4.287837238e-19)
(96.65291384 -10.74635095 -4.018947136e-19)
(73.06364248 -10.82147079 0)
(79.29781426 -11.21109406 2.749671977e-19)
(91.00555741 -19.74916007 -6.603341873e-19)
(92.29060714 -17.54148005 1.254472002e-20)
(90.30912367 -10.3702212 9.83847172e-19)
(90.6864699 -10.34055635 -9.695575228e-19)
(90.7322289 -10.39406736 0)
(90.44423435 -9.714545557 4.97801067e-19)
(89.83779565 -9.866634012 -1.06725283e-18)
(91.68560296 -9.138837268 5.476402792e-19)
(91.25438431 -9.542917016 -5.900966971e-19)