/*--------------------------------*- C++ -*----------------------------------*\
| =========                 |                                                 |
| \\      /  F ield         | OpenFOAM: The Open Source CFD Toolbox           |
|  \\    /   O peration     | Version:  v2012                                 |
|   \\  /    A nd           | Website:  www.openfoam.com                      |
|    \\/     M anipulation  |                                                 |
\*---------------------------------------------------------------------------*/
FoamFile
{
    version     2.0;
    format      ascii;
    class       volVectorField;
    location    "0.12";
    object      U;
}
// * * * * * * * * * * * * * * * * * * * * * * * * * * * * * * * * * * * * * //

dimensions      [0 1 -1 0 0 0 0];


internalField   nonuniform List<vector> 
3019
(
(102.8943699 -30.71267387 9.696077741e-20)
(107.1058216 -20.0006418 -6.813367315e-19)
(107.0696863 -14.05611589 -3.288885979e-19)
(105.8196423 -9.892266742 -3.033813508e-19)
(104.3171638 -7.022380335 1.447542507e-19)
(102.912791 -5.076539701 2.008945429e-19)
(101.4975867 -3.653309477 -6.710151443e-20)
(100.7419464 -2.70230817 0)
(99.89423479 -1.859277271 0)
(99.52303656 -1.258404001 1.196772007e-20)
(99.29012029 -0.7344217911 2.206378593e-21)
(99.17027947 -0.2418877156 -7.154104634e-21)
(96.00984024 -20.00572952 1.04699853e-19)
(101.9474107 -16.3894183 4.923478112e-19)
(103.2634823 -12.71799287 3.737197632e-19)
(103.0802875 -9.577851077 0)
(102.3455682 -7.155733167 -4.212207861e-19)
(101.4567428 -5.360794171 1.469454548e-21)
(100.461971 -3.920053888 -9.318453535e-20)
(99.92670727 -2.940092904 -3.5083397e-20)
(99.26471211 -2.013661996 -1.948191319e-20)
(98.97045746 -1.36821085 1.918762919e-20)
(98.78221035 -0.8008553768 0)
(98.68436973 -0.2637198819 1.917810463e-20)
(97.544724 -12.98620178 0)
(99.86799038 -12.57847464 -2.35955517e-20)
(100.8741021 -10.75526956 2.852689933e-20)
(101.0003263 -8.676331502 3.878233964e-20)
(100.6582421 -6.820533676 -2.069635411e-20)
(100.1215161 -5.319289618 -2.485135147e-20)
(99.44792234 -3.971669895 0)
(99.10941354 -3.032829294 0)
(98.61107773 -2.077218785 -3.62148605e-20)
(98.38784526 -1.422682423 1.787129295e-20)
(98.24314172 -0.8352310795 7.48812193e-22)
(98.16682082 -0.2750779417 -1.320770646e-20)
(98.4749505 -9.89275956 8.292138562e-20)
(99.18374768 -9.851049459 -1.043089831e-19)
(99.51812478 -8.924321122 9.846187386e-21)
(99.53210197 -7.596128433 1.253230034e-19)
(99.31276673 -6.243639625 3.737586128e-20)
(98.97243254 -5.046096899 0)
(98.52393444 -3.859785556 -3.050217939e-20)
(98.3331866 -3.006858205 4.642890326e-20)
(97.96372876 -2.066708852 1.125911067e-20)
(97.80145118 -1.428648148 1.922117959e-20)
(97.69457512 -0.8409341537 -2.183317345e-20)
(97.63709392 -0.2770173977 0)
(99.02070226 -7.947094459 9.880582088e-20)
(98.88550213 -7.955464796 -4.161851682e-20)
(98.70839062 -7.415574211 0)
(98.51112365 -6.554770906 9.290058772e-20)
(98.27407036 -5.590015927 0)
(98.02409109 -4.652300708 0)
(97.72013483 -3.648933078 0)
(97.61766911 -2.890120648 0)
(97.34608585 -1.999167026 3.896658175e-20)
(97.23173399 -1.395218305 -3.645197181e-20)
(97.15449468 -0.8228093925 -2.464351182e-21)
(97.11195712 -0.2714741859 2.472619885e-21)
(99.24283206 -6.592195696 2.694019964e-20)
(98.65550162 -6.572005072 1.352745736e-19)
(98.15876157 -6.219169925 -1.202010527e-19)
(97.78514337 -5.637979305 0)
(97.48788601 -4.94063065 0)
(97.26015985 -4.212692831 0)
(97.02809845 -3.372935473 0)
(96.97392594 -2.710468601 0)
(96.77121913 -1.889205673 0)
(96.6914348 -1.33025205 0)
(96.63633735 -0.7871443732 0)
(96.60487448 -0.2607879869 0)
(99.30642964 -5.552932251 -1.835493687e-20)
(98.46796493 -5.511610573 7.294412465e-22)
(97.77461053 -5.265582626 0)
(97.26190816 -4.853917445 0)
(96.89264991 -4.334578257 0)
(96.64823016 -3.76417389 0)
(96.44220805 -3.066531069 0)
(96.40719951 -2.497102571 0)
(96.24663639 -1.753988001 0)
(96.18896705 -1.245028268 0)
(96.14828526 -0.7387066586 0)
(96.12527206 -0.245355682 0)
(99.34996314 -4.713985902 0)
(98.34468702 -4.673042949 0)
(97.50305158 -4.489695569 0)
(96.87578214 -4.184465889 0)
(96.43465709 -3.788347066 0)
(96.15522322 -3.33563206 0)
(95.94953541 -2.755757614 0)
(95.91371794 -2.270244951 0)
(95.77489073 -1.606588023 0)
(95.72912996 -1.148471785 0)
(95.69642108 -0.6830145541 0)
(95.67858405 -0.2273317168 0)
(99.36955017 -4.030836563 -3.405620557e-35)
(98.24864708 -3.990423653 0)
(97.29910889 -3.847797774 0)
(96.58217124 -3.613789334 0)
(96.07618868 -3.304983121 0)
(95.75560357 -2.941889065 0)
(95.53490924 -2.457528797 0)
(95.48627259 -2.044089798 0)
(95.35483077 -1.456335527 0)
(95.31308438 -1.047455185 0)
(95.28329992 -0.624198425 0)
(95.26818 -0.208199629 0)
(99.36867693 -3.466490528 0)
(98.16898613 -3.425867022 0)
(97.14026781 -3.310926074 0)
(96.35316793 -3.126584027 0)
(95.79108407 -2.881221663 0)
(95.4298217 -2.586859326 0)
(95.1847749 -2.180431565 0)
(95.11684392 -1.827518423 0)
(94.98315813 -1.309712562 0)
(94.93975722 -0.9470130411 0)
(94.90924066 -0.5653100796 0)
(94.89494342 -0.1889742754 0)
(99.35504864 -2.993449465 -4.185256328e-35)
(98.10092529 -2.95309339 0)
(97.01302514 -2.858080088 0)
(96.17077448 -2.709680744 0)
(95.5609976 -2.51155203 0)
(95.16157614 -2.27022891 0)
(94.88849236 -1.927638765 0)
(94.79766177 -1.625641888 0)
(94.65558533 -1.170958051 0)
(94.60674596 -0.8505637009 0)
(94.57302727 -0.508456888 0)
(94.55817456 -0.170350351 0)
(99.33337461 -2.593256502 0)
(98.04169381 -2.553647583 0)
(96.90889659 -2.473675648 0)
(96.0229951 -2.352176873 0)
(95.37294825 -2.190057869 0)
(94.93872918 -1.990281849 0)
(94.6368687 -1.700203718 0)
(94.52170201 -1.441073542 0)
(94.36756126 -1.042589272 0)
(94.31093532 -0.7602670125 0)
(94.27244677 -0.4550073514 0)
(94.25607937 -0.1527837499 0)
(99.306671 -2.252743614 1.30100958e-35)
(97.98951453 -2.214223297 0)
(96.82233359 -2.146028855 0)
(95.90163224 -2.045260692 0)
(95.21765699 -1.911188899 0)
(94.75218826 -1.744454222 0)
(94.42229229 -1.497786822 0)
(94.28277493 -1.274783761 0)
(94.11460914 -0.9258850138 0)
(94.0488846 -0.6773715485 0)
(94.00472001 -0.405785273 0)
(93.98620315 -0.1365545632 0)
(99.27689666 -1.962093409 0)
(97.94314574 -1.924884732 0)
(96.74952146 -1.866166355 0)
(95.80089144 -1.781759035 0)
(95.0883146 -1.669931726 0)
(94.59501279 -1.529818842 0)
(94.23855313 -1.319242671 0)
(94.0754974 -1.126717151 0)
(93.89248131 -0.8212885796 0)
(93.81706596 -0.6024794486 0)
(93.7667932 -0.3612178421 0)
(93.74573742 -0.1218139098 0)
(99.24535674 -1.713853853 0)
(97.90166717 -1.678093228 0)
(96.68772699 -1.627141292 0)
(95.71656191 -1.555874477 0)
(94.97982362 -1.46193297 0)
(94.46182633 -1.343480495 0)
(94.08058999 -1.163059441 0)
(93.8952465 -0.9962491733 0)
(93.69722915 -0.728712842 0)
(93.61200716 -0.5357494602 0)
(93.55551607 -0.3214512423 0)
(93.53170878 -0.1086204124 0)
(99.21298496 -1.502173622 0)
(97.86435456 -1.467948333 0)
(96.63489199 -1.42343674 0)
(95.64546006 -1.362847882 0)
(94.88824147 -1.283420726 0)
(94.34834936 -1.182704386 0)
(93.94418771 -1.027555761 0)
(93.7379922 -0.8824202597 0)
(93.52522194 -0.6477452628 0)
(93.43037285 -0.4770512632 0)
(93.36775548 -0.2864450254 0)
(93.34110429 -0.0969705066 0)
(99.18044239 -1.322528943 0)
(97.83060797 -1.289820622 0)
(96.58941215 -1.250663202 0)
(95.58511361 -1.198798965 0)
(94.81045707 -1.13120099 0)
(94.25112608 -1.045035193 0)
(93.82582695 -0.9110767143 0)
(93.60024171 -0.7841510442 0)
(93.37316793 -0.577814281 0)
(93.26903867 -0.4260902848 0)
(93.20050309 -0.2560497053 0)
(93.17099405 -0.08682381317 0)
(99.14810293 -1.171303491 0)
(97.7998773 -1.139990338 0)
(96.54997642 -1.105258581 0)
(95.53353205 -1.060521747 0)
(94.74393743 -1.002563836 0)
(94.16725691 -0.9282895473 0)
(93.72252564 -0.8120780176 0)
(93.47892931 -0.7003522204 0)
(93.23803446 -0.5182741801 0)
(93.12505615 -0.3824853647 0)
(93.05086323 -0.2300548788 0)
(93.01852536 -0.07811824679 0)
(99.11617465 -1.045490279 -1.44706767e-36)
(97.77165757 -1.01542561 0)
(96.51548663 -0.9843196756 0)
(95.48907937 -0.9453743292 0)
(94.68660088 -0.8952465382 0)
(94.09432754 -0.8308345301 0)
(93.63165317 -0.7293047564 0)
(93.37133067 -0.629975331 0)
(93.11717672 -0.4685217984 0)
(92.99580713 -0.3458264504 0)
(92.91623644 -0.2082352977 0)
(92.88113324 -0.07078742164 0)
(99.08482502 -0.9425793848 0)
(97.74551238 -0.9136549974 0)
(96.4850096 -0.8854884332 0)
(95.45038062 -0.8511873924 0)
(94.63671876 -0.8073346781 0)
(94.03051229 -0.7510667129 0)
(93.55077061 -0.6616083112 0)
(93.27499468 -0.5720828665 0)
(93.00774399 -0.4278744205 0)
(92.87841557 -0.3157075879 0)
(92.79369917 -0.1903480099 0)
(92.75586012 -0.06475181751 0)
(99.05423528 -0.8605438343 0)
(97.72107324 -0.8326935446 0)
(96.45772901 -0.8068650745 0)
(95.41622772 -0.7761895368 0)
(94.59273209 -0.7372014137 0)
(93.97394451 -0.6870296784 0)
(93.47794758 -0.6075561172 0)
(93.18764504 -0.5256630819 0)
(92.90880866 -0.3961589499 0)
(92.77195281 -0.2917932295 0)
(92.68236692 -0.1762569242 0)
(92.64194731 -0.0599859731 0)
(99.02458682 -0.7978960424 0)
(97.69801419 -0.7710362696 0)
(96.43291106 -0.7469859265 0)
(95.38553553 -0.7190049315 0)
(94.55320786 -0.683617567 0)
(93.92261324 -0.6378843769 0)
(93.41156625 -0.56620187 0)
(93.1074104 -0.490637074 0)
(92.81346283 -0.3713020965 0)
(92.66871841 -0.2736530596 0)
(92.57417969 -0.1655674532 0)
(92.53087533 -0.05630721425 0)
(98.99597344 -0.7535710319 0)
(97.67600468 -0.7275528493 0)
(96.40986453 -0.7047335351 0)
(95.35731127 -0.6785781733 0)
(94.51689664 -0.6456452727 0)
(93.87524249 -0.6029717232 0)
(93.34989951 -0.5370473832 0)
(93.03268727 -0.4660337066 0)
(92.73900396 -0.3575061277 0)
(92.58877986 -0.2621061975 0)
(92.49041089 -0.1590196283 0)
(92.44523849 -0.05414652185 0)
(98.96842772 -0.7267535305 0)
(97.65472712 -0.7013952141 0)
(96.38794941 -0.6792736534 0)
(95.33065588 -0.6541378956 0)
(94.4826525 -0.6225814517 0)
(93.83054208 -0.5816679816 0)
(93.29403577 -0.5198043089 0)
(92.96552294 -0.4517418695 0)
(92.60506676 -0.3418330836 0)
(92.44206797 -0.2522506935 0)
(92.33655884 -0.1530353594 0)
(92.28752547 -0.05179580402 0)
(102.6623371 -31.50977662 3.608937054e-19)
(103.6083148 -31.12279726 0)
(108.1964537 -21.99809173 -6.19212665e-19)
(94.65911454 -21.14751643 1.463488983e-19)
(102.3098715 -31.36192929 -3.294282015e-19)
(96.18127576 -21.40419776 -4.660107199e-20)
(102.1815215 -18.59603618 -5.092573583e-20)
(107.2151691 -21.72806419 0)
(96.34083105 -13.41610545 0)
(94.64759555 -20.37324215 0)
(107.0552539 -26.73425516 6.678682906e-19)
(96.88787596 -26.65831807 -1.960096824e-20)
(97.40451558 -27.37799086 2.289912598e-20)
(98.42193685 -26.87392642 0)
(102.5874249 -23.88492028 -5.177790338e-19)
(105.8214523 -26.13145423 5.311771807e-19)
(104.7671641 -32.62984794 0)
(99.82527684 -29.89481439 -3.835657777e-20)
(104.9650496 -32.7362123 -1.194853812e-20)
(105.9508666 -32.49832407 -5.105057949e-19)
(108.3160614 -30.15513751 6.132024735e-19)
(99.17423399 -29.33116044 -2.380592851e-20)
(97.24963939 -14.07492372 0)
(99.65279512 -13.82475786 0)
(101.2082144 -17.32198267 -2.952939405e-19)
(105.487804 -29.00459662 0)
(107.5882344 -29.90590562 0)
(105.6505498 -32.37507795 0)
(99.72702105 -20.16322759 -2.050530711e-19)
(101.7096147 -22.992803 -3.900047549e-19)
(97.90330974 -26.20607389 -3.791433809e-20)
(95.1340603 -16.35644751 -1.915908128e-19)
(92.7279805 -30.58247985 -2.59702728e-18)
(105.380248 -32.8850229 6.147636906e-19)
(90.59855456 -24.89727117 4.330522019e-19)
(95.63346077 -24.36493506 -2.838739273e-21)
(95.52277339 -31.48263599 -2.573067318e-19)
(97.7339259 -32.02389666 -4.640913152e-19)
(103.949866 -32.23251533 4.319774221e-19)
(92.73790683 -30.93193697 0)
(90.42146682 -30.38074669 -1.368804646e-18)
(95.31461286 -31.53767285 -3.550028186e-19)
(93.28195752 -31.11073372 -2.670096244e-18)
(81.35643149 -28.35675105 2.65521934e-19)
(96.66930192 -31.4223031 -5.182553125e-19)
(95.85613866 -31.63454983 -3.279897975e-19)
(96.44471885 -30.61386415 1.537705774e-19)
(96.71711441 -31.27223913 0)
(82.64498647 -28.49244435 4.417771774e-20)
(89.54773269 -30.17150739 0)
(105.3967506 -32.89006011 1.172395062e-18)
(93.30542852 -30.78821274 1.196044627e-20)
(94.01268144 -31.08385772 1.353723684e-20)
(108.3634046 -21.02769853 -6.637555946e-19)
(108.5573206 -15.56528961 7.468110202e-19)
(103.6342067 -32.1212095 -2.597045118e-21)
(98.09168652 -32.13153526 1.267616228e-18)
(98.78644476 -32.01034596 3.449039866e-19)
(101.2448132 -32.10246527 2.46378751e-18)
(105.1966127 -32.83482568 -1.041089751e-20)
(107.057315 -32.83389457 5.976930664e-19)
(108.8090214 -31.84899102 1.170513284e-18)
(84.51835737 -29.16403535 9.690626511e-19)
(83.65318385 -29.00766765 0)
(80.86878675 -28.27117475 1.163448184e-18)
(85.63822325 -29.30772903 2.105978122e-18)
(84.25422653 -29.10592122 -2.19347492e-18)
(95.6944396 -29.38829226 0)
(96.26258779 -30.39119659 1.211315172e-19)
(96.15354475 -30.97003622 -3.598341197e-18)
(96.99934061 -31.35070703 -4.508181239e-18)
(95.73581059 -31.05092834 2.440688768e-18)
(91.42680921 -30.59067534 1.970640287e-19)
(86.99993301 -29.65159674 -1.564562986e-17)
(87.58038061 -29.80360913 0)
(90.16550141 -30.3856368 -9.943068658e-19)
(94.54014234 -31.38851335 6.658127505e-20)
(88.39054938 -30.00016574 -7.559756435e-20)
(90.01366494 -30.38761707 3.558077075e-19)
(87.46851481 -29.76231244 2.036656098e-18)
(86.96924185 -29.73947621 -7.892824826e-19)
(93.78418161 -31.30362306 1.159596829e-18)
(88.23744625 -29.96679648 -4.134020772e-22)
(87.24823256 -29.67668832 -1.415238574e-19)
(81.66761878 -28.42615704 -7.699744184e-19)
(83.98735327 -28.74700083 -7.089018978e-19)
(89.78507828 -30.09404953 7.283397573e-19)
(89.07389359 -30.01640908 -1.387106588e-20)
(93.16092594 -30.80095365 0)
(98.62449262 -31.96276174 1.213510334e-18)
(98.19783253 -31.74669327 3.39577341e-19)
(99.65577356 -32.27751065 -1.589402727e-20)
(99.01898927 -32.17929059 0)
(92.65552039 -30.81262398 0)
(108.2320648 -14.17562268 3.297261887e-19)
(107.0317681 -10.7547257 5.085581807e-19)
(106.5899899 -9.819830597 3.419791886e-19)
(105.26305 -7.51543274 0)
(104.8367631 -6.889304272 -7.534289219e-20)
(103.6437042 -5.352201804 -5.673814249e-19)
(100.8142101 -29.30348084 1.751424124e-20)
(102.9039804 -27.35981191 -6.795104234e-19)
(104.8141719 -28.6377434 0)
(102.9094667 -17.41244248 -9.575365496e-19)
(103.9994785 -14.14146367 0)
(107.2647709 -15.36356062 0)
(104.074715 -13.14482391 0)
(103.8699589 -10.49798026 -2.334273285e-19)
(106.1824008 -10.79395667 3.034486307e-19)
(103.7072929 -9.728899882 -1.199827792e-19)
(103.0598382 -7.740579765 -5.935950264e-19)
(104.6912875 -7.640305611 -2.908939623e-19)
(102.8157345 -7.174765037 -6.071757994e-20)
(102.064774 -5.731392663 -4.580513056e-20)
(103.2477241 -5.491186292 2.218767069e-20)
(96.26843027 -16.59045386 1.904817843e-19)
(98.52032717 -16.63537997 0)
(99.30824236 -19.20652866 0)
(100.1887912 -13.43145294 0)
(101.1964891 -11.84212153 1.114275694e-19)
(103.1394119 -13.60462488 -2.064870457e-19)
(101.3541983 -11.24980828 -7.089011307e-20)
(101.4978996 -9.492443989 1.659232011e-19)
(103.2008042 -10.29660092 -2.061008869e-19)
(101.458356 -8.931880935 5.269700714e-21)
(101.1778753 -7.396455466 -2.737073388e-19)
(102.5513771 -7.694888824 4.881339929e-19)
(101.0478494 -6.93552443 2.816488022e-19)
(100.5987596 -5.715277247 0)
(101.682146 -5.758897408 0)
(97.57915529 -10.11552001 0)
(96.40081276 -12.30980924 0)
(98.26892969 -10.52639734 -1.092362141e-19)
(99.08223035 -10.57219064 0)
(99.420982 -12.87210778 -3.814363637e-20)
(99.29509703 -10.43923934 5.54461416e-20)
(99.7162507 -9.685390527 -1.234473115e-19)
(100.7291094 -11.26816995 4.885896962e-20)
(99.78766993 -9.35546504 8.269698199e-20)
(99.86810699 -8.249631429 -1.162328551e-19)
(101.0265938 -9.18684429 -3.875109964e-20)
(99.85052257 -7.867146709 -2.492086427e-19)
(99.69501969 -6.751668947 0)
(100.7702962 -7.25338946 3.666254292e-19)
(99.6178684 -6.400046691 1.599186959e-19)
(99.33645207 -5.425903266 0)
(100.2619126 -5.661779367 2.961131104e-21)
(98.70582622 -8.237532261 -8.33496138e-20)
(97.90609673 -9.579356477 7.060729353e-21)
(98.92038899 -8.363592565 8.273715979e-20)
(98.94226173 -8.430162166 -3.825324209e-22)
(99.03448185 -9.955360206 1.650965588e-20)
(98.94871662 -8.373773187 2.054719044e-20)
(98.90572061 -7.957041549 -1.954303763e-19)
(99.47178882 -9.211126173 0)
(98.87940443 -7.760785878 0)
(98.77766162 -7.062042743 0)
(99.55242468 -7.943130623 -2.077446889e-19)
(98.73383716 -6.806074076 -1.041284663e-19)
(98.57100426 -6.016596583 3.324439269e-21)
(99.38387344 -6.570559202 2.769852061e-19)
(98.50761351 -5.755152921 0)
(98.30641582 -4.996775633 0)
(99.05778521 -5.326943224 0)
(99.30503026 -6.820071836 -1.716943326e-19)
(98.9083802 -7.849679706 8.317491397e-20)
(99.20884064 -6.893618392 1.072568364e-19)
(98.83073964 -6.923329507 0)
(98.91604447 -8.006581639 5.118397557e-20)
(98.70986181 -6.881817984 -8.73878223e-21)
(98.37750601 -6.619040616 1.942636203e-19)
(98.75549443 -7.590173556 -3.360117901e-21)
(98.27911003 -6.49283872 -1.943409911e-19)
(98.02149264 -6.029056765 1.255443498e-19)
(98.56338016 -6.787123348 -8.545477031e-20)
(97.94466458 -5.853872642 0)
(97.73040968 -5.293598814 0)
(98.33758103 -5.832053597 1.157859541e-19)
(97.66394265 -5.09996867 0)
(97.48559564 -4.515360143 0)
(98.08328822 -4.879028551 0)
(99.48530435 -5.73421046 -1.011061245e-19)
(99.37651379 -6.520227995 -6.646362867e-20)
(99.29632707 -5.791473065 3.728230022e-20)
(98.69527972 -5.786899001 0)
(98.79730813 -6.611895389 -5.00095585e-20)
(98.50924624 -5.752540192 3.8689855e-20)
(98.00245856 -5.571281761 -1.959913695e-20)
(98.2708836 -6.333305045 1.636308393e-19)
(97.85725941 -5.485116402 1.736641521e-20)
(97.48401952 -5.163335847 0)
(97.86945384 -5.798065958 -5.879034185e-20)
(97.37762896 -5.038618956 0)
(97.10398559 -4.627088093 0)
(97.5564728 -5.120873263 0)
(97.02681972 -4.480839454 0)
(96.83740676 -4.027420783 0)
(97.30902114 -4.392330207 0)
(99.54687268 -4.881270418 0)
(99.50361356 -5.503486682 0)
(99.34105163 -4.908066687 0)
(98.60416924 -4.8913266 0)
(98.66729717 -5.543527129 0)
(98.3722116 -4.866276418 0)
(97.74582282 -4.732372969 0)
(97.93014411 -5.344718261 1.437557127e-21)
(97.56342364 -4.669756038 0)
(97.09449164 -4.434366159 0)
(97.37516737 -4.969279745 0)
(96.96225294 -4.341938627 0)
(96.62953895 -4.031444217 0)
(96.97313096 -4.471289706 0)
(96.53858229 -3.918983637 0)
(96.3225214 -3.563032101 0)
(96.69754362 -3.907955308 0)
(99.58521107 -4.178772399 0)
(99.5584815 -4.69228754 0)
(99.36698597 -4.189107409 0)
(98.53508297 -4.169277859 0)
(98.58570064 -4.696752793 0)
(98.2708661 -4.148750096 0)
(97.55506767 -4.045054824 0)
(97.69312493 -4.547946898 0)
(97.34518239 -3.997452626 0)
(96.80222314 -3.81867495 0)
(97.01377031 -4.270648841 0)
(96.64863479 -3.74806466 0)
(96.26296599 -3.508116393 0)
(96.52915398 -3.893966294 0)
(96.1580624 -3.420045084 0)
(95.90976481 -3.136944005 0)
(96.21079683 -3.452139475 0)
(99.59855625 -3.596819609 2.835940964e-35)
(99.59055388 -4.023278428 3.413331405e-35)
(99.3703249 -3.598136258 -2.829539335e-35)
(98.47502693 -3.575180505 0)
(98.5193795 -4.010129915 0)
(98.18767262 -3.557532769 0)
(97.40692971 -3.474029658 0)
(97.51467359 -3.892505327 0)
(97.17659496 -3.436551287 0)
(96.57638203 -3.296641853 0)
(96.74044117 -3.680077152 0)
(96.40546984 -3.241317368 0)
(95.97436035 -3.051988722 0)
(96.1844348 -3.388053884 0)
(95.85659149 -2.981858944 0)
(95.57601529 -2.753847549 0)
(95.81970908 -3.036708412 0)
(99.59465313 -3.108030558 0)
(99.59892743 -3.466725929 0)
(99.3593584 -3.104268851 0)
(98.42117955 -3.079316205 0)
(98.46104733 -3.442930328 0)
(98.11702637 -3.063795656 0)
(97.28817698 -2.994654581 0)
(97.3748688 -3.34638911 0)
(97.04239948 -2.964342759 0)
(96.39764131 -2.852204851 0)
(96.52786338 -3.178812654 0)
(96.21273721 -2.807949907 0)
(95.74332524 -2.655904899 0)
(95.91184596 -2.947629574 0)
(95.61414529 -2.599224737 0)
(95.30338481 -2.413309393 0)
(95.50272991 -2.664415328 0)
(99.57942438 -2.693848614 -3.508219549e-35)
(99.59172333 -2.998084708 4.19470109e-35)
(99.33936034 -2.68726023 3.500338795e-35)
(98.37226286 -2.661251278 0)
(98.4085234 -2.968156591 0)
(98.05578225 -2.647427562 0)
(97.19071149 -2.589057883 0)
(97.26205567 -2.886921783 0)
(96.93310103 -2.564050528 0)
(96.25340584 -2.472488612 0)
(96.35873423 -2.751648569 0)
(96.05719164 -2.436494886 0)
(95.55569877 -2.312611302 0)
(95.6927976 -2.565404339 0)
(95.4165757 -2.266225302 0)
(95.07844761 -2.113021347 0)
(95.24312675 -2.334251752 0)
(99.55686775 -2.340963496 0)
(99.5743505 -2.600319041 0)
(99.31369768 -2.332860537 0)
(98.32751785 -2.306458023 0)
(98.36070938 -2.567096034 0)
(98.00197277 -2.294042677 0)
(97.109344 -2.244082809 0)
(97.16902014 -2.497567256 0)
(96.84255843 -2.223149177 0)
(96.13523184 -2.1473248 0)
(96.22168383 -2.386432844 0)
(95.9298453 -2.117664715 0)
(95.40152803 -2.01554631 0)
(95.51433966 -2.234251269 0)
(95.25381507 -1.977195171 0)
(94.89125222 -1.849821007 0)
(95.02844426 -2.043588156 0)
(99.52961328 -2.039387038 -1.091240081e-35)
(99.55041422 -2.261092437 -1.30392441e-35)
(99.28454829 -2.030518383 1.088808316e-35)
(98.28640689 -2.004183463 0)
(98.31691725 -2.226321518 0)
(97.95424726 -1.992966801 0)
(97.04055875 -1.949771992 0)
(97.0910795 -2.166088424 0)
(96.76659826 -1.932058501 0)
(96.03725304 -1.868590806 0)
(96.10903126 -2.073567583 0)
(95.82439387 -1.843899676 0)
(95.27362713 -1.758939568 0)
(95.3673242 -1.947808978 0)
(95.11851859 -1.726967275 0)
(94.73431122 -1.620282465 0)
(94.8494342 -1.789160668 0)
(99.4994066 -1.781488243 0)
(99.52228439 -1.971078219 0)
(99.25335184 -1.772282278 0)
(98.24851556 -1.746331335 0)
(98.27664687 -1.935828821 0)
(97.91162068 -1.736149051 0)
(96.98186369 -1.698506876 0)
(97.0250206 -1.883178894 0)
(96.7022644 -1.683391959 0)
(95.95526963 -1.629818212 0)
(96.01539511 -1.805375419 0)
(95.73629395 -1.609095374 0)
(95.16669615 -1.537872103 0)
(95.24510453 -1.700517193 0)
(95.00522342 -1.511031158 0)
(94.60191269 -1.421103489 0)
(94.69910742 -1.567545038 0)
(99.46748674 -1.561213683 0)
(99.49154521 -1.723098083 0)
(99.22111517 -1.551937091 0)
(98.21349936 -1.526605386 0)
(98.23950391 -1.688038654 0)
(97.87332701 -1.517324518 0)
(96.93139639 -1.484300645 0)
(96.9685377 -1.641684926 0)
(96.64735561 -1.471311978 0)
(95.8861477 -1.425767292 0)
(95.93688772 -1.575731403 0)
(95.66214175 -1.408253202 0)
(95.07669358 -1.348147058 0)
(95.14274439 -1.487651 0)
(94.9097353 -1.325471896 0)
(94.48957525 -1.249220564 0)
(94.57210313 -1.375492989 0)
(99.43479456 -1.373836956 0)
(99.45935583 -1.511439285 0)
(99.18856966 -1.364646744 0)
(98.18105577 -1.340066671 0)
(98.2051583 -1.477022614 0)
(97.83874105 -1.331567756 0)
(96.88770735 -1.302401534 0)
(96.91988734 -1.435955368 0)
(96.60016842 -1.291164217 0)
(95.82747096 -1.252182092 0)
(95.8705799 -1.37965804 0)
(95.5993077 -1.237280531 0)
(95.00045855 -1.186224765 0)
(95.05645023 -1.305180764 0)
(94.82875663 -1.166947573 0)
(94.39371348 -1.101896916 0)
(94.46418905 -1.210014737 0)
(99.40194563 -1.215649192 0)
(99.42657944 -1.331684033 0)
(99.15615583 -1.206618417 0)
(98.15086802 -1.182805388 0)
(98.1733105 -1.298142605 0)
(97.8073058 -1.174970652 0)
(96.84961796 -1.149008298 0)
(96.87770177 -1.261513239 0)
(96.55933182 -1.139212278 0)
(95.77731753 -1.105599106 0)
(95.81420036 -1.21312648 0)
(95.54570023 -1.092827763 0)
(94.93545715 -1.049147735 0)
(94.98324336 -1.149731264 0)
(94.75963201 -1.032642781 0)
(94.31138796 -0.9767501469 0)
(94.37196923 -1.068472053 0)
(99.36932209 -1.083539497 0)
(99.39375659 -1.180288026 0)
(99.12410892 -1.07470567 0)
(98.1226 -1.051622109 0)
(98.14363388 -1.147676795 0)
(97.77850207 -1.044341134 0)
(96.81612989 -1.021014241 0)
(96.84085014 -1.114736918 0)
(96.52369858 -1.012397225 0)
(95.73410715 -0.9831579169 0)
(95.76591951 -1.072825648 0)
(95.49960264 -0.9721177935 0)
(94.87960606 -0.9344329587 0)
(94.92070928 -1.018460102 0)
(94.70017255 -0.9201857391 0)
(94.24012723 -0.8717792793 0)
(94.29262204 -0.9485591817 0)
(99.33721886 -0.9748820004 0)
(99.36123667 -1.054269803 1.450213386e-36)
(99.09259869 -0.9662799891 0)
(98.09594924 -0.9438983835 0)
(98.11579633 -1.02258355 0)
(97.75187541 -0.9370777106 0)
(96.78639409 -0.9158981133 0)
(96.80837464 -0.9926783658 0)
(96.49229898 -0.9082352651 0)
(95.69651974 -0.882520949 0)
(95.72423038 -0.9560365384 0)
(95.45958422 -0.8728728009 0)
(94.83118216 -0.8400120465 0)
(94.86686536 -0.9089992413 0)
(94.64857728 -0.8275879528 0)
(94.17799643 -0.7852701239 0)
(94.22381045 -0.8484008966 0)
(99.30592047 -0.887510082 0)
(99.32930735 -0.9511167449 0)
(99.06180061 -0.8791850915 0)
(98.07067015 -0.8575089192 0)
(98.08950919 -0.9203730227 0)
(97.72704095 -0.8510721484 0)
(96.75967351 -0.8316182913 0)
(96.77945798 -0.8929443988 0)
(96.46429041 -0.8247125967 0)
(95.66340833 -0.8017766034 0)
(95.68786408 -0.8605355986 0)
(95.42440068 -0.7932209191 0)
(94.78867342 -0.7641388964 0)
(94.82005657 -0.8193656745 0)
(94.60325754 -0.7531417871 0)
(94.12324475 -0.7155756833 0)
(94.16368917 -0.766287636 0)
(99.2757189 -0.8198082841 4.638805461e-36)
(99.29825673 -0.8687920697 0)
(99.03190347 -0.8118043273 -4.628952157e-36)
(98.0465609 -0.7908316307 0)
(98.06454103 -0.8390453424 0)
(97.70366738 -0.7847081782 0)
(96.73531355 -0.7665933283 0)
(96.7533867 -0.813610094 0)
(96.43892303 -0.7602647751 0)
(95.63374982 -0.7394281629 0)
(95.65570793 -0.7845155094 0)
(95.39293981 -0.7316937 0)
(94.75070089 -0.7054454686 0)
(94.77880571 -0.7479001858 0)
(94.56274089 -0.6955167122 0)
(94.07400669 -0.6615020076 0)
(94.11048184 -0.7005766337 0)
(99.24683347 -0.7706465081 -1.421849401e-36)
(99.26836839 -0.8058156743 0)
(99.00302877 -0.7629812228 1.418857748e-36)
(98.02340648 -0.7426555736 0)
(98.04069192 -0.7770929382 0)
(97.68142695 -0.7367698652 0)
(96.7126985 -0.7196162408 0)
(96.7295197 -0.7531971833 0)
(96.41549642 -0.7136937436 0)
(95.60660529 -0.6943228777 0)
(95.62676306 -0.7265737677 0)
(95.364187 -0.6871604411 0)
(94.71603772 -0.6628934077 0)
(94.74176983 -0.6933293722 0)
(94.52573741 -0.6537171812 0)
(94.02886788 -0.6222407285 0)
(94.06238982 -0.6502967283 0)
(99.21933462 -0.7391978791 0)
(99.23983085 -0.7611529662 0)
(98.97517759 -0.7318583894 0)
(98.00095802 -0.7120802299 0)
(98.01773935 -0.7333916411 0)
(97.65997485 -0.7063523492 0)
(96.6912321 -0.6897835213 0)
(96.70724773 -0.7105805671 0)
(96.39334148 -0.6841024474 0)
(95.58110374 -0.6656027688 0)
(95.60010892 -0.6856344733 0)
(95.3372067 -0.6587814662 0)
(94.68356253 -0.6357012445 0)
(94.70775668 -0.654680424 0)
(94.49106839 -0.6269785277 0)
(93.98651606 -0.597048932 0)
(94.01806593 -0.6146142908 0)
(99.19027819 -0.7237237437 -2.243202839e-37)
(99.2127307 -0.7340238392 0)
(98.94529243 -0.7169220236 2.239869356e-37)
(97.9763774 -0.6978658761 0)
(97.99546413 -0.7070952795 0)
(97.63647919 -0.6922353162 0)
(96.66787191 -0.6759118411 0)
(96.68600188 -0.6849179369 0)
(96.36928614 -0.6703274067 0)
(95.55353821 -0.6521808982 0)
(95.57490983 -0.6609070862 0)
(95.30806295 -0.6454949249 0)
(94.64849965 -0.6228557067 0)
(94.67567974 -0.631236711 0)
(94.45362699 -0.6142849465 0)
(93.94065619 -0.5847376663 0)
(93.97621903 -0.5928460944 0)
(102.9841625 -31.7582415 -3.607481477e-19)
(102.1963421 -32.03883874 -3.787222155e-19)
(101.9180218 -31.84495119 3.452343544e-19)
(104.3643902 -30.42811158 8.936032219e-19)
(105.0921378 -30.78997895 0)
(104.32794 -31.49591882 -4.395495576e-21)
(111.3710713 -22.79330783 -6.797766407e-20)
(111.2531204 -26.6506226 -8.70533634e-19)
(107.4874338 -25.50007962 -5.514018063e-19)
(95.33162595 -23.54253465 4.733659523e-20)
(90.64907319 -23.85498493 4.375147481e-19)
(98.88094306 -31.93050508 6.356355743e-19)
(98.65582885 -31.45200317 2.5741612e-19)
(101.1797639 -30.9293246 -1.107036456e-18)
(97.630419 -21.0917115 0)
(98.12296347 -22.35093367 2.232138168e-20)
(96.32511803 -23.3417275 6.867715376e-20)
(103.9504458 -19.76912128 3.580078238e-20)
(102.4528718 -22.12696742 0)
(100.4777267 -19.64639891 9.424062302e-20)
(106.3283034 -24.96272679 0)
(103.2964619 -22.91756261 0)
(104.7001442 -20.21089651 0)
(95.45993842 -15.46929878 4.93480693e-20)
(94.44076837 -18.57413088 2.271501742e-19)
(108.341215 -27.25904988 -8.030494238e-19)
(107.9798755 -29.19286505 5.91233415e-19)
(105.9311348 -28.31948189 -3.934601828e-20)
(108.6849478 -29.41443028 -6.303355803e-19)
(109.4211127 -27.20971178 6.191082362e-19)
(107.4294814 -32.93128219 6.521776286e-19)
(108.5468736 -32.73152176 0)
(95.64552658 -27.08074766 -6.48286797e-21)
(95.18637121 -26.28936748 8.768723238e-20)
(96.41636159 -25.92369027 5.637879167e-20)
(97.96238096 -28.06785282 0)
(96.6750401 -28.56045626 0)
(96.14507904 -27.83562002 -7.248067877e-21)
(100.6234163 -25.34488188 5.290592869e-19)
(102.2982329 -26.95374621 -3.669679161e-20)
(100.1702479 -28.74634509 2.399679806e-19)
(103.5691694 -24.71793635 7.278186429e-19)
(102.7688525 -25.7894639 2.155501559e-19)
(101.7141577 -24.85942079 6.301579343e-19)
(105.2914142 -27.98345609 -8.876578268e-19)
(103.9353606 -26.64969298 -1.29466192e-18)
(104.651269 -25.46839309 8.129251904e-19)
(103.2048877 -32.7264449 7.509575604e-19)
(103.1885834 -32.67692091 4.659911532e-19)
(104.529798 -32.51905293 -4.73670978e-19)
(90.61240607 -30.07032422 1.6219191e-19)
(90.23833841 -30.13620246 -1.675284268e-19)
(84.50789886 -28.82354317 7.490393109e-19)
(100.5002669 -30.43317649 5.850549449e-19)
(98.48744259 -31.25818401 0)
(97.77372247 -30.51761735 -1.858674431e-19)
(105.1514916 -32.83171704 -1.106683903e-20)
(102.9942428 -32.81088229 0)
(103.1150561 -32.76402369 -1.010911246e-18)
(107.3148674 -31.67672161 1.589618625e-19)
(108.0613826 -31.90579816 3.33058237e-19)
(106.8271973 -32.77974854 -1.154503311e-18)
(109.0568082 -30.38046355 -2.263321725e-20)
(108.6356886 -31.15654574 1.375114979e-18)
(107.882899 -30.92333537 -6.877886849e-19)
(109.3893702 -31.36419857 -5.289959192e-19)
(109.8021738 -30.58044841 -7.248221646e-19)
(97.81414192 -29.89577081 -4.981815991e-20)
(97.23550685 -29.25509801 7.728750706e-20)
(98.55208501 -28.72411789 -8.810059427e-20)
(91.45730854 -29.7881047 9.029882249e-20)
(91.04490364 -29.92381712 0)
(94.32312807 -28.23812445 1.010578744e-21)