/*--------------------------------*- C++ -*----------------------------------*\
| =========                 |                                                 |
| \\      /  F ield         | OpenFOAM: The Open Source CFD Toolbox           |
|  \\    /   O peration     | Version:  v2012                                 |
|   \\  /    A nd           | Website:  www.openfoam.com                      |
|    \\/     M anipulation  |                                                 |
\*---------------------------------------------------------------------------*/
FoamFile
{
    version     2.0;
    format      ascii;
    class       surfaceScalarField;
    location    "1.25";
    object      meshPhi;
}
// * * * * * * * * * * * * * * * * * * * * * * * * * * * * * * * * * * * * * //

dimensions      [0 3 -1 0 0 0 0];
oriented        oriented;


internalField   nonuniform List<scalar> 
6430
(
0
0
0
0
0
0
0
0
0
0
0
0
0
0
0
0
-1.922074533e-05
0
2.497413655e-05
1.718250898e-05
2.047766499e-05
-0.0001379415882
-8.851513653e-05
0.0001476108122
0.0001412994504
-0.000399534435
-0.0003500440668
0.000404636904
0.0004253431966
-0.0004603768139
-0.000627125261
0.000464012982
0.0006740563885
-0.0002931940916
-0.0007380579915
0.0002934726804
0.0003646017724
0.0003731776303
-3.813465557e-05
-0.0001810170273
3.818383929e-05
0.0001809678436
0
0
0
0
0
0
0
0
0
0
0
0
0
0
0
0
-2.853489763e-05
0
2.348398152e-05
2.715732942e-05
2.578294784e-05
-0.0001622531529
-0.0001227623671
0.0001572667054
0.0001921129073
-0.0004210019863
-0.000450007451
0.0004142865855
0.0005401431183
-0.0004618351821
-0.0007693422725
0.0004595288823
0.000821088126
-0.0002894374064
-0.0008761381132
0.0002894374063
0.0004338797235
0.0004422583897
-3.709393236e-05
-0.0004338797235
7.175605779e-05
-3.466212543e-05
0.000215765829
0.0002181138945
0
0
0
0
0
0
0
0
0
0
0
0
0
0
0
0
-1.46222061e-05
0
5.358688995e-06
1.421107975e-05
9.143674448e-06
-0.0001223488222
-0.0001009771472
0.0001057575449
0.0001708385431
-0.0003636939158
-0.0004498231753
0.0003374010105
0.0005522720254
-0.0004362627536
-0.0008269648204
0.0004208567725
0.0008955994245
-0.0002954270141
-0.001007221449
0.0002981773998
0.001014645255
-7.175605778e-05
-0.001013708396
0.0001337873824
0.001013708396
-6.203132457e-05
0
0
0
0
0
0
0
0
0
0
0
0
0
0
0
0
-1.306981823e-07
0
0
8.597750563e-08
0
-5.174668397e-05
-3.808120271e-05
3.536035995e-05
8.62123409e-05
-0.0002376871586
-0.0003226358341
0.0002005172766
0.0004207790794
-0.0003460101709
-0.0007167111354
0.000312130229
0.0008035500006
-0.0002800391055
-0.0009963617332
0.0002641038896
0.001036325945
-0.0001318160658
-0.001096477824
0.0001268886275
0.001101625174
0
0
0
0
0
0
0
0
0
0
0
0
0
0
0
0
0
0
0
0
0
-3.624944654e-06
-9.29960843e-08
5.928755931e-07
7.059944025e-06
-9.386988027e-05
-0.0001247008015
6.415907921e-05
0.0001907154153
-0.0001956225496
-0.0004273859485
0.0001562272705
0.0005081462084
-0.000192217095
-0.0007171841216
0.0001633643771
0.0007697528542
-9.906475136e-05
-0.0008649275425
8.6671217e-05
0.0008754921157
0
0
0
0
0
0
0
0
0
0
0
0
0
0
0
0
0
0
0
0
0
0
0
0
0
-7.19847055e-06
-3.412361492e-06
1.111418759e-06
1.595567161e-05
-5.582413533e-05
-0.0001121568529
3.215546551e-05
0.0001563215866
-7.840537238e-05
-0.0002919284056
5.437544333e-05
0.0003312071518
-4.693851512e-05
-0.000410396253
3.461999928e-05
0.0004211634887
0
0
0
0
0
0
0
0
0
0
0
0
0
0
0
0
0
0
0
0
0
0
0
0
0
0
0
0
0
-1.706952982e-07
0
0
6.072999524e-07
-7.033561519e-06
-1.669510424e-05
1.102093361e-06
2.589881062e-05
-7.165178397e-06
-5.047200437e-05
2.381526365e-06
5.476613693e-05
0
0
0
0
0
0
0
0
0
0
0
0
0
0
0
0
0
0
0
0
0
0
0
0
0
0
0
0
0
0
0
0
0
0
0
0
0
0
0
0
0
0
0
0
0
0
0
0
0
0
0
0
0
0
0
0
0
0
0
0
0
0
0
0
0
0
0
0
0
0
0
0
0
0
0
0
0
0
0
0
0
0
0
0
0
0
0
0
0
0
0
0
0
0
0
0
0
0
0
0
0
0
0
0
0
0
0
0
0
0
0
0
0
0
0
0
0
0
0
0
0
0
0
0
0
0
0
0
0
0
0
0
0
0
0
0
0
0
0
0
0
0
0
0
0
0
0
0
0
0
0
0
0
0
0
0
0
0
0
0
0
0
0
0
0
0
0
0
0
0
0
0
0
0
0
0
0
0
0
0
0
0
0
0
0
0
0
0
0
0
0
0
0
0
0
0
0
0
0
0
0
0
0
0
0
0
0
0
0
0
0
0
0
0
0
0
0
0
0
0
0
0
0
0
0
0
0
0
0
0
0
0
0
0
0
0
0
0
0
0
0
0
0
0
0
0
0
0
0
0
0
0
0
0
0
0
0
0
0
0
0
0
0
0
0
0
0
0
0
0
0
0
0
0
0
0
0
0
0
0
0
0
0
0
0
0
0
0
0
0
0
0
0
0
0
0
0
0
0
0
0
0
0
0
0
0
0
0
0
0
0
0
0
0
0
0
0
0
0
0
0
0
0
0
0
0
0
0
0
0
0
0
0
0
0
0
0
0
0
0
0
0
0
0
0
0
0
0
0
0
0
0
0
0
0
0
0
0
0
0
0
0
0
0
0
0
0
0
0
0
0
0
0
0
0
0
0
0
0
0
0
0
0
0
0
0
0
0
0
0
0
0
0
0
0
0
0
0
0
0
0
0
0
0
0
0
0
0
0
0
0
0
0
0
0
0
0
0
0
0
0
0
0
0
0
0
0
0
0
0
0
0
0
0
0
0
0
0
0
0
0
0
0
0
0
0
0
0
0
0
0
0
0
0
0
0
0
0
0
0
0
0
0
0
0
0
0
0
0
0
0
0
0
0
0
0
0
0
0
0
0
0
0
0
0
0
0
0
0
0
0
0
0
0
0
0
0
0
0
0
0
0
0
0
0
0
0
0
0
0
0
0
0
0
0
0
0
0
0
0
0
0
0
0
0
0
0
0
0
0
0
0
0
0
0
0
0
0
0
0
0
0
0
0
0
0
0
0
0
0
0
0
0
0
0
0
0
0
0
0
0
0
0
0
0
0
0
0
0
0
0
0
0
0
0
0
0
0
0
0
0
0
0
0
0
0
0
0
0
0
0
0
0
0
0
0
0
0
0
0
0
0
0
0
0
0
0
0
0
0
0
0
0
0
0
0
0
0
0
0
0
0
0
0
0
0
0
0
0
0
0
0
0
0
0
0
0
0
0
0
0
0
0
0
0
0
0
0
0
0
0
0
0
0
0
0
0
0
0
0
0
0
0
0
0
0
0
0
0
0
0
0
0
0
0
0
0
0
0
0
0
0
0
0
0
0
0
0
0
0
0
0
0
-0.0001790397305
0.0001790416136
-3.813653866e-05
-0.0002138188152
0.0002138188152
-3.709393236e-05
-0.0007036948112
-0.0002932250083
0.0003475833409
0.000356142387
8.35712547e-05
0.0001770366371
-8.349704452e-05
-0.0003561505778
-0.0008086420703
-0.0002907562307
0.0003846673419
0.0004252935528
8.148705351e-05
0.0002114747376
-8.14870535e-05
-0.0004252935528
0.000183530464
-0.0003645449313
8.356869472e-05
3.813224329e-05
-0.0001962744954
0.0001962574992
-3.811524711e-05
1.051509192e-05
9.841039908e-05
-1.047147678e-05
-9.845401421e-05
-1.071472525e-05
9.018223684e-05
-9.013575962e-05
1.066824804e-05
-0.0004939749421
0.0004939749421
-7.175605778e-05
8.980780836e-05
-1.074276751e-05
-8.97797661e-05
9.998061297e-06
8.9853335e-05
-1.004358794e-05
0.0002155497468
2.062989906e-05
-0.0002146456539
-1.129750412e-05
-1.023648786e-05
9.89788342e-05
-9.895900991e-05
1.049526763e-05
-0.0001983578832
3.817227048e-05
0.000198317856
-8.945201314e-06
8.986842922e-06
9.893719259e-05
1.760347052e-05
0.0002154521673
-9.594425397e-06
-7.91146562e-06
9.971633686e-06
9.020866445e-05
-8.894941576e-06
9.836013934e-05
-9.366143442e-05
3.243353864e-06
-1.040492432e-05
9.463909618e-05
-9.45970544e-05
1.036288254e-05
-2.852249696e-05
-0.0001897215721
2.855029523e-05
0.0001896937738
2.855525612e-05
-0.0001962452188
-2.847529181e-05
9.779140549e-05
9.837384901e-05
-2.857350783e-05
-0.0001809579704
2.859956825e-05
0.00018093191
-0.0001875650686
0.0001875664365
-2.852386488e-05
9.400806888e-05
-1.041933295e-05
-9.399366026e-05
-1.044065127e-05
8.624214981e-05
-8.62005415e-05
1.039904296e-05
-2.856865673e-05
-0.0001728262649
2.857693024e-05
0.0001728179914
-0.0001790418398
0.0001790457264
-2.857739443e-05
-0.0001705389267
0.0001705696184
-2.859934837e-05
8.571167311e-05
-1.048438662e-05
-8.566793777e-05
9.8504866e-06
8.57671332e-05
-9.905946682e-06
9.808127153e-06
8.628450926e-05
-0.0001982926149
2.860543193e-05
9.884419658e-05
9.939824249e-05
3.611060198e-05
-0.0002192932802
-3.153259132e-05
0.0001035196613
0.0001111956083
0.0001115969972
1.412222876e-05
-1.150951966e-05
-0.0001142097063
3.201788742e-05
-1.068328455e-05
9.026239432e-05
6.279941631e-06
-6.314199091e-06
-0.0001025483644
-5.05813358e-06
9.891307665e-05
-9.909733247e-05
5.242389391e-06
9.885408205e-06
9.39906505e-05
-9.867989827e-06
-1.693631785e-05
2.125503346e-06
-7.885061992e-05
9.837270943e-05
-4.820113791e-06
-9.861072922e-05
9.588907046e-05
-0.0001186709058
5.845517449e-06
9.838767789e-06
9.46857366e-05
3.79660441e-06
4.853705751e-06
-4.602511715e-06
-0.0009791057319
0.000979267115
-0.0002909774566
0.0001727021837
-0.0009791402591
0.0004851653169
-9.121513021e-05
-8.14870535e-05
-0.0004338797234
8.148705351e-05
7.175605779e-05
-0.0004596342475
0.0004596342475
-7.175605779e-05
0.0004596342475
4.257401925e-05
-4.257401926e-05
-0.0004596342475
0.0002165396869
-0.0002161703182
2.026053035e-05
9.671634975e-05
-1.046506146e-05
-9.687348473e-05
1.062219645e-05
-1.229920111e-05
-9.708524512e-05
1.235457179e-05
9.702987444e-05
1.232843197e-05
-9.837942591e-05
9.839776582e-05
-1.234677187e-05
1.763054576e-05
0.0002165126117
3.284702526e-05
0.0004596342475
-3.284702526e-05
1.002369853e-05
-8.332730213e-05
8.336833437e-05
-1.006473077e-05
-9.819690978e-06
-8.79389863e-05
9.97948284e-06
8.777919443e-05
0.0001281358022
-0.0001053451486
-8.668424818e-06
-0.000183264955
2.741000859e-05
9.90416662e-05
9.292388218e-05
-0.0002138262986
2.75726553e-05
0.0002136329798
-2.737933645e-05
-9.886704823e-05
1.23093485e-05
9.888613169e-05
1.218080129e-05
-0.0001006603864
0.0001007185319
-1.223894675e-05
0.0001007574576
1.052234463e-05
-1.050583158e-05
-0.0001007739706
5.12679035e-06
8.994387892e-06
-9.035433701e-06
0.0001007985034
-1.442145256e-05
9.968616189e-05
-2.828348695e-06
-8.243636063e-05
0.0002138086926
1.015691912e-05
-9.981924851e-06
-0.0002139836869
-0.00010059908
6.050013213e-06
0.0001601536896
9.901426379e-06
-9.242043596e-05
9.242277344e-05
-9.903763857e-06
1.131678536e-05
3.51715089e-06
8.188241351e-05
-1.219113295e-05
-9.456799681e-05
1.21757508e-05
9.458337896e-05
-9.615681664e-05
9.611385698e-05
-1.225624145e-05
9.580764303e-05
-1.036699519e-05
-9.590570931e-05
9.293055888e-05
-1.052196106e-05
-9.289011249e-05
1.048151467e-05
-1.224588801e-05
-9.27651825e-05
1.220583715e-05
9.280523335e-05
-9.396768524e-05
9.394995503e-05
-1.217340274e-05
-8.379905384e-05
9.977412081e-06
8.384534029e-05
-8.748622893e-05
8.738708911e-05
-9.720551158e-06
0.0001011309919
-0.0001012471941
1.063854689e-05
-0.0001010845781
1.212026167e-05
0.0001011451177
1.102776547e-05
-0.0001110653563
0.0001117110206
-1.167342974e-05
9.885014691e-05
-6.253540873e-06
-2.745503607e-06
-8.985110243e-05
0.0001012521606
-0.0001242754185
8.601805304e-06
9.132959998e-06
0.0001009924198
-2.088063416e-06
-1.476917868e-05
9.89270142e-05
-8.20697721e-05
6.511705163e-06
0.0001002802133
-7.105756574e-06
6.054307679e-06
0.0001005895521
-5.947715486e-06
-0.0001006961443
9.888582996e-06
9.294340227e-05
1.642778913e-05
-0.0001318748276
-4.72017117e-06
9.736344367e-05
-9.736138746e-05
4.718114963e-06
9.754929085e-05
-1.756984568e-05
-8.206750858e-05
9.692050836e-05
-4.332875898e-06
-9.730780363e-05
0.0001168253537
-9.700925328e-06
-1.230391955e-05
-9.006369389e-05
1.228578865e-05
9.008182478e-05
-9.228283137e-05
9.230308504e-05
-1.226614167e-05
-1.054955486e-05
-9.239284217e-05
-1.050694369e-05
-8.806680131e-05
1.06347587e-05
-1.223589234e-05
-8.826275477e-05
1.226044785e-05
8.823819926e-05
-8.97640966e-05
8.976373261e-05
-1.230355555e-05
-7.816210822e-06
8.279738705e-06
8.938980712e-05
-8.929007788e-05
-3.444722962e-06
8.491859003e-05
-1.006723869e-05
-8.926642714e-05
9.083292684e-06
-9.951936876e-05
9.9422919e-05
9.086625592e-05
9.906165097e-06
-9.080078733e-05
-8.453571523e-06
8.480262437e-06
9.0839565e-05
9.003483163e-05
-8.264646355e-06
-9.801479655e-05
9.738450133e-05
-1.222094856e-05
-8.615691017e-05
1.221289151e-05
8.616496722e-05
-8.772902801e-05
8.771933664e-05
-1.222620096e-05
-1.040566053e-05
-8.758751209e-05
-1.061645485e-05
-8.375060249e-05
1.05680035e-05
-1.224693654e-05
-8.368426605e-05
1.223727153e-05
8.369393106e-05
-8.562439691e-05
8.562693126e-05
-1.22234829e-05
-9.296986475e-06
9.284987409e-06
8.577913227e-05
-8.517469291e-05
8.519171865e-05
-9.314012223e-06
-8.513794393e-05
-9.942695666e-06
8.675730627e-05
9.757930655e-06
-8.670710977e-05
-9.254201003e-06
9.196858333e-06
8.681464894e-05
8.631529566e-05
-0.0001045984941
0.0001039178969
-1.082892243e-05
1.057727049e-05
-1.096531972e-05
-0.0001042104449
9.166934794e-06
-0.0001127993706
0.0001081486011
1.724673886e-05
-0.00012539534
-8.554490975e-06
0.0001017891033
-0.0001007965017
6.024846297e-06
6.6976113e-06
0.0001010662545
5.52227469e-06
9.915628219e-05
-5.828409973e-06
-8.450362876e-06
8.591009141e-06
9.385000424e-05
-9.360839627e-05
-8.392348484e-06
9.355038188e-05
-9.874735497e-06
-9.36016506e-05
-5.623479387e-06
-8.259698622e-05
1.59694196e-05
-0.0001346403254
9.453862049e-05
7.192947357e-07
-7.928849562e-05
4.630221089e-06
9.575391684e-05
9.520805708e-05
9.731163556e-06
-9.510045284e-05
-8.570869759e-06
9.290200314e-06
9.448872652e-05
9.470587598e-05
3.972987312e-06
-3.627952139e-06
7.821833819e-06
-8.303924751e-05
8.305580981e-05
7.886155213e-06
-8.338790652e-05
8.332358513e-05
-0.0001069928282
-1.51492305e-05
0.0001221420587
8.847902791e-05
-8.856678376e-05
1.019479341e-05
7.483951154e-05
-9.018840333e-06
-0.000100798173
1.093511829e-05
0.0001008908202
1.241077443e-05
-0.0001050387973
0.000105284456
-1.265643316e-05
0.000109724558
1.27799297e-05
-1.548116382e-05
-0.0001070233239
-0.0001002711406
0.0001002513793
-1.048607034e-05
1.107314981e-05
-1.109183012e-05
-0.0001002524603
1.106976769e-05
-0.0001007705885
0.0001002992383
-1.852054783e-05
9.880714305e-05
-8.311494392e-05
0.0001239703667
-0.0001424909145
1.160022035e-05
0.0001155210629
-1.739672526e-05
4.599719996e-06
0.0001067918812
-3.06174029e-06
-0.0001083298609
9.361124082e-05
-0.0001095085711
9.643789374e-06
-8.46875635e-06
8.442027766e-06
9.244950202e-05
-9.168057806e-05
9.169208415e-05
-9.167817682e-05
-9.751483682e-05
9.276734135e-05
7.968427902e-06
-7.977820513e-06
8.520111127e-05
7.9691273e-06
8.577843287e-05
7.94143282e-06
-8.38704644e-05
8.38151868e-05
-8.449880168e-05
8.446241398e-05
-9.087607002e-06
8.745585578e-05
-8.71458062e-05
8.725505753e-05
-8.71084267e-05
8.671743794e-06
-7.941931419e-06
8.652524515e-05
8.097836907e-05
7.972964655e-06
8.631145831e-05
8.684568217e-05
1.104333213e-05
-0.0001012207586
0.0001021902186
-0.0001021122062
0.000101999843
-9.645618015e-05
-7.645643414e-06
0.00010135632
-1.09334162e-05
-4.165506905e-06
-8.135725705e-05
7.364082469e-06
1.918009898e-05
-0.0001434555175
9.852256041e-05
-8.350796834e-05
9.94787223e-05
0.0001025783121
0.0001005485954
8.652592598e-06
-6.366428162e-06
0.0001002653648
6.649658789e-06
-6.51167982e-06
9.907226586e-05
9.331211598e-05
-9.329826848e-05
-8.418383047e-06
9.333815054e-05
9.296704698e-05
-7.970920113e-05
-1.558339429e-06
-1.53679594e-05
9.700966727e-05
-8.008336844e-05
-1.686290955e-05
9.607907451e-05
-8.077450439e-05
-7.646839786e-06
9.868445081e-05
-0.0001215530838
9.853828465e-05
-0.0001391229295
0.0001202722672
-0.0001371351767
-9.561064899e-05
9.590799418e-05
-1.601750247e-05
-7.887385178e-05
6.946961076e-06
-1.669682708e-05
0.0001335221808
-9.528071988e-05
8.787409311e-05
-9.525048166e-05
-8.272873169e-05
0.0001344765747
-0.000137927091
0.0003330625133
0.00034400357
-0.0003397667689
-0.0002637111177
0.0004045695975
-0.0003967372596
0.0005946667783
0.0004732384168
-0.0004713620196
-0.0005381134795
0.0006411557695
-0.000459067345
0.0003372424048
-0.0003379652263
-0.0006968451529
-0.0001078412499
0.0001687806914
-0.0001590021199
0.0003979408805
0.0003669467886
-0.0003643381791
-0.0003167712908
-0.0002700524994
0.0003492415407
0.0004795900654
-0.0004191756415
0.0006943094558
0.0004798809061
-0.0004809266548
-0.0006309915663
-0.0005670193976
0.0004732194663
0.0007456000902
-0.0004636835565
0.0003304992853
-0.000332789279
-0.0008035116011
-0.0007317716881
0.0003365044912
0.000295748686
-0.0007749663848
0.0003817989681
0.000390891411
0.0001223445718
0.0003907789585
-0.0001223326932
-0.0003907908371
-0.0001222963375
0.0003645670271
-0.0003645799039
0.0001223092144
3.813088691e-05
-0.0001876051129
0.0001875849325
-3.811070645e-05
3.09329431e-05
-3.092348694e-05
-0.0001875745248
-3.094497492e-05
-0.0001809462079
3.093321236e-05
-0.0001116001183
0.000183206107
-0.0001368729801
0.0004616726666
0.0003094633688
-0.0003310552096
-0.000362174659
-0.0003593469061
0.0003600841197
0.0005620027772
-0.0003854749757
0.0008251918048
0.0004426885051
-0.0004578547512
-0.000747664738
-0.0007033319597
0.0004760275217
0.0008884422034
-0.0004474014296
0.00034094091
-0.0003389341465
-0.0009655978851
-0.0008742350925
0.000331944349
0.0009106823243
0.0002894626395
-0.0009106962576
0.0002505200581
0.0004596342475
-0.0001301211222
-0.0001203989359
0.0004510480768
-0.0001203989359
0.0004338797234
-0.0004338797235
0.0001203989359
7.175605778e-05
-0.0004422583897
0.0002200569203
0.0002222014694
2.979829931e-05
0.0002222014694
-2.979829931e-05
-0.0002222014694
-2.980079384e-05
0.0002157683235
-0.000215765829
2.979829931e-05
-5.489160599e-05
0.0001106661443
-6.956356159e-05
0.0003649988024
0.0001895408469
-0.0002228823832
-0.0002691182721
-0.0003491640191
0.0002837606891
0.0004665596599
-0.000273581522
0.0007629327218
0.0003358846371
-0.0003693063742
-0.0006695156713
-0.0007448054049
0.0004229493983
0.0008466339768
-0.0003757217785
0.001022609328
0.0003091094497
-0.0003244370001
-0.0009771294982
-0.0009858627633
0.0003398555251
0.001055707208
-0.0002910089046
0.001099152086
0.0001708175455
-0.0001740552559
-0.001091789032
-0.001013708396
0.0001727021837
0.001102040737
-0.0001341748264
-2.653794356e-06
2.034309433e-05
-1.050160531e-05
0.0001738051882
6.339667335e-05
-9.143555512e-05
-0.0001079690828
-0.0002316044347
0.0001557083087
0.0002505033534
-0.0001273258353
0.0005109817652
0.0001777750754
-0.0002185393448
-0.0004226551912
-0.0006217594328
0.0002989007171
0.00059637941
-0.0002356894515
0.0008101186417
0.0002039173384
-0.0002351747266
-0.0007478254301
-0.0009443485881
0.0002887269863
0.0008620137422
-0.0002193504588
0.0009532775462
0.0001268984565
-0.0001417279552
-0.0009334561099
-0.001084826287
0.0001641540799
0.0009629226463
-0.0001101848789
0
0
0
1.717232136e-05
1.532832636e-06
-8.025716032e-06
-3.255236017e-06
-7.043052808e-05
3.9571389e-05
4.396507062e-05
-2.005165948e-05
0.0001801411799
4.315384624e-05
-7.004508322e-05
-0.0001279222998
-0.0003454055943
0.0001385334543
0.0002356423075
-8.506860553e-05
0.0003966790091
7.815641057e-05
-0.0001071500834
-0.0003461998962
-0.0006551312003
0.0001712897382
0.0004414500871
-0.0001052853382
0.0005291610645
5.857941039e-05
-7.558989233e-05
-0.0005085630424
-0.0008438266288
0.0001104682571
0.0005404949426
-6.007433434e-05
0
0
0
0
0
0
0
0
0
0
0
3.535638893e-06
0
-1.193795299e-06
-2.338851886e-07
-7.245374575e-05
2.237544639e-05
1.070032042e-05
-4.055186944e-06
5.539949597e-05
5.14637078e-06
-1.563488748e-05
-3.820985125e-05
-0.0002484235302
5.269380337e-05
7.275319059e-05
-1.810952463e-05
0.0001129969783
8.330194188e-06
-1.717412596e-05
-0.0001025962288
-0.0003914277444
4.277878536e-05
0.0001194334111
-1.433245434e-05
0
0
0
0
0
0
0
0
0
0
0
0
0
0
0
0
0
0
0
0
0
0
0
-8.944173116e-06
3.866676388e-07
0
0
0
0
0
0
-4.376841389e-05
2.57924464e-06
0
0
0
0
0
0
0
0
0
0
0
0
0
0
0
0
0
0
0
0
0
0
0
0
0
0
0
0
0
0
0
0
0
0
0
0
0
0
0
0
0
0
0
0
0
0
0
0
0
0
0
0
0
0
0
0
0
0
0
0
0
0
0
0
0
0
0
0
0
0
0
0
0
0
0
0
0
0
0
0
0
0
0
0
0
0
0
0
0
0
0
0
0
0
0
0
0
0
0
0
0
0
0
0
0
0
0
0
0
0
0
0
0
0
0
0
0
0
0
0
0
0
0
0
0
0
0
0
0
0
0
0
0
0
0
0
0
0
0
0
0
0
0
0
0
0
0
0
0
0
0
0
0
0
0
0
0
0
0
0
0
0
0
0
0
0
0
0
0
0
0
0
0
0
0
0
0
0
0
0
0
0
0
0
0
0
0
0
0
0
0
0
0
0
0
0
0
0
0
0
0
0
0
0
0
0
0
0
0
0
0
0
0
0
0
0
0
0
0
0
0
0
0
0
0
0
0
0
0
0
0
0
0
0
0
0
0
0
0
0
0
0
0
0
0
0
0
0
0
0
0
0
0
0
0
0
0
0
0
0
0
0
0
0
0
0
0
0
0
0
0
0
0
0
0
0
0
0
0
0
0
0
0
0
0
0
0
0
0
0
0
0
0
0
0
0
0
0
0
0
0
0
0
0
0
0
0
0
0
0
0
0
0
0
0
0
0
0
0
0
0
0
0
0
0
0
0
0
0
0
0
0
0
0
0
0
0
0
0
0
0
0
0
0
0
0
0
0
0
0
0
0
0
0
0
0
0
0
0
0
0
0
0
0
0
0
0
0
0
0
0
0
0
0
0
0
0
0
0
0
0
0
0
0
0
0
0
0
0
0
0
0
0
0
0
0
0
0
0
0
0
0
0
0
0
0
0
0
0
0
0
0
0
0
0
0
0
0
0
0
0
0
0
0
0
0
0
0
0
0
0
0
0
0
0
0
0
0
0
0
0
0
0
0
0
0
0
0
0
0
0
0
0
0
0
0
0
0
0
0
0
0
0
0
0
0
0
0
0
0
0
0
0
0
0
0
0
0
0
0
0
0
0
0
0
0
0
0
0
0
0
0
0
0
0
0
0
0
0
0
0
0
0
0
0
0
0
0
0
0
0
0
0
0
0
0
0
0
0
0
0
0
0
0
0
0
0
0
0
0
0
0
0
0
0
0
0
0
0
0
0
0
0
0
0
0
0
0
0
0
0
0
0
0
0
0
0
0
0
0
0
0
0
0
0
0
0
0
0
0
0
0
0
0
0
0
0
0
0
0
0
0
0
0
0
0
0
0
0
0
0
0
0
-3.093535031e-05
-0.0001790514644
-3.096598108e-05
-0.0001728011796
3.094089584e-05
-3.816421807e-05
-0.0001727684557
3.814659211e-05
0.0001727860816
-2.980557055e-05
-0.0002138215219
-3.077978264e-05
-0.0001823030026
2.981783024e-05
-3.839420184e-05
-0.0001804601878
3.709393236e-05
0.0001817604573
7.716603553e-06
-7.724972813e-06
0.0003561479009
-0.0001223143247
-0.0003561299136
0.0003302582468
-0.0003302592507
0.0001222797781
-0.0006691112302
0.0003302576237
0.0003388339083
0.0001661059351
-0.0003302740104
8.353542603e-05
0.0001125999076
0.0003302546743
0.0001125971041
0.0003561465253
-0.0001125957285
0.0004252935528
-0.0001203989359
-0.0004252935528
0.0004019466701
-0.0004019699913
0.0001223678929
-0.0008105716998
0.0004026461128
0.0004129180423
-8.362728021e-05
0.0002009514539
-0.0004020157127
8.633365585e-05
-0.000112635053
0.0001125692985
0.0004020124247
0.0001106708592
0.0004252935528
-0.0001106708592
0.0001126065696
0.0003645575615
0.0003907688111
-0.0001126249057
0.0001943502656
-8.348776129e-05
-0.0003907642799
3.092880071e-05
-3.091845706e-05
-0.0001962555625
-0.0001897219591
3.093333015e-05
-0.0001897190956
3.813088431e-05
0.0001897190982
-9.790159309e-05
-1.058468025e-05
1.119307209e-05
-1.125415314e-05
-9.784051205e-05
1.116524265e-05
-9.842618477e-05
1.128074528e-05
-1.131968417e-05
-9.009682074e-05
9.073281735e-05
-9.06673576e-05
1.121528553e-05
1.060027806e-05
0.0004939749421
4.257401925e-05
-4.257401927e-05
-0.0004939749421
0.0004682204181
-0.0004682204181
4.257401924e-05
-0.0004682204181
7.175605778e-05
0.0004682204181
3.284702525e-05
0.0004682204181
3.284702525e-05
0.0004939749421
-3.284702526e-05
-0.0002159615333
7.913242862e-06
-0.0002222013898
-7.911740023e-06
-8.927962305e-05
-1.072957159e-05
1.132418541e-05
-1.129671195e-05
-8.930709651e-05
-8.977526487e-05
-8.323985766e-05
8.323866346e-05
-1.224574234e-05
-1.067247207e-05
-8.32712849e-05
-0.0001705196232
0.0001705280191
-3.817261393e-05
-3.096178511e-05
-0.0001705431227
0.0001094056348
-0.0001079632547
1.133754962e-05
-0.0001057197792
1.217020493e-05
0.0001059603487
-0.0002140412597
2.28987986e-05
-1.196809155e-05
-1.153510128e-05
1.113110304e-05
-9.89248703e-05
9.951017148e-05
-9.947089856e-05
-0.000217095718
0.0002176621685
-3.896065238e-05
-3.097812958e-05
-0.0002190949333
-0.0001983046052
3.094079108e-05
0.0002145324055
1.463385108e-05
-7.331193095e-06
-6.382896184e-06
0.0001066663912
-0.0001082836182
6.216947081e-06
9.848774078e-06
0.0001111570811
1.09562987e-05
-1.097205812e-05
-9.458129497e-05
9.506644221e-05
-9.507380369e-05
1.096366019e-05
1.03288719e-05
0.0001917598919
2.86335768e-05
-0.0001918431735
-2.61878255e-05
1.284154075e-05
9.548373399e-05
1.346562607e-05
-2.61632461e-05
9.510119762e-05
1.285572111e-05
-1.287151381e-05
-9.836363321e-05
-9.70984748e-05
1.285477043e-05
-0.0001944197099
9.706181026e-05
9.751618465e-05
0.0001836362739
2.855202839e-05
-0.000183588734
-2.636265413e-05
2.620873581e-05
9.150736081e-05
-2.615691469e-05
9.066247669e-05
-2.606996316e-05
9.350546833e-05
-0.0001858001495
9.317373968e-05
-0.000185771986
-9.357623349e-05
-1.044475007e-05
1.100327178e-05
-1.105193398e-05
-9.352757128e-05
-9.39624466e-05
1.100122948e-05
-1.10416335e-05
-8.616013747e-05
8.668733703e-05
-8.669914236e-05
1.10130348e-05
1.037927022e-05
0.0001749579272
2.856717166e-05
-0.0001749481687
-2.619216319e-05
2.621371238e-05
8.720735004e-05
-2.622118579e-05
8.66901038e-05
-2.620704376e-05
8.93317589e-05
-0.0001770705674
8.881448123e-05
-0.0001770807902
0.0001660991904
2.859044517e-05
-0.0001661147589
2.618912771e-05
8.284421072e-05
-2.628464596e-05
8.500868164e-05
-0.0001681339097
8.435412541e-05
-0.0001681428129
-8.510383945e-05
-1.051849109e-05
1.105590589e-05
-1.111138806e-05
-8.504835727e-05
-8.565366539e-05
2.87144152e-05
-0.0002008647551
0.0001001308562
0.0001006249156
1.279046622e-05
-1.281024313e-05
-0.0001006406095
-9.887111765e-05
1.285979054e-05
1.213522795e-05
-1.247404979e-05
-0.0001107265345
-0.0001010434137
1.274930185e-05
-0.000205597334
0.0001010338038
0.0001017453541
-0.0001005077112
-6.11509231e-06
6.222363929e-06
-6.052694413e-06
-0.0001006773808
-9.938468415e-05
3.058683699e-06
5.503136033e-06
-5.528202638e-06
9.993018008e-05
5.838320763e-06
5.625866896e-06
9.954670258e-05
-9.828494459e-05
-4.574573026e-06
9.803940382e-05
5.454481049e-06
-5.20114098e-06
3.711008083e-06
4.277361545e-06
-0.0002505200581
0.000979140259
0.0002508392815
-0.0009450270069
0.0009450270069
-0.0009457826715
-8.148705351e-05
-0.0004682204181
8.148705351e-05
0.0002116094491
-0.0001106708592
0.0004682204181
0.0004768065888
-0.00010093859
0.0002116094491
0.0001106708592
0.0004338797234
0.0004596342475
-0.0001106708592
-8.148705351e-05
-0.0004596342475
-6.203132458e-05
0.0004596342475
6.203132458e-05
-0.0004510480768
0.0004510480768
-3.223302526e-05
-0.0004510480768
-0.0004510480768
-2.007118844e-05
0.0004510479122
-2.250266626e-05
5.230324787e-05
-2.736649238e-05
-2.493675549e-05
5.230324787e-05
2.736877466e-05
0.0002159722041
0.0002222014694
-2.736649237e-05
0.0002222006466
-2.007036564e-05
-0.0002222014694
1.125480373e-05
-9.698131277e-05
-1.114697569e-05
9.747732062e-05
-9.747667002e-05
9.751114921e-05
1.235178493e-05
-9.750836235e-05
-1.180799633e-05
1.184247552e-05
-1.175943466e-05
-1.180517294e-05
1.177675399e-05
-9.780320947e-05
-9.779819642e-05
1.76392966e-05
0.0002222003228
-1.763897272e-05
1.034369554e-05
-1.03440194e-05
-0.0002222010659
-0.0002161525733
1.034795915e-05
-2.311920323e-05
2.311920323e-05
-0.0004510478326
-1.277567227e-05
-1.520764899e-05
-9.37311997e-06
9.35354782e-06
-8.300453102e-05
-8.294898452e-05
5.415413259e-06
-0.0001015936271
7.799667018e-05
-8.71107834e-05
1.452952648e-05
5.711630756e-05
1.22119378e-05
0.0002091460571
2.759912877e-05
-0.0002093351772
2.560496527e-05
0.0001040514417
-1.285514524e-05
-1.269400195e-05
-0.0001004645342
1.180158912e-05
-2.534625631e-05
2.493797643e-05
-0.0002117045077
0.0001062434375
-0.0002114847153
9.94427166e-05
1.22625354e-05
-9.939590349e-05
-1.173801539e-05
1.170983343e-05
-1.166967681e-05
1.161762023e-05
-0.0001002123037
-0.000100188715
-5.615044157e-06
-0.0002120009073
-9.636707018e-06
0.0002116556895
1.205234544e-05
-5.093607317e-06
-0.0001072529415
-5.040312808e-06
1.260106409e-05
6.0044211e-06
9.312909441e-05
0.0001057874247
-4.089150841e-06
-8.084428808e-06
1.98274333e-05
0.0001739776581
-0.00010544069
-8.99166796e-05
4.383837077e-06
-4.760417914e-05
7.795647976e-05
-3.473613769e-05
9.060848022e-05
-6.897790428e-05
9.50844628e-05
1.219248563e-05
-1.159257018e-05
1.160322928e-05
-1.159048619e-05
-1.166206146e-05
9.601648378e-05
-9.541997817e-05
9.536114598e-05
-9.528860495e-05
1.103620122e-05
1.108847863e-05
-9.28492566e-05
-1.112933452e-05
9.326150387e-05
-9.322495922e-05
9.320056987e-05
1.217900696e-05
-1.164386584e-05
1.161947649e-05
-1.168788909e-05
-1.160297776e-05
-9.351107255e-05
8.44843902e-05
-8.444967378e-05
-9.328423702e-06
0.0001019296546
1.197607523e-05
-0.0001017854682
-1.15419794e-05
1.135942785e-05
-1.092407567e-05
9.835725658e-06
-0.0001037750927
-0.0001034724472
-6.403681037e-06
0.0001006475172
6.036377178e-06
-0.0001003539791
0.0001005999568
-0.0001004203688
0.0001000985202
6.017908828e-06
5.969281658e-06
5.664648125e-06
9.747317441e-05
9.761671635e-05
9.06518341e-05
1.229643124e-05
-1.179702195e-05
1.178149845e-05
-1.181201791e-05
-1.173429256e-05
9.234948851e-05
-9.153765038e-05
9.158485627e-05
-9.162745362e-05
1.117268818e-05
1.122841285e-05
-8.818374548e-05
-1.111146868e-05
8.866159665e-05
-8.872989574e-05
8.877419042e-05
1.230073866e-05
-1.175741e-05
1.180170468e-05
-1.170295622e-05
-1.182355017e-05
-8.932894201e-05
8.668855112e-05
1.22144442e-05
-1.161938053e-05
1.160878929e-05
-1.161455079e-05
-1.164158784e-05
8.765796825e-05
-8.719559327e-05
8.716279473e-05
-8.713481702e-05
1.104101252e-05
1.113765217e-05
-8.371367215e-05
-1.117458251e-05
8.440016138e-05
-8.437389728e-05
8.434310052e-05
1.224829641e-05
-1.168694379e-05
1.165614703e-05
-1.170668488e-05
-1.164128492e-05
-8.503349515e-05
6.096934033e-06
-0.0001009241541
0.0001012702866
-0.000101226047
9.964127103e-05
6.535062562e-06
-6.178477572e-06
4.593701591e-06
-5.979293386e-06
5.750891426e-06
-0.0001020629725
9.061725411e-05
1.218801411e-05
-9.187014994e-05
-9.132918797e-06
1.263938951e-05
-1.325756939e-05
0.0001057685378
1.277348758e-05
-0.0001035830226
0.0001029648427
-0.000103197154
0.0001448322978
1.429721518e-05
1.304242916e-05
-1.973057586e-06
0.000111248616
6.245504433e-06
-0.0001604255652
0.0001108483285
-0.0001072571519
1.851748e-05
8.567793165e-05
1.842460331e-06
1.748716227e-06
4.761215458e-06
-1.153600838e-05
6.81691876e-05
9.633045698e-05
0
0
0
0
0
0
1.20040161e-05
1.485706324e-05
8.121759363e-05
-8.046216e-05
-4.234276341e-05
0
0
0
0
0
0
0
0
2.270418806e-05
2.386975906e-05
0.0001001601647
-9.73716248e-05
-5.889826704e-05
-4.651069099e-05
8.849789869e-05
0.0001569006672
0.0001539006485
-9.921052056e-05
-0.000214769276
0.0002223417086
0.0002237035991
-0.0002030434568
0.0002026316473
0.0004505629091
-0.0003735006535
0.0004135855629
-0.0004455084501
0.0004538669733
0.0005250341479
-0.0004422703381
0.0004987244568
0.0007101299442
-0.0006548538284
0.000463129265
-0.0004312900575
0.0004312873099
0.0007474785145
-0.0004308818929
0.000710107127
0.0001835650068
3.814929652e-05
-3.573071205e-05
3.572682889e-05
0.00018356889
-3.571868375e-05
0.0001809558153
0
0
0
0
0
0
0
0
2.299761285e-05
1.900983127e-05
7.004119524e-05
-8.083685959e-05
-5.614198712e-05
-6.700812645e-05
9.63203329e-05
0.0001938946186
0.000148684912
-0.0001226467417
-0.0002255905084
0.0002153128218
0.0002765622742
-0.0002315257279
0.0002721204996
0.0005554466304
-0.0004614221417
0.0004024091872
-0.0004533239985
0.0004423476233
0.0006449816249
-0.0004594615954
0.0006258234642
0.0008499554477
-0.0007953779909
0.0004549233132
-0.0004272998263
0.0004255368001
0.00088781524
-0.0004279224243
0.0008564869416
0
0
0
0
0
0
0
0
4.551517481e-06
1.322120568e-06
2.167240784e-05
-3.299978945e-05
-1.800744804e-05
-4.80912816e-05
5.79822874e-05
0.0001540793456
8.787740946e-05
-8.74279405e-05
-0.0001626832335
0.0001400353493
0.0002357291048
-0.0001832848793
0.0002547775868
0.0005329103144
-0.0004294145897
0.000307129169
-0.0003803467809
0.0003505265894
0.0006348602887
-0.0004057799907
0.0006520105147
0.0008917512996
-0.000817614672
0.0004007350063
-0.0004045246065
0.0003893702353
0.0009514762711
-0.0004150949203
0.0009488164252
0.001042127315
-0.001025670311
0.0002969487684
-0.0002545227746
0.0002562479662