/*--------------------------------*- C++ -*----------------------------------*\
| =========                 |                                                 |
| \\      /  F ield         | OpenFOAM: The Open Source CFD Toolbox           |
|  \\    /   O peration     | Version:  v2012                                 |
|   \\  /    A nd           | Website:  www.openfoam.com                      |
|    \\/     M anipulation  |                                                 |
\*---------------------------------------------------------------------------*/
FoamFile
{
    version     2.0;
    format      ascii;
    class       surfaceVectorField;
    location    "1.91";
    object      Uf;
}
// * * * * * * * * * * * * * * * * * * * * * * * * * * * * * * * * * * * * * //

dimensions      [0 1 -1 0 0 0 0];


internalField   nonuniform List<vector> 
5999
(
(99.99789846 0.009002504429 -2.221010286e-21)
(99.99156895 0.00819320862 6.587299872e-21)
(99.9969644 0.02107347183 -2.187331556e-21)
(99.98870026 0.02725603592 2.239721508e-21)
(99.99512004 0.0401601166 -4.357675954e-21)
(99.98213636 0.05604306556 1.319340555e-20)
(99.99787443 0.04473139491 1.337798384e-21)
(99.97053016 0.1007573696 -8.626137519e-21)
(99.98768197 0.09858109812 -1.44674582e-21)
(99.99706086 0.08040687771 2.088564919e-21)
(99.99895612 0.04786645003 1.025784676e-21)
(99.98573113 0.1310099303 2.070425379e-21)
(99.99674524 0.07403355316 1.006964466e-21)
(99.99758883 0.05877366175 -1.048648253e-21)
(99.99601503 0.09297626846 1.006923339e-21)
(99.97839233 0.2078655598 1.999653018e-21)
(99.99569737 0.1160814043 0)
(99.99551861 0.1411768504 -3.593916389e-21)
(99.9725258 0.3102516805 -3.593897684e-21)
(99.99497939 0.1705617622 -9.300004939e-22)
(99.9944096 0.2037281589 3.129488859e-21)
(99.9658359 0.4427250233 3.375516458e-21)
(99.99393624 0.2403024172 4.149090555e-22)
(99.99364541 0.2793620934 -2.63554339e-21)
(99.96243965 0.5983482149 3.803603812e-22)
(99.99362193 0.3195468872 -2.597583268e-21)
(99.99395413 0.3589457473 4.42986164e-22)
(99.96608357 0.7550647212 -1.685919815e-21)
(99.99445253 0.395219435 2.367573279e-21)
(99.99510379 0.4262102009 1.924403075e-21)
(99.97857942 0.8757772126 -8.252839183e-22)
(99.99644018 0.4491800881 0)
(99.98057038 0.0251511476 1.09902907e-20)
(99.96792863 0.01380358923 3.329388393e-22)
(99.97126436 0.05937635283 1.750848694e-20)
(99.95661269 0.04657671974 -1.539440636e-20)
(99.9537617 0.1130058224 9.154885203e-21)
(99.93194237 0.09719853283 -2.377823135e-20)
(99.94595547 0.1759624115 -1.561135817e-21)
(99.88997081 0.1773993778 4.578236288e-20)
(99.90832145 0.2223536971 -1.006266226e-20)
(99.92056146 0.2248900054 -2.162294779e-21)
(99.93950525 0.2208377166 4.236244033e-21)
(99.96255879 0.1576186292 2.105071853e-21)
(99.94216803 0.2565629742 2.041672148e-21)
(99.92285567 0.282354396 2.085495946e-21)
(99.87082396 0.3717077154 -4.227070399e-21)
(99.90453037 0.3586174322 -2.87942377e-23)
(99.91294693 0.4057993161 1.999966839e-21)
(99.88345096 0.4516010826 -2.370751997e-23)
(99.8097101 0.5886749325 0)
(99.87284545 0.5234839277 0)
(99.83905592 0.6004700239 -2.481285606e-21)
(99.88385854 0.5952685885 -4.860080176e-21)
(99.86777335 0.6297414156 -7.312804253e-23)
(99.83109851 0.7270697774 -1.092981185e-20)
(99.85830409 0.6860638039 -3.757281944e-21)
(99.82892448 0.9104103185 2.908528852e-23)
(99.85387156 0.8557468365 -2.434713002e-21)
(99.78394663 1.051528921 -1.32634189e-20)
(99.82230144 0.9850637071 -3.237788196e-21)
(99.80469456 1.254772169 -5.873779442e-21)
(99.83853718 1.168244999 -5.569520125e-21)
(99.75695441 1.444568767 7.214173267e-22)
(99.80441811 1.341846822 -7.031996471e-21)
(99.81327929 1.619194945 -9.811461667e-24)
(99.85388716 1.490326586 -4.41650071e-21)
(99.77308066 1.853391327 -4.641359843e-21)
(99.82442511 1.705393534 -3.294399059e-21)
(99.86922364 1.921610174 -2.235375127e-21)
(99.91074237 1.745937191 -3.883201946e-21)
(99.84695719 2.18458917 -2.607887293e-21)
(99.8915178 1.989520929 -3.455269586e-21)
(99.94740462 0.03377200104 -2.640626734e-20)
(99.93603852 0.01450376038 -1.319826619e-20)
(99.9217586 0.08133894684 -5.709429916e-20)
(99.91179081 0.05066417424 1.208780267e-20)
(99.87482541 0.1576303713 1.132820709e-20)
(99.86029874 0.1108003652 -4.832229365e-20)
(99.82763286 0.267104097 2.914388569e-20)
(99.77597389 0.2092457889 5.247984996e-20)
(99.76884107 0.2918987194 -4.499783637e-20)
(99.85375865 0.281714895 -8.661073965e-21)
(99.77493284 0.3219440366 -6.411496072e-20)
(99.79551973 0.3514093572 -4.334546796e-21)
(99.77369005 0.4710774182 -8.414484741e-21)
(99.74567171 0.4573483526 -4.191864044e-21)
(99.65289788 0.5495601113 2.943613877e-20)
(99.68839648 0.5866982415 8.243754857e-21)
(99.66820606 0.7539300614 -7.266332962e-21)
(99.62308811 0.7439905106 5.382683173e-21)
(99.49064108 0.8931229843 -4.143448913e-20)
(99.58662807 0.9003952434 2.878895802e-21)
(99.51895353 0.9673413147 -1.799721163e-20)
(99.57399527 1.107636604 -7.355316238e-21)
(99.53879496 1.108633451 0)
(99.46128867 1.221665464 7.645165738e-21)
(99.50441332 1.229086796 -7.313242234e-21)
(99.45301019 1.633553044 3.54189059e-21)
(99.40144221 1.649809768 1.386328445e-20)
(99.30559814 1.815252686 6.860701367e-21)
(99.37070317 1.807375673 1.720323904e-20)
(99.37654878 2.283838453 0)
(99.30480106 2.329974376 -6.388011602e-21)
(99.20695646 2.552133056 -7.612891491e-20)
(99.29722102 2.511105495 -3.430056242e-20)
(99.41370801 2.970886657 -1.993685554e-20)
(99.32716689 3.067273752 -1.988454904e-20)
(99.24713013 3.345314013 2.12325504e-20)
(99.35673664 3.245562323 -3.789335586e-20)
(99.59881991 3.561537952 2.333464808e-20)
(99.51312202 3.730615448 3.592169423e-21)
(99.48077628 4.043698384 1.664528079e-20)
(99.58869736 3.858124018 3.010511307e-20)
(99.90691945 0.03025326678 2.651636271e-20)
(99.90752516 0.008443867087 -4.428487167e-21)
(99.85826522 0.07759071175 2.233787022e-20)
(99.86718149 0.0335188502 3.098129122e-20)
(99.77092889 0.1610031915 -8.873394553e-21)
(99.7817252 0.08690389244 -4.369906228e-21)
(99.66067205 0.3030504499 0)
(99.64313133 0.1809457767 6.776923871e-21)
(99.59108775 0.3018035037 2.056460819e-20)
(99.68041014 0.3450984804 -5.993879012e-20)
(99.57874958 0.3476243657 1.546128321e-20)
(99.5882312 0.4112265521 0)
(99.51196632 0.6024595407 2.025559763e-22)
(99.49091808 0.5463289812 -3.397900674e-20)
(99.35494767 0.6260157131 -3.395614812e-20)
(99.37591387 0.7141449587 6.881077919e-20)
(99.28030257 0.9988131276 -1.021046621e-19)
(99.24216407 0.9206684792 3.828865845e-20)
(99.04618087 1.059851092 -6.83548955e-20)
(99.13868183 1.162729578 -3.404728761e-20)
(99.04388301 1.184161697 -5.586635225e-20)
(99.04553736 1.505262542 8.026281695e-21)
(99.00656363 1.4606568 1.593051722e-20)
(98.88271389 1.575653749 4.037006386e-20)
(98.92644645 1.634716776 7.95956848e-21)
(98.75240135 2.293238208 -9.997451314e-21)
(98.68538173 2.24828931 -2.275196462e-20)
(98.53522357 2.419467758 -1.671013137e-19)
(98.61398921 2.480510801 -3.780348537e-20)
(98.55290448 3.293799402 2.06799881e-21)
(98.44564192 3.265676237 -2.706227253e-21)
(98.2823441 3.513529475 1.125627975e-19)
(98.41114175 3.555623753 4.063476646e-21)
(98.5674179 4.464427938 1.705256231e-19)
(98.41216894 4.488398793 -7.252711363e-20)
(98.26946317 4.831440779 1.709603476e-19)
(98.45828292 4.808775446 1.339792712e-19)
(98.96603594 5.588602972 -8.53998812e-20)
(98.77709609 5.722249 4.614739363e-22)
(98.72353624 6.144091373 -6.035388787e-20)
(98.94936908 5.983542226 -5.048018695e-20)
(99.87469 0.01126541548 0)
(99.89692125 -0.005341668424 0)
(99.79931396 0.04107583581 4.491082278e-21)
(99.83913652 -0.008112884594 0)
(99.66396004 0.1092009174 1.142401442e-20)
(99.71759966 0.01866805622 -3.610755256e-21)
(99.47697529 0.2671633007 1.882659923e-20)
(99.51488829 0.08535275414 2.511804334e-20)
(99.41050277 0.2240214249 -7.557769095e-21)
(99.47697573 0.3279986813 2.662667381e-20)
(99.37321005 0.2844610554 2.136121644e-21)
(99.3525758 0.377893148 -1.084905836e-20)
(99.18812165 0.6160908416 0)
(99.19198264 0.5212172095 -2.237505615e-20)
(99.01760204 0.5688979675 -1.83991178e-20)
(99.00097575 0.7033130472 4.564014928e-21)
(98.78824921 1.068548586 0)
(98.77754784 0.9337500852 4.56352629e-21)
(98.5192306 1.022549839 -4.725164461e-21)
(98.56579091 1.225047823 2.271758211e-20)
(98.45766231 1.216320049 5.893177041e-21)
(98.33670943 1.684527953 2.603023741e-19)
(98.31164649 1.588037354 0)
(98.1415234 1.682095567 7.08830782e-20)
(98.16952958 1.795212311 -2.661064536e-19)
(97.79127751 2.669753442 -2.724467033e-19)
(97.72949419 2.548799701 -4.19938322e-19)
(97.51639277 2.69580676 -2.803686359e-19)
(97.58270895 2.848403968 7.409380356e-21)
(97.29950012 4.044040237 2.845986493e-19)
(97.17483883 3.911993602 2.826973215e-19)
(96.91357702 4.162571037 4.200105548e-19)
(97.06109491 4.326988372 2.837954522e-19)
(97.0952931 5.871441442 1.739804499e-22)
(96.86530366 5.766887507 1.380973225e-20)
(96.5915458 6.179128659 5.599822588e-19)
(96.8770739 6.306547073 -4.093156012e-19)
(97.66421399 7.962818927 -3.114519828e-19)
(97.30086133 8.006285323 -2.973289534e-19)
(97.15667795 8.62507171 -4.992879503e-20)
(97.60848802 8.546788478 1.714226831e-19)
(99.86796119 -0.02455626414 0)
(99.92010853 -0.02687639384 2.20203391e-21)
(99.76578549 -0.03118823733 -8.987668723e-21)
(99.84547862 -0.07411921436 -2.219637187e-21)
(99.580977 -0.002823332007 9.361723503e-21)
(99.6910218 -0.09506367653 -4.453334368e-21)
(99.30908588 0.1198237294 1.223437008e-20)
(99.43084659 -0.0798228074 3.767038035e-21)
(99.25319957 0.05379933288 -3.354195457e-23)
(99.28227653 0.2148841621 -9.058360224e-21)
(99.18085932 0.1212652228 -9.189167424e-21)
(99.12627537 0.2276268279 0)
(98.8509225 0.4818824443 -1.839866359e-20)
(98.89616643 0.3565111937 0)
(98.69541733 0.3549773616 -1.296321285e-22)
(98.62011865 0.522629523 -9.374400008e-23)
(98.24722004 0.9185847164 9.531487093e-21)
(98.2920877 0.738049059 1.427360008e-20)
(97.98744773 0.7546921018 1.928815949e-20)
(97.95970393 1.050978648 -1.585767638e-20)
(97.85979443 0.9797166192 -5.346544545e-20)
(97.55513 1.541830888 1.524997091e-21)
(97.5661869 1.404376629 1.532520091e-19)
(97.36360902 1.448698946 4.7021434e-19)
(97.34493283 1.611098828 -3.231909145e-19)
(96.63261333 2.58736621 4.326370578e-21)
(96.61440019 2.393259809 -1.609222444e-19)
(96.33538311 2.485974407 3.480174506e-19)
(96.35090881 2.717151873 3.357438021e-19)
(95.59967089 4.218681405 -1.320100058e-18)
(95.51251253 3.967672215 9.772951042e-20)
(95.12392251 4.128477589 -1.381356511e-18)
(95.2234316 4.478439003 -6.812432459e-19)
(94.66660991 6.824807522 -6.103728622e-19)
(94.40484822 6.47512594 1.730130986e-19)
(93.87863843 6.88823927 1.534768949e-19)
(94.20265173 7.326575686 1.528590605e-19)
(94.87284881 10.76072758 4.492745799e-19)
(94.22345173 10.51565125 2.352947233e-19)
(93.73805064 11.48217971 5.008227916e-19)
(94.61673363 11.73706085 1.038615793e-20)
(99.90345573 -0.07570666332 -1.690135304e-23)
(99.99153848 -0.05516219758 9.040400282e-23)
(99.77792746 -0.1368500535 2.31129862e-21)
(99.90322338 -0.1609663288 -1.095534619e-22)
(99.55016516 -0.1700224297 -1.208834024e-20)
(99.72247892 -0.2475979461 1.844398542e-21)
(99.19193242 -0.1035724611 -1.088236861e-20)
(99.41544036 -0.3068698052 -1.835566965e-20)
(99.16570306 -0.2031057362 -1.568722623e-20)
(99.12261651 0.0009528768064 -8.54689955e-21)
(99.05571745 -0.1402036797 -3.431651026e-21)
(98.95173926 -0.03250953368 3.388437386e-23)
(98.56019823 0.189609392 1.394270854e-20)
(98.65933911 0.05059935186 1.421976117e-20)
(98.45268501 -0.01131105869 7.016734018e-21)
(98.30698591 0.164621188 2.425133146e-20)
(97.76244728 0.5297443919 -5.944886435e-20)
(97.88722751 0.3169581377 -5.475275282e-20)
(97.57950378 0.2470196744 2.613467824e-20)
(97.43464796 0.5663415959 1.161381704e-19)
(97.35883139 0.4605747002 -2.296846256e-19)
(96.83337235 1.031603719 -4.088972468e-19)
(96.89933878 0.8670034906 2.91003959e-19)
(96.68081335 0.8492510436 -6.007132029e-19)
(96.59499165 1.036860156 -8.952087275e-20)
(95.48219004 1.949137249 -3.943542499e-19)
(95.54391013 1.69970413 -4.031001329e-19)
(95.22925766 1.695591284 -2.616558464e-22)
(95.14176659 1.982234487 -3.922101211e-19)
(93.67579776 3.476560882 -3.987209518e-19)
(93.71799549 3.086449386 -1.002006536e-19)
(93.23090371 3.115451847 -1.011582475e-19)
(93.15165617 3.571475995 -1.01283872e-19)
(91.15058517 6.293567523 3.467839672e-19)
(91.08290157 5.627273862 2.299017155e-19)
(90.21638264 5.770591319 7.161928488e-19)
(90.2574312 6.632280328 6.377967226e-19)
(88.35298077 12.92248365 5.564086665e-19)
(87.58310467 11.6798915 -1.700472955e-19)
(85.65714605 13.12564595 -9.971312926e-19)
(85.91569536 12.26986723 2.27824269e-19)
(87.43788928 14.4807587 2.253510358e-19)
(86.40098967 14.5294301 4.781430025e-19)
(99.99565263 -0.1392019125 1.76991314e-23)
(100.1228537 -0.08824643177 -3.26501459e-21)
(99.85310328 -0.2688462925 -6.00384789e-22)
(100.0255448 -0.2625155334 1.420632398e-21)
(99.59456198 -0.3813251969 -4.700693199e-21)
(99.82865958 -0.4270993116 -3.094082831e-21)
(99.1670938 -0.4009635715 9.693393444e-21)
(99.49293301 -0.5763117156 -1.069134135e-21)
(99.18019889 -0.5257557205 1.022018591e-21)
(99.04822737 -0.3028608442 4.762729261e-21)
(99.03520104 -0.4779004986 9.846342377e-21)
(98.88099294 -0.3870219908 6.95721632e-21)
(98.38159755 -0.2412208974 -2.365585298e-21)
(98.54177605 -0.3725685875 3.686203832e-21)
(98.3515312 -0.4944239108 2.43337243e-21)
(98.13616493 -0.3404996232 7.379559601e-21)
(97.45040821 -0.08338290353 4.810518417e-20)
(97.65865169 -0.2894261645 -4.098859565e-20)
(97.38268382 -0.4490421692 -2.273701679e-20)
(97.10961153 -0.142558359 -2.862666086e-20)
(97.07831662 -0.2880824297 -2.854810863e-20)
(96.32973096 0.1887008198 8.960529578e-20)
(96.4607052 0.02547241675 3.417550117e-19)
(96.25381252 -0.06046505571 -1.843021703e-19)
(96.09427364 0.1175969568 9.537563652e-20)
(94.64072513 0.7421821413 8.228974006e-19)
(94.80779422 0.49010722 4.184679876e-19)
(94.51061735 0.3771233291 -1.826401128e-21)
(94.30160241 0.648857504 4.170398529e-19)
(92.1923636 1.641214274 4.842752849e-20)
(92.43719025 1.244205064 6.579463102e-20)
(91.98068849 1.06405554 -4.492421118e-19)
(91.65605628 1.489062256 -5.106809574e-19)
(88.05750989 3.116542638 4.928550948e-19)
(88.50564932 2.400230925 4.709058832e-19)
(87.72718959 2.011356498 4.9160581e-19)
(87.0470885 2.766705884 4.940944447e-19)
(79.58177875 5.698382192 -6.123497201e-19)
(80.21398663 4.753838286 -5.980715178e-19)
(79.30737225 4.079353478 0)
(78.36620441 5.064946384 6.735756082e-19)
(100.1549989 -0.2101343769 -1.862039943e-21)
(100.3210758 -0.1235513356 1.031930573e-21)
(100.0037563 -0.4167421429 -1.086731312e-21)
(100.2204703 -0.3708071649 -7.644514917e-22)
(99.7302517 -0.618768223 5.573873083e-22)
(100.0192805 -0.6185577432 -2.740132935e-22)
(99.25788548 -0.7432217236 6.323485751e-22)
(99.67603029 -0.8647045356 9.264730763e-22)
(99.316159 -0.882365538 5.543234876e-22)
(99.08990435 -0.667138389 1.615361601e-21)
(99.1428583 -0.85949115 -1.598512618e-23)
(98.94378942 -0.7992362543 -1.598739976e-23)
(98.3670794 -0.7640901231 -2.427881735e-21)
(98.58311519 -0.8674664886 0)
(98.42989804 -1.042603794 -1.192562529e-21)
(98.15823576 -0.9338853042 -1.268715408e-21)
(97.38084312 -0.8372064004 3.898560102e-21)
(97.66292154 -1.001816614 -1.811315354e-20)
(97.44680828 -1.234295974 -5.778590797e-20)
(97.06262611 -0.9871620417 -4.804766045e-19)
(97.08467961 -1.152432408 2.460175694e-19)
(96.1749974 -0.8544228846 -3.61935938e-19)
(96.36142238 -0.9885393558 -3.473307445e-19)
(96.19597339 -1.127412155 5.156833413e-19)
(95.9706817 -0.9911197644 3.375220189e-19)
(94.36796633 -0.7746984881 -4.347099036e-19)
(94.61446266 -0.9716973375 4.17234672e-19)
(94.39612519 -1.158654272 0)
(94.08852925 -0.9626871659 0)
(91.80983569 -0.7086292375 -4.342391334e-19)
(92.19892223 -0.978848073 5.853254689e-20)
(91.88755239 -1.268134802 -1.971379301e-22)
(91.43162784 -1.020021251 1.780340822e-19)
(87.85879386 -1.075829749 -1.020154928e-18)
(88.54718757 -1.400757811 -5.12921131e-19)
(88.14519677 -1.919147589 -1.502865109e-18)
(87.36076817 -1.688173708 -1.427980795e-19)
(82.49249221 -3.416249177 2.278471077e-21)
(83.12827748 -3.417345887 1.086212092e-20)
(83.06647797 -3.912543195 5.857789738e-19)
(82.48767342 -4.016820601 1.030164051e-18)
(100.3864156 -0.2828004136 2.126524138e-21)
(100.5878478 -0.1583269202 1.040438216e-21)
(100.2355611 -0.5681138485 3.192238715e-23)
(100.48962 -0.4772703264 1.103062984e-21)
(99.96415275 -0.861245718 1.083782971e-22)
(100.2958229 -0.8059219713 1.015440208e-21)
(99.4756391 -1.098689704 -1.570864601e-21)
(99.96622034 -1.14710969 -8.941065512e-22)
(99.57862254 -1.238944991 7.277499987e-22)
(99.26472842 -1.056678396 -1.115475613e-21)
(99.38661997 -1.247727143 -5.634016429e-22)
(99.15395188 -1.227818522 -1.115405412e-21)
(98.54001377 -1.321834387 5.381667099e-24)
(98.79862752 -1.380293544 1.192496426e-21)
(98.69564314 -1.594598484 1.192506994e-21)
(98.38741411 -1.545184683 1.192484887e-21)
(97.57769217 -1.627548664 4.333015529e-20)
(97.91259757 -1.727420578 8.41638866e-20)
(97.76942292 -2.006733061 4.314861336e-20)
(97.31186985 -1.847115083 4.030514239e-20)
(97.38290379 -2.007966374 2.775924553e-19)
(96.39836056 -1.921798399 2.284329032e-19)
(96.62553722 -2.00607392 2.775723651e-19)
(96.50796478 -2.174720156 1.767505337e-19)
(96.253227 -2.094840255 1.148965649e-18)
(94.67947497 -2.253048345 -8.709245897e-19)
(94.9812003 -2.374393606 -4.247609223e-19)
(94.83152031 -2.589956111 2.103250743e-19)
(94.49852866 -2.481844703 -4.435692363e-19)
(92.39637812 -2.774294924 -4.482037391e-19)
(92.82311718 -2.910003492 -4.718167314e-19)
(92.63379491 -3.212374609 -9.33246156e-19)
(92.17345003 -3.108747437 -5.100285929e-19)
(89.27898105 -3.909704705 4.741209341e-19)
(89.90510142 -3.990732853 1.407958346e-18)
(89.6940515 -4.432387481 4.742693184e-19)
(89.0626598 -4.416726114 4.90030354e-19)
(86.1065936 -6.076423184 8.41113151e-19)
(86.45844444 -6.0135173 7.131474716e-19)
(86.44460788 -6.296864941 7.112398937e-19)
(86.05135822 -6.326177683 1.581737284e-18)
(86.1662287 -6.404850565 1.018221518e-18)
(100.6887854 -0.3516167969 9.375099875e-24)
(100.919557 -0.190059162 2.746655069e-21)
(100.5465903 -0.7109615635 2.0565253e-21)
(100.8286605 -0.5739528972 1.041594206e-21)
(100.293707 -1.087769132 6.353740316e-23)
(100.6513942 -0.9736272924 -6.647564049e-23)
(99.81561837 -1.436089174 -2.101830689e-21)
(100.3571014 -1.404705833 -9.526263512e-22)
(99.95699275 -1.567878247 -5.067025965e-22)
(99.57142189 -1.435004996 -5.484609868e-22)
(99.75645561 -1.608828069 -1.092622693e-21)
(99.50445268 -1.632182361 9.319966499e-23)
(98.89353164 -1.854420608 0)
(99.17749901 -1.859859524 1.099626245e-21)
(99.12994122 -2.096020153 2.183869669e-21)
(98.80529154 -2.110420649 1.189771122e-21)
(98.01601438 -2.363455182 -4.154536645e-20)
(98.37891497 -2.389426188 -2.140628231e-23)
(98.31110187 -2.690636814 -1.199676401e-21)
(97.81699076 -2.626191678 -7.792981195e-22)
(97.92710974 -2.769022648 5.363522475e-20)
(96.94558061 -2.877968284 -2.257296955e-19)
(97.1896531 -2.912150397 -9.139967372e-20)
(97.12275584 -3.09072847 -4.396965013e-19)
(96.85647873 -3.065206132 4.846343372e-21)
(95.41924046 -3.500785418 1.937845786e-21)
(95.73419114 -3.552238466 2.295645954e-19)
(95.65134911 -3.76940008 8.312978739e-19)
(95.31551499 -3.7335505 1.260498222e-18)
(93.4741445 -4.350361172 4.589482278e-19)
(93.89157773 -4.390074382 9.951198023e-21)
(93.78637343 -4.67632087 -4.080180857e-19)
(93.35031894 -4.662139004 1.164950092e-19)
(90.9492284 -5.721973924 -2.181708493e-20)
(91.49688526 -5.703572604 -4.397019504e-19)
(91.36712487 -6.084827094 1.306776106e-20)
(90.82073944 -6.133437346 4.1363332e-19)
(88.48825354 -7.53922146 1.064920742e-19)
(88.75694491 -7.48258574 4.20042166e-19)
(88.73857249 -7.691675489 5.140253529e-19)
(88.44259977 -7.713415804 -4.648268212e-19)
(88.52625112 -7.769663265 9.275703025e-19)
(101.0555873 -0.4115274076 3.779730374e-21)
(100.9285364 -0.8348246488 -1.013450637e-21)
(100.7055198 -1.281270095 -1.013417593e-21)
(100.2557682 -1.732259923 0)
(99.99077691 -1.772071061 7.833504486e-24)
(99.97121993 -1.978033202 2.073722714e-21)
(99.399862 -2.314967847 -1.103431363e-21)
(99.69204024 -2.266808549 -1.197666572e-21)
(99.37605141 -2.583895588 1.180732484e-21)
(98.64780203 -2.983311967 -1.128967877e-21)
(99.01638397 -2.936175396 3.276259856e-21)
(98.51904744 -3.265684579 -7.289221855e-22)
(98.6566577 -3.382211101 -7.280108468e-22)
(97.73049202 -3.653623997 5.055557431e-19)
(97.97592879 -3.641478259 -2.058988117e-19)
(97.95449323 -3.816032096 1.168315982e-19)
(97.6923447 -3.837705919 6.777000498e-19)
(96.43139237 -4.466690217 2.023182192e-19)
(96.74196932 -4.459106851 3.81643877e-19)
(96.7150314 -4.662736159 1.960300587e-19)
(96.38981971 -4.686426137 0)
(94.79640817 -5.512527012 3.939504164e-19)
(95.19611875 -5.48184394 7.70014871e-19)
(95.15544277 -5.746421812 1.53027856e-18)
(94.74114844 -5.79899356 4.280211076e-19)
(92.64212126 -7.040036758 4.132487833e-19)
(93.15509128 -6.960518562 -7.208366618e-19)
(93.08518908 -7.319448263 -2.690123028e-20)
(92.55762422 -7.417662284 -6.478510664e-19)
(90.38527231 -8.823559547 -8.35069418e-19)
(90.63574057 -8.784735371 -4.660541772e-19)
(90.62717899 -8.996746048 -1.918532986e-19)
(90.33128124 -9.001245487 -5.53287558e-19)
(90.41156484 -9.070470236 2.908827558e-19)
(82.58527076 -2.865987572 -3.159295771e-21)
(81.83289798 -3.499533568 -1.793567859e-18)
(81.88484698 -2.819718264 2.866361025e-20)
(86.12058429 -5.779417113 6.101833461e-19)
(85.75335798 -5.840919479 -1.638195691e-21)
(85.69924735 -6.106302224 -4.827789227e-19)
(85.81912697 -6.189339511 8.268314822e-20)
(88.50523762 -7.323867248 -3.14264651e-19)
(88.22955365 -7.38444956 1.115288997e-19)
(88.18523731 -7.564415238 7.178353649e-20)
(88.27216472 -7.618968435 -8.675294803e-19)
(90.39765844 -8.614843926 -3.777116385e-19)
(90.14802791 -8.652428179 -4.791456815e-19)
(90.09303988 -8.827022216 4.329773047e-19)
(90.17167856 -8.89514667 0)
(80.64277068 6.231095095 5.649137435e-19)
(78.85554498 6.893503362 -5.971356998e-19)
(80.19331282 7.259444662 6.428739724e-19)
(89.52413016 -3.448759938 -9.473666318e-19)
(88.61479781 -3.862940201 -7.344393236e-19)
(88.87480233 -3.32431315 4.940041932e-19)
(86.47163864 -5.718535899 4.810455272e-19)
(86.13353253 -5.467969968 4.86443995e-19)
(86.51188166 -5.427397687 -1.60408407e-22)
(83.22639805 -2.858266243 1.067283641e-20)
(83.81949963 -2.917038764 -1.502866369e-20)
(83.70685378 -3.381975565 -5.692345807e-19)
(91.09436757 -5.329775209 -4.310838021e-19)
(90.38902495 -5.759585335 5.550521843e-19)
(90.5311507 -5.330037241 -4.363056883e-19)
(88.77347004 -7.272448661 -8.489555397e-22)
(88.52009601 -7.106696559 4.457638161e-19)
(88.80480409 -7.061845132 -4.212266547e-19)
(86.83376952 -5.675750994 -1.177579607e-20)
(86.796374 -5.952649072 -4.784615537e-19)
(87.38813193 -6.883381633 5.725982345e-19)
(87.39981565 -6.634823718 5.721065257e-19)
(87.08465778 -6.699253765 -9.186732672e-19)
(87.03647497 -6.918513193 5.959844945e-19)
(87.14136077 -6.980904007 -9.289588146e-19)
(86.44347873 -7.949812457 1.04172799e-19)
(86.29240259 -8.01150522 7.035832675e-19)
(86.27357764 -7.886580445 5.177639815e-19)
(86.44117281 -7.828478909 4.126230612e-19)
(86.23470757 -7.994992788 -5.81926355e-19)
(84.99402631 -7.278157527 4.396104904e-19)
(84.93832879 -7.400400309 8.916018157e-19)
(85.18185347 -7.234286675 0)
(85.17566831 -7.37812897 2.99705468e-22)
(84.99863984 -7.441872659 -4.461131188e-19)
(92.72909189 -6.677543197 1.152424624e-18)
(92.11329251 -7.122472124 6.660187222e-19)
(92.21046914 -6.741404219 1.163563472e-18)
(90.64797925 -8.578090934 -6.989763096e-21)
(90.41297528 -8.411299037 3.826328108e-19)
(90.67365681 -8.371140751 -3.783352379e-19)
(89.05142895 -7.228832278 8.323247045e-19)
(89.01895856 -7.435183658 8.244220194e-19)
(89.45197942 -8.156947282 7.919216899e-19)
(89.47230155 -7.955768375 5.3654495e-22)
(89.21907122 -7.999121985 3.985939948e-19)
(89.16680416 -8.16630351 7.15169867e-19)
(89.24371232 -8.227223941 -1.844274925e-19)
(88.36373891 -8.901474385 2.930737565e-19)
(88.26905812 -8.901575373 3.006113565e-19)
(88.31994283 -8.864040155 0)
(88.40286155 -8.859998521 2.884797775e-19)
(87.57840957 -8.387860714 1.293222498e-18)
(87.51057638 -8.463544647 -9.675857638e-20)
(87.72534063 -8.352596089 8.790721273e-19)
(87.70008612 -8.445576419 4.953182622e-19)
(87.55016428 -8.483856105 -9.598208695e-20)
(90.90904636 -8.536298204 7.345209333e-19)
(90.88741731 -8.74564391 3.672936447e-19)
(91.45430756 -9.460197659 -2.873006336e-19)
(91.42686728 -9.334485305 1.515771685e-19)
(91.31956715 -9.487194907 5.75856214e-19)
(91.30833649 -9.37751068 -1.038254864e-20)
(89.90373635 -10.40788049 -2.682370651e-19)
(89.70654909 -10.39974593 -2.698905876e-19)
(89.85619171 -10.35056949 2.730071656e-19)
(90.00150884 -10.35218759 2.674802646e-19)
(89.12553621 -9.624566182 -2.407639668e-21)
(89.04371901 -9.672390518 -2.865683955e-19)
(89.23708345 -9.620891464 -2.793060578e-19)
(89.18045314 -9.670962264 -8.505920697e-19)
(74.25979125 -4.671838917 -7.225193963e-19)
(75.16538303 -4.501076184 0)
(75.3245819 -5.264385365 0)
(74.30352017 -5.537599147 -7.948886999e-19)
(74.69389872 -5.693644715 0)
(80.62019652 -6.671088785 -4.128185402e-19)
(80.4252345 -6.358926939 5.658319591e-19)
(80.07428367 -6.610771855 -1.248700743e-18)
(80.24593589 -6.931176137 -9.137604629e-19)
(80.42027345 -6.937759027 -3.620097769e-19)
(69.24662977 6.995937088 0)
(68.3275781 8.293041954 0)
(68.10533779 5.94461431 0)
(66.74219422 7.307682042 4.158492819e-19)
(74.16428321 -3.831812788 -1.428722497e-18)
(73.32147962 -4.981671988 -7.249977278e-19)
(73.15506642 -3.925076742 -7.295912011e-19)
(84.81863266 -7.338975419 7.411472518e-19)
(84.81507565 -7.17952636 -3.992767926e-21)
(85.00212341 -7.134603553 4.399340381e-19)
(84.76046222 -7.298641643 2.942016257e-19)
(83.4704273 -6.781730284 4.406283747e-21)
(83.44462607 -6.634769698 0)
(83.6465065 -6.550540484 4.56573715e-19)
(83.66907814 -6.694720851 -4.628599981e-19)
(84.55429458 -5.020084659 -1.040527621e-18)
(84.99599484 -4.966908552 -1.056258736e-18)
(84.97829655 -5.313342826 -1.063139309e-18)
(84.58729621 -5.410248207 -5.1994996e-19)
(83.26701308 -6.88157395 -4.745386765e-19)
(83.48604456 -6.928565101 9.549849042e-19)
(83.24437733 -7.004022187 2.920878478e-21)
(83.31625358 -7.006571956 5.073419775e-19)
(84.82247943 -7.415980753 1.005555172e-18)
(84.71152197 -7.435094617 3.392777436e-19)
(84.72974507 -7.364339002 3.362689317e-19)
(80.92864975 -6.434329754 1.31790428e-19)
(81.09978577 -6.710275271 6.444986349e-19)
(80.7528633 -6.940097939 6.141901398e-19)
(80.89968783 -6.939213229 -4.279214339e-19)
(83.24186758 -6.731099672 -4.796507134e-19)
(83.03343202 -6.83996276 4.17306872e-21)
(83.01974395 -6.969924707 1.868676358e-19)
(83.09631792 -6.969826071 -3.182278852e-19)
(87.42995256 -8.427305275 5.301122919e-19)
(87.45406009 -8.330979021 6.986912674e-19)
(87.60112881 -8.293116443 4.104054107e-19)
(87.39028925 -8.407215398 5.310613634e-19)
(86.40399938 -8.052551068 -2.091319405e-19)
(86.60676225 -7.89190294 9.310920528e-20)
(86.60701815 -8.008272472 -3.097259898e-19)
(86.45909411 -8.067009643 -2.090580288e-19)
(87.6923232 -6.81902931 1.95536459e-21)
(87.68040614 -7.058039387 1.427089023e-20)
(87.34314091 -7.09344059 8.028537589e-19)
(87.44370068 -7.15057069 7.961302608e-19)
(86.30242859 -8.078293267 3.210396136e-19)
(86.38025331 -8.104864308 -4.679049841e-23)
(86.28552168 -8.132670763 1.572027975e-19)
(87.4180881 -8.476078795 -3.183041257e-19)
(87.32041353 -8.489108378 0)
(87.35497996 -8.447995344 0)
(84.90828496 -7.467710688 3.357245807e-19)
(84.80021911 -7.487643981 6.733950717e-19)
(86.20181382 -8.106206163 3.240324603e-19)
(86.2119011 -8.05000449 -3.25776087e-19)
(88.99004077 -9.625541538 2.854106519e-19)
(89.07156474 -9.577288962 2.819721323e-19)
(89.18224595 -9.574268915 -6.416693992e-21)
(88.31035805 -8.939954053 -6.147744505e-19)
(88.44793763 -8.898775267 2.912301853e-19)
(88.40734301 -8.941122036 -2.162343327e-21)
(89.70254719 -8.116749879 -3.885118692e-19)
(89.68278963 -8.31839804 8.789093882e-19)
(89.39769949 -8.324467552 -1.825878738e-19)
(89.47389571 -8.387434874 7.076782185e-19)
(88.21486216 -8.940215284 -6.115404507e-19)
(88.25416121 -8.97985217 7.157830951e-21)
(88.13579935 -8.974249492 -1.231046664e-18)
(88.90530517 -9.674378197 9.714701589e-23)
(88.71775506 -9.670078011 2.926618283e-19)
(88.85302954 -9.626941041 -5.709617906e-19)
(87.47410697 -8.5039574 -6.361834557e-19)
(87.3791028 -8.516757186 -6.480208314e-19)
(88.09964874 -8.9365183 9.259502504e-19)
(88.17532557 -8.903554866 3.025137057e-19)
(89.75025544 -10.45677252 1.777058271e-21)
(90.05374542 -10.40918785 -7.994786481e-19)
(89.95637956 -10.46407482 2.73118383e-19)
(91.45348942 -9.57201439 -8.594977398e-19)
(89.55007976 -10.44761103 3.16148137e-21)
(89.59395592 -10.50106195 -2.717145346e-21)
(89.2602701 -10.48386825 2.747759063e-19)
(88.95905796 -9.720640346 1.255925693e-21)
(88.76946382 -9.716973171 -2.970456728e-19)
(89.23239307 -10.43269888 7.924600349e-20)
(89.51644833 -10.39060505 -5.500543449e-19)
(88.33895992 -0.5519752645 5.106788063e-19)
(87.04374841 -0.7389015875 -6.398758359e-19)
(87.66650714 -0.1308667704 -1.004248211e-18)
(82.73453568 -2.246707286 2.409183209e-21)
(83.37215185 -2.354752665 -5.378490232e-19)
(81.27574098 5.281338493 5.733332416e-19)
(81.77969305 4.447928515 -5.978848319e-19)
(81.00077818 3.936007212 -1.201846227e-18)
(80.0868566 -0.1720641406 1.642380175e-20)
(80.50723868 0.6054157214 -1.249008886e-18)
(79.04119097 0.138740408 -6.382392646e-19)
(79.63031103 1.079223793 -1.308022687e-18)
(75.07731622 -3.649371183 -7.039573439e-19)
(74.16623489 -2.879795492 7.22401611e-19)
(75.06008564 -2.885776731 -7.049164691e-19)
(70.5973806 7.83755551 0)
(71.3670475 6.683853531 0)
(70.33872392 5.883425559 0)
(84.57581853 -4.647706885 5.505578804e-19)
(84.13163394 -5.12611576 -4.025127056e-19)
(84.09663545 -4.697561525 1.637090156e-18)
(83.2052563 -6.579787586 -4.747002886e-19)
(83.41324938 -6.48440084 1.660275246e-21)
(80.73303804 -6.125001444 1.107342032e-18)
(81.06140865 -5.938267034 0)
(81.20476342 -6.221152128 -5.227854472e-19)