/*--------------------------------*- C++ -*----------------------------------*\
| =========                 |                                                 |
| \\      /  F ield         | OpenFOAM: The Open Source CFD Toolbox           |
|  \\    /   O peration     | Version:  v2012                                 |
|   \\  /    A nd           | Website:  www.openfoam.com                      |
|    \\/     M anipulation  |                                                 |
\*---------------------------------------------------------------------------*/
FoamFile
{
    version     2.0;
    format      ascii;
    class       surfaceScalarField;
    location    "0.44";
    object      phi;
}
// * * * * * * * * * * * * * * * * * * * * * * * * * * * * * * * * * * * * * //

dimensions      [0 3 -1 0 0 0 0];
oriented        oriented;


internalField   nonuniform List<scalar> 
6430
(
-0.006675555189
0.9289014854
-0.0135197361
0.9285208272
-0.02044804962
0.9276340012
-0.0062015587
0.9262540188
-0.02157751968
-0.4585702495
0.4594738448
-0.007105154045
-0.456869114
0.008090817679
0.4579795811
-0.009201284775
-0.4571181615
0.01029362061
0.4583084319
-0.005703741712
-0.00572783439
-0.2303345704
0.006411129294
0.2307222765
-0.006721661675
-0.2296956692
0.00719844723
0.2299884187
-0.007384205237
-0.2248888734
0.008155983475
0.2255168817
-0.008714045225
-0.2175679689
0.01046123756
0.2183687744
-0.005591921198
-0.005670121856
-0.05293893671
0.003403397312
0.05298215916
-0.003446619763
-0.003123497608
0.9320249831
-0.006333903634
0.9317312332
-0.009722631979
0.9310227295
-0.006617551765
0.929927297
-0.006778358367
-0.4623926772
0.4633457171
-0.00757059159
-0.4608857341
0.008636283857
0.4620294278
-0.009779977503
-0.4603564875
0.01102164523
0.4614193923
-0.006007671257
-0.006015066177
-0.2317910301
0.006377019175
0.2320450117
-0.006549445214
-0.2311829364
0.007123024432
0.2315518316
-0.007385724779
-0.2270686576
0.00859761811
0.2277292267
-0.009194737144
-0.2215059128
0.01174507835
0.2224949485
-0.00635788358
-0.006376230496
-0.05459514078
0.00832962885
0.1095887538
-0.0545258224
-0.004378257492
-0.004419161924
-0.003281697198
0.9353066803
-0.006650087157
0.9350996232
-0.01019396893
0.9345666113
-0.006943667051
0.9337376947
-0.007060699587
-0.4643890859
0.465415652
-0.007970233235
-0.463195818
0.009081563403
0.464375624
-0.01026136937
-0.4623717127
0.01153400448
0.4633575985
-0.006212911312
-0.006282656942
-0.2326414303
0.006428122589
0.2327923039
-0.006509796194
-0.2325770161
0.006821890298
0.2328740136
-0.007017882964
-0.2298244251
0.008117102169
0.2304895503
-0.008708777807
-0.2259004587
0.01135388808
0.2271252055
-0.01256328793
-0.1126131206
0.01625149297
0.2240356149
-0.01571902757
-0.1119549597
-0.00335798307
0.9386646634
-0.006795610163
0.9385372503
-0.01039252982
0.9381635309
-0.007088477112
0.9375784486
-0.007144806589
-0.4664591249
0.4675029833
-0.008132335501
-0.4655520103
0.00924225272
0.4667182265
-0.01040846893
-0.4645231893
0.01165469378
0.4658562256
-0.006494979204
-0.006492655326
-0.2331369802
0.006708502672
0.2332294441
-0.006758787354
-0.2335654267
0.006884737831
0.2337338852
-0.006969596911
-0.2321666747
0.007570871773
0.2325984322
-0.007924937892
-0.2300322437
0.009493706031
0.2307416933
-0.01016138938
-0.2228692209
0.01205527108
0.2226015538
-0.0117780004
-0.00335954386
0.9420242072
-0.006788165545
0.941965872
-0.01035159678
0.9417269622
-0.007069972253
0.9413473999
-0.007050575853
-0.4685218532
0.4695416387
-0.008089757797
-0.4678598034
0.009161268748
0.468973189
-0.01027465442
-0.4671520193
0.01144951549
0.4683959947
-0.006372042256
-0.006321448679
-0.2335030265
0.007035145941
0.2336541566
-0.007180548609
-0.2341010023
0.007345182041
0.2341947866
-0.007388044057
-0.2335202021
0.007628691188
0.2337274685
-0.0077730973
-0.2322585907
0.008447129147
0.2326028228
-0.00874656786
-0.2220282878
0.009370779351
0.2218868836
-0.009215146724
-0.003299025221
0.9453232325
-0.006654515221
0.945321362
-0.01011589584
0.9451883428
-0.006910352475
0.9449690832
-0.006827226623
-0.470520889
0.4714895147
-0.007878978134
-0.4700478725
0.008887366792
0.4710837165
-0.00992321086
-0.4695818887
0.01100094035
0.4707049869
-0.006101671009
-0.006022367514
-0.2345881778
0.006692089569
0.2348899339
-0.006993845725
-0.2344776449
0.007823492872
0.2345915979
-0.00792822458
-0.2341785906
0.008191407174
0.2343016282
-0.008282814232
-0.2333246401
0.008629249918
0.2334973232
-0.00877263222
-0.2215426966
0.008866517445
0.2214490673
-0.008762353919
-0.003189228799
0.9485124612
-0.006421373552
0.9485535067
-0.009729111057
0.9484960803
-0.006639587317
0.948390345
-0.006510785624
-0.4724122478
0.4733162068
-0.007543546353
-0.4720733911
0.008475547037
0.4730194673
-0.009421623208
-0.4717639748
0.0103924249
0.4727596488
-0.00574241804
-0.005645680899
-0.235727963
0.006255983095
0.2359861336
-0.006514153708
-0.2353785247
0.007288689695
0.2356352934
-0.007545458475
-0.2346899924
0.008303948482
0.2349251626
-0.008538725188
-0.233927485
0.008995276483
0.2340600144
-0.009121452649
-0.2212418914
0.009070231072
0.2212040535
-0.009029054371
-0.003043283767
0.951555745
-0.006116363692
0.9516265867
-0.00923672267
0.9516164393
-0.006292916036
0.9515813003
-0.006134761918
-0.4741721937
0.475004809
-0.007125531338
-0.4739170905
0.007976038836
0.4747704969
-0.008829445217
-0.4736939545
0.009693219807
0.4745671326
-0.005330650984
-0.005235746931
-0.2366995202
0.005777206645
0.2369188392
-0.005996525584
-0.2363297531
0.00664036145
0.2365383087
-0.006848917055
-0.235575214
0.007450212892
0.2357659332
-0.007640932173
-0.2345566242
0.008171662833
0.2347074785
-0.008322517053
-0.221231041
0.008318781736
0.2212817047
-0.008369445438
-0.002873805849
0.9544295509
-0.005765712519
0.9545184933
-0.008680109037
0.9545308358
-0.005900126821
0.9545287052
-0.005727387116
-0.4757897521
0.476551043
-0.006661417798
-0.4755766136
0.007431397124
0.4763408246
-0.008195608138
-0.4753823987
0.008959566971
0.4761432577
-0.004901550664
-0.004818875369
-0.2375243289
0.005291884181
0.2377105483
-0.005478103667
-0.2371038726
0.00601463521
0.237274338
-0.006185100677
-0.2362732398
0.006667374722
0.2364234199
-0.006817554785
-0.2350893613
0.007225053903
0.235196255
-0.007331947582
-0.2215098698
0.007277190487
0.2216055605
-0.007372881208
-0.002691171496
0.9571207224
-0.00539054106
0.9572178629
-0.008092138223
0.957232433
-0.005485173188
0.9572322882
-0.005310548012
-0.4772649993
0.477957744
-0.006177917862
-0.4770609253
0.006871635592
0.4777426079
-0.007553318191
-0.476853039
0.008227480374
0.4775153276
-0.004479695678
-0.004410073248
-0.2382250206
0.004821116575
0.2383835247
-0.004979620644
-0.2377386521
0.005429200306
0.237879245
-0.005569793161
-0.2368264466
0.005961803132
0.2369468241
-0.006082180713
-0.2354667046
0.006400463246
0.2355423334
-0.006476091971
-0.2219322753
0.006406145396
0.2220508417
-0.00652471177
-0.002504766351
0.9596254887
-0.00500968683
0.9597227834
-0.007501281218
0.9597240274
-0.005070726836
0.9597021221
-0.004900388267
-0.4786040559
0.4792323152
-0.005698986078
-0.4783844327
0.006322666492
0.478991941
-0.006930174802
-0.478133602
0.007525304952
0.4787107106
-0.004080853471
-0.004021560063
-0.2388223752
0.004380072508
0.2389579873
-0.004515684608
-0.2382642556
0.004895350462
0.2383814761
-0.005012570923
-0.2372728499
0.005335905479
0.2373711256
-0.005434181228
-0.2357336759
0.0056866018
0.235787188
-0.005740113835
-0.2224240483
0.005672143175
0.2225521372
-0.005800232
-0.002321280745
0.9619467695
-0.004636407851
0.9620379105
-0.006926810848
0.9620144303
-0.004669720275
0.9619534581
-0.004508426604
-0.4798162065
0.480385192
-0.005238705802
-0.479564072
0.005799361186
0.48010604
-0.00634132923
-0.4792509199
0.006868210957
0.4797571031
-0.00371523524
-0.003659158861
-0.2393342968
0.003975429993
0.2394509426
-0.004092075786
-0.2387042453
0.004415406587
0.2388031074
-0.004514268723
-0.2376395613
0.004784984918
0.2377211729
-0.004866596581
-0.2359226285
0.005069526167
0.2359605334
-0.005107431095
-0.2229407924
0.005049070907
0.2230705734
-0.005178851888
-0.002145873611
0.9640926431
-0.004280809761
0.9641728466
-0.006383069088
0.9641166897
-0.0042915142
0.9640047272
-0.004142824009
-0.4809126112
0.48142799
-0.004806892941
-0.4806169045
0.005311543725
0.4811014694
-0.00579610863
-0.4802319349
0.006263777085
0.4806778696
-0.003380256467
-0.003329455338
-0.2397756529
0.003607712516
0.2398767181
-0.003708777742
-0.2390768432
0.003986671762
0.2391612157
-0.004071044308
-0.2379456836
0.004301001293
0.238014442
-0.004369759703
-0.2360564651
0.004534970107
0.2360833122
-0.004561817183
-0.2234566112
0.004515859312
0.2235835333
-0.004642781421
-0.001981704269
0.9660743474
-0.0039489651
0.9661401075
-0.00587831382
0.9660460384
-0.003942027207
0.9658754157
-0.003806975054
-0.4819050628
0.4823726302
-0.004409594643
-0.4815589635
0.004864967691
0.4819936864
-0.005299690595
-0.4810973274
0.005716551596
0.4814923045
-0.00307771873
-0.003033809975
-0.2401591743
0.003277748998
0.2402474379
-0.003366012631
-0.239396306
0.003607232239
0.2394692136
-0.003680139819
-0.2382048627
0.003878182489
0.2382635487
-0.003936868492
-0.2361512171
0.004073079023
0.2361701934
-0.004092055335
-0.2239567849
0.004058747829
0.2240783284
-0.004180291276
-0.001831487674
0.967905835
-0.003646052014
0.9679546718
-0.005419533181
0.9678195196
-0.003624810144
0.9675857413
-0.003505048622
-0.4828051633
0.4832306337
-0.004050280514
-0.4824049251
0.004462715975
0.4827966937
-0.00485448453
-0.4818649046
0.005228067815
0.4822169407
-0.002809334879
-0.002770769029
-0.2404952248
0.002986462995
0.2405730103
-0.003064248564
-0.2396736997
0.003275946062
0.239737529
-0.003339775429
-0.2384271349
0.003512645229
0.2384778725
-0.003563382821
-0.2362181192
0.003677179169
0.2362314865
-0.003690546493
-0.2244334832
0.003668927711
0.2245485329
-0.003783977428
-0.001696519608
0.9696023546
-0.003374425484
0.9696325777
-0.005009576277
0.9694546703
-0.003341606312
0.9691555331
-0.003237761807
-0.4836242972
0.4840131481
-0.003730457212
-0.4831682616
0.004105836491
0.483523288
-0.004460862851
-0.482550185
0.004797782035
0.4828661766
-0.002574163573
-0.002539610108
-0.2407923976
0.002732205635
0.2408616276
-0.002801435601
-0.2399176901
0.002989387792
0.2399743036
-0.003046001291
-0.2386201805
0.003198872177
0.2386646102
-0.003243301899
-0.2362652213
0.003339692084
0.2362746352
-0.003349105927
-0.2248834249
0.003337792055
0.2249915873
-0.003445954439
-0.0015775642
0.9711799188
-0.003135398758
0.9711904123
-0.004649852697
0.9709691243
-0.003092981583
0.9706039789
-0.003005316898
-0.4843731932
0.4847306184
-0.00345040678
-0.4838610754
0.003794161155
0.4841849816
-0.004118067384
-0.4831663429
0.004424162947
0.4834519025
-0.002369773462
-0.002339949092
-0.2410578438
0.002511909322
0.2411201001
-0.002574165616
-0.2401350597
0.002742991523
0.2401859047
-0.002793836531
-0.2387899723
0.002930713632
0.2388293688
-0.002970110098
-0.2362984185
0.003052936067
0.2363050713
-0.003059588867
-0.2253055753
0.003057079128
0.2254067949
-0.00315829873
-0.001474986066
0.9726549049
-0.002929536806
0.972644963
-0.004340730443
0.9723803179
-0.002879195424
0.9719497814
-0.002807337546
-0.4850619526
0.4853927749
-0.003210017749
-0.4844943495
0.003527183482
0.4847922979
-0.003825131883
-0.4837245375
0.004105884265
0.4839854982
-0.002196988486
-0.002169856532
-0.2412974748
0.002324543409
0.2413540338
-0.002381102423
-0.2403311907
0.002534567729
0.2403774384
-0.002580815413
-0.2389412498
0.002704949733
0.2389766463
-0.002740346158
-0.2363219413
0.002812646767
0.2363266879
-0.002817393408
-0.2257002105
0.00282227843
0.2257946877
-0.002916755682
-0.001388587984
0.9740434929
-0.002756230882
0.9740126059
-0.004080863213
0.9737049502
-0.00269802417
0.9732097917
-0.002642849357
-0.4856998447
0.4860088156
-0.003006995073
-0.4850781091
0.003302195419
0.4853546672
-0.003578753492
-0.4842359724
0.003838761025
0.4844771686
-0.002052701175
-0.002027256054
-0.2415161672
0.002167631497
0.2415681346
-0.00221959885
-0.2405104513
0.002360838557
0.2405530615
-0.002403448843
-0.2390778604
0.00251750312
0.2391100995
-0.002549742234
-0.2363388352
0.002613934263
0.2363422967
-0.002617395711
-0.226068331
0.002628455872
0.2261563448
-0.002716469636
-0.001318270658
0.9753617635
-0.002615373722
0.975309709
-0.003869645728
0.9749592222
-0.002550414621
0.9744021615
-0.002511600883
-0.4862958876
0.4865869037
-0.002841430779
-0.4856213023
0.003118801121
0.4858806451
-0.003378143891
-0.4847105497
0.003621485834
0.484937094
-0.001935614821
-0.001912415324
-0.2417180988
0.00204029392
0.2417664764
-0.002088671519
-0.2406764767
0.002220478874
0.2407162938
-0.002260296018
-0.2392029755
0.002366592599
0.2392327817
-0.002396398885
-0.2363513165
0.002454472781
0.2363539478
-0.002457104068
-0.2264111855
0.002473251823
0.2264931247
-0.002555191093
-0.001264429305
0.9766261928
-0.002506957583
0.9765522372
-0.003707008607
0.9761592733
-0.00242967845
0.9755348418
-0.002410010524
-0.4868569335
0.4871376777
-0.002710422662
-0.4861320663
0.002974876433
0.4863780998
-0.003220909989
-0.4851565622
0.003450979158
0.4853702185
-0.001840947637
-0.001823687836
-0.2419072992
0.001940545233
0.2419531028
-0.001986348794
-0.2408324612
0.002111265062
0.2408702251
-0.002149028925
-0.2393193099
0.002249585571
0.2393473063
-0.002277582016
-0.2363610155
0.002331192656
0.2363631597
-0.00233333691
-0.2267303941
0.002353662835
0.2268067307
-0.002429999458
-0.001224795509
0.9778509884
-0.002428371619
0.9777558133
-0.003589961436
0.9773208631
-0.00235072768
0.9766376651
-0.002342057059
-0.4873971494
0.487664799
-0.002618377295
-0.486617827
0.0028707256
0.4868534514
-0.003106350066
-0.4855789327
0.003326767025
0.4857834341
-0.001771329058
-0.001759939432
-0.2420872092
0.001866634184
0.2421311114
-0.001910536446
-0.2409811502
0.002030515229
0.2410174669
-0.002066831946
-0.2394292137
0.00216335528
0.239455939
-0.002190080575
-0.2363692161
0.002240665692
0.236371171
-0.002242620565
-0.2270278617
0.002266493736
0.2270990732
-0.002337705244
-0.001206370055
0.9790573584
-0.002385977634
0.9789354209
-0.003526084796
0.9784609702
-0.002308266121
0.9777162892
-0.002296442765
-0.4879152885
0.4881642646
-0.002557242241
-0.4870848828
0.002803484097
0.487314084
-0.003032685318
-0.4859847596
0.003246707593
0.4861829536
-0.00172477132
-0.001720130262
-0.2422605181
0.001817425214
0.2423031599
-0.001860067001
-0.2411248813
0.001976815191
0.2411602722
-0.00201220611
-0.2395348083
0.002106210312
0.2395607636
-0.00213216561
-0.2363771144
0.002181124719
0.2363791921
-0.002183202386
-0.2273055731
0.002210325206
0.2273721268
-0.002276878937
-0.001187435768
-0.00236092158
-0.003492058816
-0.002291284505
-0.002248993238
-0.4884191265
0.4886672343
-0.002539392385
-0.4875392664
0.002775480031
0.4877636619
-0.002999875526
-0.4863803169
0.00321010642
0.4865744579
-0.001704597431
-0.001699649941
-0.242429581
0.001792969862
0.2424715085
-0.001834897352
-0.2412655986
0.001949786376
0.2413004796
-0.001984667334
-0.2396380806
0.002077451299
0.2396637612
-0.002103131866
-0.2363860702
0.002152096371
0.2363886821
-0.002154708203
-0.2275654568
0.00218519894
0.2276281124
-0.002247854511
0.003352894036
-0.003406148399
-0.05288568234
0.004091240075
-0.004193546442
-0.05449283441
0.01007853878
-0.2168163158
-0.005351615491
-0.005478576367
0.1063034921
-0.003329413367
-0.1060728754
0.006451690667
0.02734853382
-0.2203289302
-0.02227765797
-0.00624785849
0.1094206695
-0.004045872099
-0.1090487458
0.007765188513
-0.003427757932
0.006627582865
0.1065070645
0.05337443715
0.003664958295
-0.003727701376
-0.05331169407
0.02609870936
-0.0003730540012
-0.02666808484
0.0009424294833
-0.02787932758
-0.0008816445066
0.001285412545
0.02747555954
0.008422044705
-0.00861595552
-0.1124192098
-0.001418375931
-0.02812464664
0.001663694988
0.02727601046
-0.0009009574205
-0.02779342897
-0.003710088535
0.04484008849
0.00473861589
-0.02455082617
-0.02131778968
-0.000301093112
0.0007587826221
0.02564101985
0.003709251506
0.05343478473
-0.003769599091
-0.02220216598
0.02201653111
-0.0001154582401
0.02985137114
-0.00632589736
-0.01338934669
-0.01384621562
0.0267786539
-0.0003842879424
-0.02260280517
2.7585189e-05
0.00588694583
0.02659154307
-0.02421318729
-0.001272674295
0.001713404455
0.02377245713
-0.05214794838
0.003762167192
0.05220944057
-0.003823659379
0.05234373398
0.003878335618
-0.05232405534
-0.001970713344
-0.001927300913
-0.05218204656
0.003551676616
0.0521758056
-0.003545435658
0.00370032419
-0.003704873588
-0.05214339898
-0.0008344832074
-0.02469031587
0.001311611793
-0.02518325027
-0.001193858249
0.001472556798
0.02490455172
-0.0519997335
0.003364647683
0.05202701137
-0.003391925553
0.003524195576
-0.003560195252
-0.05214604689
0.0033096838
-0.003323556492
-0.05198586081
-0.001008023669
-0.02551214616
0.001336919566
0.02485413878
-0.0005655389054
-0.02529662355
0.02440986847
-0.0007495879392
0.003915456566
0.05233737619
-0.001966469246
-0.001942629528
0.05252167845
0.01447385493
-0.05242146886
-0.005534793711
-0.009039270811
-0.01213673345
0.02473507212
-0.02415647461
0.01155813595
0.01174218249
-0.01526508109
-0.008613834849
0.02439505935
-0.02437289723
0.005384793417
-0.02515070691
-0.006192475692
0.00624152331
0.02510165929
0.0237068262
-0.0002949792468
-0.02424633016
0.03060109524
-0.02434174396
-0.0003724054519
-0.006336635796
-0.02526404413
0.006449973022
-0.007377745061
0.01470324228
0.02327559802
0.02297011958
-0.0005359676692
0.02630467773
0.02556153683
-0.02574214808
0.01170121164
-0.01296068678
-0.22463422
0.2254035734
0.01535502055
-0.00849470973
-0.1119146884
-0.1119271511
0.007925527054
0.1098247713
0.1111183782
0.008590450707
-0.009115100883
-0.110593728
-0.009189650785
0.09280142414
-0.09269559968
0.009083826339
-0.003683499666
0.004812773355
0.0437108148
-0.004801476899
-0.02626360721
0.003754146329
0.02731093778
-0.02632303191
0.0021344282
0.02662160686
-0.002433003151
0.0265407302
0.001853162231
-0.001691335571
-0.02670255686
0.03223037259
-0.006062501119
0.09195003895
-0.01230738724
-0.08883230249
0.02658159865
0.0009490712142
-0.0005471818084
-0.02698348806
-0.02486920639
0.004324490438
0.02675174774
-0.006207031783
-0.03077021193
0.0232255971
0.03227968695
0.02448577524
0.05375892114
-0.01912949827
-0.006593519652
0.004534078903
0.05399591074
-0.004652580493
-0.05387740915
0.001814303245
0.02633281712
-0.00160639016
0.0257160462
0.001951432006
-0.001784436143
-0.02588304206
-0.0005369712402
0.02416387903
-0.02466041891
0.001033511117
0.02535162866
0.02120937937
-0.02150546554
-0.0002408850707
0.02428877436
-0.004757468082
-0.01862349611
-0.0009078101648
-0.009388794224
0.05137769308
-0.05108815226
0.009099253406
0.002875589124
0.02439749156
-0.01902802944
0.0254584481
0.0005529565231
-0.0001510333121
-0.02586037131
-0.03060984591
0.02578235565
2.601336688e-05
-0.02556149892
0.001909744332
0.02557018474
-0.00191843015
0.002100152111
-0.002489278231
-0.02593390579
-0.006037671702
-0.02450513392
0.004279198413
-0.000582114545
-0.02606582962
0.001039670928
0.02560827324
-0.02594280791
0.001762354928
0.02581783789
-0.001637384912
0.001843183877
-0.001770706888
-0.02563397591
0.0009161581758
0.02616320355
-0.0004977630753
0.003701053384
-0.004676423896
-0.02389383588
-0.00130140365
0.001754212957
0.02371106973
0.002287850522
0.02564207643
-0.002213880759
0.02645574836
0.009521533998
-0.009982199537
-0.02599508282
-0.002508873557
0.02969212979
-0.02355901702
-0.003624239216
-0.005410688115
0.01051300182
0.01918646066
0.02033074328
-0.000422767559
-0.01976157856
0.02584403527
-0.005394256875
-0.0006881998372
0.0219431564
-0.005420528296
-0.02128009618
0.02469180435
-0.005588901098
-0.02487574448
0.005772841234
0.02506743855
-0.0001911049925
0.01554492059
-0.0007900168648
-0.02504065835
-0.006864266654
0.006731826709
0.0251730983
-0.005026277564
-0.01406545668
-0.0006698443159
-0.00712186628
-0.02505333908
0.007134547007
-0.0146892752
-0.02195824241
-0.02631442857
0.001802361902
0.02620820468
-0.001696138018
0.001700298492
-0.001620678935
-0.02602242746
-0.02652990244
0.00101702934
-0.02585638295
0.003118952175
0.02706192122
-0.02593694633
0.00188035429
0.02607634168
-0.002019749637
0.001720694267
-0.001766082484
-0.02626904035
-0.0239493168
0.02309859542
-5.023603675e-05
0.002381153183
-0.02630798909
-2.248089337e-05
-0.02786601
0.002453734216
0.02177543807
0.0002066376545
3.445538975e-05
-0.0001514711294
0.02630401643
0.0006261085961
-0.0227834992
0.02253130212
0.0001007259458
-6.919171921e-05
-0.02349446865
0.0008979507644
-6.287279573e-06
-0.02572029631
0.001676575615
0.02570891145
-0.001665190755
0.001823919388
-0.001966968601
-0.02579389712
-0.02499448941
0.002839159843
-0.02653922725
0.001254966505
0.02620041892
-0.02588640632
0.00162155384
0.0258373983
-0.001572545828
0.001652684957
-0.001620747213
-0.02575223406
-0.0248928484
0.02447654201
-0.0001492325185
0.000496801765
-0.0001112998754
-0.02527835029
0.0009330229681
-0.02573284475
-0.001226659707
0.02400631044
0.001630217742
-0.02396726834
0.02326611547
-0.0005255068372
-0.0002403142636
0.006913869739
-0.00736795088
-0.02370239347
0.02516445115
-0.0247183478
0.006467766388
0.02604281313
0.01067977398
0.0002272784572
0.006199399997
-0.006426678453
-0.018257126
-0.004375905973
0.005624750523
0.024587175
0.02214476811
-0.005612299824
0.02336414851
-0.0027459507
-0.02312707137
-0.0216432832
0.02135241312
-4.109171081e-06
0.0002563687134
-0.0218251931
-7.445881578e-05
-0.02467011613
0.0006801546819
-0.02034484282
-0.0003904560043
0.01563222841
-0.0009289861218
-0.005819270318
0.02199364475
-0.0005421460228
0.02450211456
-0.007045786858
-0.001518522425
0.02211560844
0.002373033565
-0.02077701382
0.01928182075
-2.332935548e-05
3.943163422e-05
0.0262529283
-0.02643999685
0.02271976824
0.0002340179559
-4.545503714e-05
0.02258548828
0.0001960760262
-6.179606253e-05
0.01507666043
-0.01504877546
-2.788497092e-05
-0.004857967615
0.003743705352
-0.03114988418
-1.607253069e-05
-0.02228025553
0.0200382476
0.02710286676
-0.020685366
0.0265959056
0.002015324924
-0.001916573923
-0.0266946566
-0.0005708343998
0.02171485227
-0.02253407465
0.001390056773
0.0007499376007
-0.0002512828207
-0.02515907369
0.025401895
-0.02589691363
0.00124495624
0.02495394341
0.0014814627
1.868970864e-05
-0.01326685107
-0.004354430968
-0.001002214075
-0.01190880087
-0.001358050193
0.01225747811
-0.00231545462
-0.01051285789
0.02065537834
-0.005209821407
-0.02056083689
0.005115279966
0.003259111163
0.004572950402
0.02186006823
-0.0223217464
0.02216027819
1.043489175e-05
0.0001007888698
0.0001087668558
0.0005444339886
0.00244103373
-0.000153146736
0.02210448786
-0.02226172719
4.593945633e-05
0.0219280099
2.724543925e-05
0.02242553207
0.0001309662165
2.898999355e-05
0.0001001195594
6.368531744e-05
-0.02242178177
-0.004534897653
0.002368470688
-0.001524136993
0.002480945244
0.0195923276
-0.02112180569
5.341094028e-06
8.654493953e-06
0.02166638431
2.131132971e-05
1.907178284e-05
0.02465809358
0.002050062794
-0.003567073617
0.003506819394
-0.00355839736
0.001188529467
-0.02000727252
-0.004740273963
0.02086071564
-0.01680389476
-0.002868291409
0.01746375488
0.01229239514
-0.001779393326
-0.002882558389
-0.00162894123
-0.003703370254
-0.001484780077
-0.006006578162
0.01994181256
-0.02283141464
-0.006194079312
0.02301891579
-0.02223272959
-0.005992941922
-0.000220528073
0.000617850494
-0.02199778756
-4.793360814e-05
-2.861436e-05
-0.000473382166
-0.02088194211
0.02735154864
-0.005820322505
-0.0006492840228
-0.01481997829
-0.005419580085
-0.0006423837294
-0.02096649192
-0.006292515232
0.01300693645
-0.006621879738
-0.001058520225
-0.01390237839
-0.0009175999038
0.006283288992
-0.006834513507
0.02877160422
-0.0004946704748
0.02200377284
-0.01488620079
0.0001969255928
0.004439987064
-4.436710396e-05
0.004597353086
0.005898644667
-0.006054327987
-0.2301010173
-0.006791769815
0.2305523625
-0.2299387372
0.00628927289
-0.007033311382
-0.2293455948
-0.007986089414
0.2264358058
-0.2259860073
0.007621296804
-0.008415434183
-0.2243900963
0.2191587545
-0.2185286001
0.009457216012
0.02157620593
-0.02184928605
-0.2314371097
-0.02263483295
0.2316865104
-0.2313022297
0.02235609451
0.007313624287
0.2305462942
-0.02293768426
-0.2307749148
-0.02417907889
0.2283803269
-0.2278139207
0.02369116372
0.007841331407
0.2268339524
-0.02476626266
-0.2264191343
0.2224693202
-0.2214397099
0.02632246064
0.00978553986
0.2198419884
0.2192174202
0.01077552322
-0.005777160689
-0.005847008369
0.1088035449
-0.006318505001
-0.108567861
0.006082821119
-0.1079129735
-0.005989479651
0.005778710197
0.1081237429
0.05314420229
0.003512652771
-0.003575698306
-0.05308115676
0.05247878097
-0.05244652836
0.003668071586
-0.05237713745
0.003526114439
0.05240269962
0.006394620552
-0.006493949733
-0.2324683958
-0.006871426063
0.2328646704
-0.2326031371
0.006711665666
0.006905566096
0.2320104936
-0.007090892643
-0.2322543847
-0.008271755998
0.2307151881
-0.2301333
0.007773575951
0.008107536091
0.2289499813
-0.00889570035
-0.2291298413
0.2268156647
-0.225685485
0.01059298226
0.01077806871
0.2234408747
-0.0129504207
0.2235175546
0.0119278374
0.2229705795
-0.007067724754
-0.1109668887
-0.1108348702
-0.007051516529
-0.1102185486
-0.006902100658
0.006609409749
0.1105112395
0.1100799951
0.008473773655
-0.004473648134
-0.004491366851
0.05488984035
-0.004887849472
-0.05466998768
0.004667996797
-0.05422012909
-0.004629069113
0.004496985853
0.05435221236
0.006617895595
-0.006668229302
-0.2330364871
-0.006824561005
0.2336330198
-0.2334802143
0.006756054745
0.006686638096
0.2330986817
-0.006932704953
-0.2333679013
-0.007666762934
0.2326588331
-0.2322474515
0.007340532818
0.007648742244
0.2312686187
-0.008086337765
-0.2316689374
-0.009946458462
0.2305083768
-0.2297424497
0.009228554858
0.01031501988
0.2278841435
-0.01074229912
-0.2291991311
-0.01313653773
0.2292254764
-0.2285815618
0.01250447186
0.01501805885
0.2266370075
-0.01281072603
-0.2231884617
0.006997637065
-0.007078553265
-0.2334074897
-0.007207366562
0.234058565
-0.233971267
0.007172218118
0.006831999491
0.2337633643
-0.007251142333
-0.233996872
-0.007548293035
0.2337689989
-0.2335625059
0.00741177818
0.007299629854
0.233013271
-0.007731309571
-0.233268726
-0.008575329088
0.2325578964
-0.2321754638
0.00824631988
0.008891139249
0.2311625664
-0.00894560076
-0.2318421833
-0.009799691785
0.2303225662
-0.2302031982
0.009702427922
0.01161457949
0.2296822706
-0.009623987378
-0.2221899525
0.00679157177
-0.007104203615
-0.234275546
-0.007739680238
0.2344294335
-0.2343223952
0.007643091954
0.007303678266
0.2341422856
-0.007820425316
-0.234377065
-0.008044469311
0.2343280487
-0.2342113191
0.007965679253
0.007520715486
0.2339402096
-0.008135231553
-0.234047443
-0.008516140595
0.2335375285
-0.2333523893
0.008368902007
0.008182626113
0.2328735846
-0.008681863707
-0.2331245635
-0.008861767289
0.2302432164
-0.2303245542
0.008961507678
0.009341687343
0.2303738718
-0.008745970443
-0.2216465173
0.006371199957
-0.006639522112
-0.2354596408
-0.007450583471
0.2355000182
-0.2352292643
0.007179829558
0.007608735939
0.2346467278
-0.007721149769
-0.2351079584
-0.008450374861
0.2348856325
-0.2346876274
0.00825459842
0.008105575735
0.2344423379
-0.008585142183
-0.234550242
-0.008959795532
0.2341220877
-0.2339855889
0.008835234787
0.008499176221
0.2336994766
-0.009082624732
-0.2337925148
-0.009044484135
0.2297025484
-0.2298583585
0.009208098958
0.008991577323
0.2301342717
-0.008984398325
-0.2212967593
0.005897693506
-0.006125661629
-0.2364715521
-0.006799802226
0.2364593131
-0.2362368732
0.006577362297
0.007030887576
0.2357578203
-0.007019343885
-0.2361102114
-0.007655817167
0.2357997918
-0.2355918431
0.007447868436
0.008053765053
0.2351358159
-0.007858788851
-0.2353722423
-0.008427305883
0.2348211039
-0.2346401975
0.008246399456
0.008862645963
0.234260048
-0.008591664912
-0.2343922652
-0.008609978227
0.2291150764
-0.2292430334
0.008737935162
0.009235917969
0.2295417501
-0.00864468285
-0.2211963364
0.005411592464
-0.005605024063
-0.2373308973
-0.00616625739
0.2372487015
-0.2370653707
0.005982926603
0.006428467781
0.2366712068
-0.006345354781
-0.2369247752
-0.006854226886
0.2365192515
-0.2363546559
0.006689631234
0.007254300452
0.2359957042
-0.007013349449
-0.2361141173
-0.007447826675
0.2354265616
-0.2352910075
0.007312272569
0.008003566403
0.2349892003
-0.007564318892
-0.2349728691
-0.007517940721
0.2286581694
-0.2287628464
0.007622617741
0.008442070562
0.2289917876
-0.007604863951
-0.2214229465
0.004937821131
-0.00510229194
-0.2380605498
-0.005572006294
0.2379018744
-0.2377497215
0.005419853458
0.005839747527
0.2374235892
-0.005719419913
-0.2375912385
-0.006131797505
0.2370941398
-0.2369617763
0.005999433978
0.006511713359
0.2366749129
-0.006258824227
-0.2366994198
-0.006596941409
0.2358841444
-0.2357811666
0.006493963689
0.007098616199
0.2355529993
-0.006679424558
-0.2353842215
-0.006611126121
0.2283074781
-0.228385038
0.006688685952
0.007375076819
0.228560283
-0.00672552258
-0.2218178788
0.004488715045
-0.004629171639
-0.2386819186
-0.005025056562
0.2384466372
-0.2383192873
0.00489770675
0.005283824748
0.2380472499
-0.005147629136
-0.238141683
-0.005486525533
0.2375609076
-0.2374527388
0.0053783567
0.005836177529
0.2372197654
-0.005589766599
-0.2371696088
-0.00585696529
0.2362338272
-0.2361548239
0.005777961993
0.006304195155
0.2359804125
-0.005915320805
-0.2356753204
-0.005845855959
0.2280599681
-0.2281129124
0.005898800347
0.006477197496
0.228236426
-0.005972500979
-0.2222974033
0.004072808482
-0.004193376709
-0.2392137286
-0.004529655344
0.2389052364
-0.2387976538
0.004422072803
0.00477338881
0.2385685988
-0.004632686418
-0.2386012142
-0.004915251926
0.2379462309
-0.2378563804
0.004825401381
0.005232816668
0.2376639964
-0.005000604674
-0.2375542085
-0.005214616667
0.2365036764
-0.2364424839
0.005153424143
0.005612569961
0.236307859
-0.005255923684
-0.2358813215
-0.005194771915
0.2279009617
-0.2279333175
0.005227127656
0.005719541271
0.22801257
-0.005324633332
-0.222810931
0.003695541156
-0.003799783402
-0.2396714106
-0.004088102865
0.2392951744
-0.2392033233
0.003996251707
0.004312071446
0.2390085715