/*--------------------------------*- C++ -*----------------------------------*\
| =========                 |                                                 |
| \\      /  F ield         | OpenFOAM: The Open Source CFD Toolbox           |
|  \\    /   O peration     | Version:  v2012                                 |
|   \\  /    A nd           | Website:  www.openfoam.com                      |
|    \\/     M anipulation  |                                                 |
\*---------------------------------------------------------------------------*/
FoamFile
{
    version     2.0;
    format      ascii;
    class       volScalarField;
    location    "0.72";
    object      p;
}
// * * * * * * * * * * * * * * * * * * * * * * * * * * * * * * * * * * * * * //

dimensions      [0 2 -2 0 0 0 0];


internalField   nonuniform List<scalar> 
3019
(
929.8898978
929.0242718
926.785811
921.9751914
914.6684138
898.9488666
872.7183564
830.2637047
765.9398307
672.697218
544.9777768
381.9180564
930.4400806
929.9602444
928.4860931
925.1227617
917.8445002
904.6624994
881.6273604
847.3021448
789.7767211
703.7346013
581.7000596
419.5537659
931.6903503
932.0682989
932.3979893
931.933706
927.4913658
919.7391633
904.3834056
875.3744559
828.0226136
751.3714509
628.576147
448.350315
932.9591126
934.5494151
937.5128578
941.1741903
941.0891571
941.4198986
937.7189195
920.3800426
891.0755508
826.3143696
700.5039164
495.4614542
933.0220885
935.996789
941.9607797
950.6713655
955.5003111
966.5788006
977.6301379
978.7937293
974.1105871
936.5921875
827.9210243
585.9483457
930.5065422
934.8596942
943.7413813
957.4955823
968.9149843
990.9465621
1018.807964
1041.592984
1075.264876
1098.555455
1065.949014
841.667506
924.1035758
929.6522521
941.0448241
959.1977604
977.2235196
1009.430015
1052.961109
1099.183093
1178.586778
1290.87838
1440.906837
1528.874408
912.6857225
919.0874375
932.264246
953.4880831
977.4591535
1017.071841
1071.75396
1138.370091
1255.102643
1441.656953
1761.107621
2378.083116
895.4084091
902.2032059
916.1845743
938.7758877
967.0724215
1010.296074
1070.122023
1148.352583
1280.830851
1479.718483
1768.875701
2131.628328
871.8274333
878.5093861
892.2189979
914.2999107
945.0168075
987.6481764
1046.120389
1125.704275
1250.413157
1422.054923
1623.262191
1805.235955
841.9633748
848.0652859
860.5082548
880.2477909
911.6552568
949.9413156
1001.661824
1075.100264
1181.252014
1314.894544
1453.123733
1571.307293
806.2667237
811.4010784
821.8637289
837.6071619
868.6625682
899.4138615
940.6289349
1002.873584
1085.311889
1182.010393
1277.369365
1381.207588
2183.80047
1839.228919
1596.853815
1405.340741
2317.837583
1664.126335
1819.264235
2085.071038
1496.05408
1585.542419
1786.901996
1709.711635
1745.790463
1870.349812
1322.401309
1391.829872
1560.04168
1499.033878
1537.331276
1617.123659
1367.533525
1295.36326
1354.38749
1444.790805
2749.558723
2302.711674
3160.611485
2831.782559
1887.828303
2018.358753
1950.611225
2024.189969
1891.400375
2259.003521
2046.054406
1629.748016
1729.294529
1679.895154
1737.930613
1631.154197
1882.181973
1747.01345
1450.899957
1532.474622
1475.745073
1536.019095
1455.326956
1624.393961
1540.666785
1347.965882
1281.176102
1353.369421
1449.081029
1359.854797
1790.389611
2128.396593
2251.313508
2377.490566
2769.752345
3005.915739
1991.636329
2040.727283
2255.110756
2297.068901
2699.845176
2338.105967
2464.892412
4032.599411
3699.492004
2122.651723
3090.102832
1397.035166
1366.138298
1327.452918
2847.005341
2505.838606
2524.432224
2511.014431
2863.433152
2273.213855
2472.553824
2461.282684
3139.729891
3621.186511
3885.945159
2929.307646
3529.748071
3075.75023
3588.425547
2929.630391
1960.440662
2042.094106
1951.021696
2151.17315
2137.727104
2255.90961
2049.799867
2124.694286
2121.452668
1684.505103
1676.816618
1819.041942
1809.161739
1499.235003
1493.591905
1581.809421
1576.331425
1313.867399
1406.640131
1401.268096
2766.349225
3945.126088
1573.746679
1551.846299
1517.850779
1600.10556
1563.549093
1579.544683
1415.004924
1378.530664
1402.650754
1669.386449
1652.588513
1612.803366
1638.152006
1655.908926
1649.756979
1489.897918
1461.73581
1426.910652
1506.721539
1473.139264
1495.483569
1521.52619
1535.623568
1546.647627
1468.32494
1490.96159
1473.115798
1605.980719
1611.808918
1631.771581
1549.95758
1561.929393
1555.085437
1429.896694
1438.319609
1462.600367
1397.155421
1377.953031
2374.833509
2346.964119
4055.108327
3993.77918
2680.489701
2632.352125
2638.842786
2645.43701
2523.208903
2841.834193
2690.692486
2688.588453
2349.611087
2362.628035
2288.714955
2486.728511
2390.634089
2378.546366
3164.574919
3075.492119
2900.083122
3284.138058
3184.084602
1999.621976
1997.665135
1972.442335
2037.784531
2007.477233
2011.204613
1935.336785
1913.052456
1965.411162
1942.638025
2182.227101
2192.468423
2145.772795
2267.584105
2209.793091
2198.155117
2082.277792
2081.754488
2048.086874
2131.720467
2093.744239
2094.731581
1713.214673
1691.57081
1746.286041
1719.774518
1657.437357
1640.740407
1683.602453
1662.862619
1865.01682
1834.182259
1904.801202
1875.315222
1783.22782
1754.475646
1823.953748
1793.507813
1509.666283
1530.008267
1516.243947
1535.641003
1512.280218
1549.78534
1541.755955
1507.023545
1477.933798
1493.454377
1503.972545
1589.615766
1605.316556
1599.372143
1608.31234
1592.020494
1634.248853
1614.158589
1563.062327
1552.271728
1583.967522
1567.505019
1560.167954
1566.56578
1583.347039
1416.41417
1431.600276
1423.703688
1384.236896
1403.92124
1412.891004
1798.332294
1774.230907
1725.684195
1842.726339
1791.03289
1816.392711
1710.276999
1666.471529
1683.543577
1714.317694
1719.058043
1744.631846
1753.103439
1780.943172
1772.604203
2428.681854
2784.286924
2865.509278
2546.835168
2551.415506
2556.844549
2516.89872
2291.12513
2303.209403
2281.438368
2479.32668
2444.650331
2437.546669
3323.349632
3141.082168
3254.731237
3481.62325
3501.694071
3646.455838
2932.247954
3002.722651
3005.608657
1981.535107
1978.940301
1977.343122
2040.370097
2030.792145
2032.912425
1932.473073
1926.70072
1972.36324
1964.092371
2153.167512
2155.907223
2141.182243
2260.991462
2240.942963
2236.790605
2058.003217
2058.861642
2049.349238
2127.820904
2116.210625
2114.843855
1689.908089
1711.76411
1706.027405
1656.792724
1661.878284
1682.42407
1830.457484
1860.34099
1846.153949
1851.643401
1840.825884
1919.849685
1909.695315
1765.085903
1830.120539
1819.521766
1782.308272
1790.806334
1820.495805
1539.838373
1535.04211
1530.393469
1474.471828
1470.858992
1464.357217
1484.063698
1477.989597
1482.525066
1360.861844
1353.625989
1446.394034
1443.647503
1436.336876
1458.120099
1451.216879
1455.161526
1374.505506
1369.82466
1389.702347
1372.553203
1380.218752
2400.404223
2316.042779
4474.489062
4410.560102
3971.222692
3835.489737
4281.51634
4110.128369
4250.513592
2731.454639
2588.044326
2355.268486
2327.328496
2315.202128
2406.871419
2413.077646
2383.737467
3283.990561
3386.085248
3383.309217
3695.949213
3562.880794
3089.567439
3085.373043
3181.547802
1999.460599
1990.32817
1990.665284
2022.532704
2020.564034
2010.010245
1943.704923
1937.968377
1956.282292
1949.723954
2186.256642
2170.863084
2167.907044
2216.701361
2221.335454
2202.94627
2081.959956
2069.887975
2069.107577
2105.430334
2105.239398
2093.895925
1706.543727
1708.337412
1714.077945
1693.258121
1701.428174
1699.321551
1736.547967
1735.200519
1746.70662
1719.175104
1725.634022
1727.32933
1652.200827
1654.303777
1658.713206
1643.693004
1649.376073
1646.691767
1675.977889
1676.253351
1684.483122
1663.241017
1668.980687
1669.03932
1873.625766
1862.659354
1854.76177
1858.963755
1869.522018
1837.753008
1848.331134
1844.467109
1896.873153
1884.670166
1788.503027
1778.990842
1773.178164
1775.957016
1785.864824
1755.341185
1759.576763
1762.384713
1813.776455
1816.866579
1827.270502
1796.320435
1806.564028
1803.640946
1809.154963
1798.885354
1515.863127
1512.439284
1506.311308
1524.994242
1518.840458
1522.991294
1526.967161
1518.671248
1547.539946
1545.04144
1503.236407
1493.420641
1488.124937
1488.442982
1486.69354
1500.351728
1495.003499
1499.658464
1595.230673
1599.904317
1611.254591
1596.380892
1627.4212
1629.662913
1636.926331
1616.722163
1622.952946
1620.777636
1558.887073
1555.253801
1577.067969
1572.011302
1420.837074
1418.740141
1413.89114
1429.828469
1424.03032
1425.885351
1407.723441
1401.379313
1396.036273
1409.520053
1405.508009
1410.274472
866.5482601
831.1196291
807.2502671
815.9272812
759.6666997
729.1950485
736.1630225
650.3685281
616.6936066
614.7592693
489.1375257
464.2125109
440.4222492
907.7098779
884.0062551
842.2698637
873.2117567
826.7828137
774.1127666
805.0576739
716.9824667
664.8018292
679.0085067
537.2248949
498.8098816
480.0126785
963.3496933
956.5949866
900.5979249
951.3953677
921.2840435
847.3177621
904.7054785
826.3590617
738.9822177
788.1071342
625.2961532
555.5536413
554.1506739
1026.026549
1044.06587
977.3799845
1049.016903
1055.649322
950.707121
1053.115905
1018.273766
864.8591016
992.7284767
839.4321533
662.6143083
752.3248074
1085.920412
1135.136866
1067.075187
1154.039565
1218.796515
1095.173674
1243.045595
1318.038232
1084.01728
1339.545413
1343.987442
929.854535
1293.613882
1131.10859
1208.407448
1155.948539
1240.355953
1361.620272
1259.258101
1412.975706
1616.083025
1401.016332
1706.782451
2201.213598
1534.75266
1861.984288
1882.308208
1328.566795
1148.954612
1240.588634
1220.831298
1278.541353
1421.609402
1385.982784
1481.013754
1701.540075
1662.29666
1791.197257
1909.583307
1877.463808
2404.951128
2552.063013
2528.423995
1134.164907
1225.236147
1242.36825
1261.863001
1392.300371
1422.549481
1442.48172
1607.401273
1688.219922
1738.719604
1813.820215
1855.706312
2082.033998
2116.318906
2173.494239
1090.061223
1170.324869
1214.873751
1201.518209
1306.747774
1375.028024
1344.687714
1459.686354
1572.869312
1581.330961
1624.533492
1672.315821
1772.396104
1783.733281
1834.96101
1022.617252
1087.001371
1151.712334
1111.265861
1189.851796
1279.794453
1217.031823
1297.000396
1420.083282
1409.991565
1439.0393
1484.700391
1546.608492
1557.049332
1593.626611
1062.865859
1157.330419
1254.249157
1231.076392
1245.850753
1300.362166
1356.560036
1370.276872
1406.965571
2235.696452
2302.039701
2237.346912
1852.566021
1907.462194
1874.8457
1606.338722
1645.918161
1623.442892
1418.893348
1453.988758
1429.060063
2946.463876
2125.816803
1988.598503
1218.253068
1818.984094
1720.317292
1767.911632
1703.073747
1923.79953
1829.301101
1749.158809
1936.337612
1859.450443
1961.658402
1530.730072
1577.379584
1538.848416
1666.671408
1616.093752
1543.940251
1720.214502
1643.655645
1695.398095
1718.83042
1767.019023
1740.551288
1762.879728
1756.502182
1739.958254
1860.686245
1843.14473
1852.558229
1347.227364
1393.347342
1366.495642
1463.120699
1424.69748
1355.851422
1518.49788
1449.268812
1486.852887
1510.825036
1545.255766
1522.58273
1552.277478
1542.102343
1531.525986
1611.999217
1599.56683
1604.663726
1330.491491
1255.82347
1291.083555
1318.763141
1357.811644
1331.239183
1373.289785
1358.536732
1339.867962
1431.331283
1419.246008
1426.140771
2669.016348
2682.652393
2824.563615
2290.220355
2364.650377
2350.674758
3190.785219
3370.532167
3340.883341
2886.772672
2991.878601
2916.395446
1940.174833
1915.311653
1860.397725
1997.162771
1934.410952
1958.341731
1912.070931
1927.019293
1972.008898
2003.569895
2005.654965
2036.146319
1907.007333
1930.606752
1916.403691
2219.443902
2210.494108
2268.864662
2046.717352
2080.893783
2069.401086
1642.553752
1637.59995
1624.670027
1723.877995
1708.298134
1713.412851
1651.127237
1659.755297
1703.423078
1730.325303
1732.037763
1740.384975
1633.24026
1639.508554
1637.019566
1855.911527
1870.258973
1898.557998
1748.886838
1757.599751
1754.925352
1468.421361
1454.865603
1443.263987
1521.027301
1510.458893
1517.472032
1452.486906
1465.474007
1499.514946
1531.338623
1535.211487
1539.589068
1459.931496
1466.464832
1461.600877
1618.52377
1620.543515
1626.921055
1543.933219
1548.356095
1545.361937
1333.106901
1305.204094
1346.317578
1350.907702
1358.128383
1442.755282
1446.972793
1453.548044
1365.231505
1369.707685
1365.309718
1889.821327
1910.571519
1799.314555
2246.451216
2009.166391
1963.277726
1968.977422
2017.031254
2271.75396
2497.131292
2540.71215
2402.217253
2960.30538
2664.475866
2578.534711
2720.189617
2679.00338
3005.514691
2016.275561
2064.164066
2035.394186
2118.108059
2095.078133
2021.887393
2216.820302
2124.989987
2148.196184
2446.490791
2367.095464
2253.217371
2534.838608
2410.935211
2504.518742
2289.934078
2370.403996
2437.151427
4073.710177
4257.842763
4195.200722
3781.515153
3912.437528
3808.607092
1734.197471
2420.666512
2538.29081
2534.243879
1857.469382
3683.378132
2826.425159
2693.051598
1383.236585
1371.066867
1379.493306
1353.56301
1362.190366
1374.611797
1336.310931
1349.427773
1340.696995
2522.062443
2639.426801
2593.111465
2862.59053
2802.206201
2802.167831
2403.363964
2392.405452
2486.969128
3284.320979
3347.498757
3181.33883
3858.690834
3544.854724
3375.98679
3556.068449
3587.17178
3904.280246
3002.110007
2993.67272
2926.210125
3459.789536
3381.719689
3439.383801
2999.244663
3098.353003
3200.113302
1969.605583
1995.900948
1983.993134
1925.516069
1938.339897
1961.89507
2146.1204
2193.352788
2183.70144
2094.375074
2092.978697
2131.992536
1686.141517
1693.414768
1691.194386
1670.352255
1671.918343
1678.952393
1822.606664
1832.088363
1827.674562
1800.586124
1803.691423
1813.137987
1502.835582
1508.752057
1504.964491
1488.180703
1491.689579
1497.052269
1584.509326
1589.906348
1587.628043
1570.873101
1573.330091
1578.99378
1322.995927
1410.412266
1415.625288
1412.124317
1395.876829
1400.54587
1405.436749
3164.602979
3453.465867
1564.180006
1552.955568
1557.469193
1540.366165
1546.829692
1558.156681
1524.768575
1535.712059
1529.039774
1587.676273
1593.786963
1606.212943
1569.749356
1581.615882
1575.481796
1592.562366
1587.404132
1575.582531
1402.960467
1411.099867
1423.130765
1386.845747
1398.986972
1390.793973
1420.061072
1407.169529
1395.196894
1664.569678
1650.883601
1655.721357
1639.032755
1645.163417
1658.807359
1618.903198
1631.862707
1625.758263
1644.249821
1641.881773
1635.682457
1654.082973
1647.979248
1650.123851
1643.825137
1645.748278
1652.034757
1477.391881
1466.166194
1473.686745
1450.251584
1458.166751
1469.540093
1435.019904
1446.68258
1438.647828
1495.609532
1503.010532
1513.892538
1480.843212
1492.005128
1484.425146
1512.187142
1499.665627
1488.602979
1525.788186
1530.656962
1526.535792
1543.144991
1539.212377
1543.384522
1467.684827
1472.962316
1478.36929
1607.820312
1614.161255
1611.769469
1618.545342
1616.369946
1609.848764
1629.341686
1622.876654
1625.180724
1553.545767
1551.119408
1547.058175
1560.001421
1555.430214
1557.544631
1550.158602
1552.935966
1557.691244
1433.367311
1440.125319
1436.312262
1371.197451
1373.633472
1382.698389
4218.44408
4268.013868
4082.871931
4384.460708
4464.165341
3908.381613
4030.637248
4131.642446
2644.182467
2599.044102
2593.454993
2602.531557
2602.369656
2647.07574
2521.01644
2560.553571
2561.814681
2787.583438
2798.114714
2854.852742
2694.636263
2744.964581
2737.921919
2743.077417
2745.80035
2692.969102
2336.130294
2333.384054
2359.765102
2285.947012
2308.656077
2311.452377
2452.418143
2449.225139
2483.848374
2387.585379
2417.26029
2420.497987
3140.97972
3065.146239
3080.06167
3017.433004
3042.072603
3110.499408
2914.201001
2976.829584
2954.719248
1988.454373
1989.411746
1998.808786
1974.860333
1980.695956
1979.90248
2027.632183
2029.291646
2039.217652
2008.932042
2019.14903
2017.509437
1928.090226
1933.201195
1939.794081
1919.589056
1926.568753
1920.726993
1957.936345
1961.418882
1968.932784
1946.504433
1953.641738
1950.184647
2176.122814
2174.266089
2190.282036
2144.383047
2159.003098
2160.600218
2247.479469
2244.941954
2264.928746
2207.384139
2225.679571
2228.190171
2070.045087
2070.498843
2082.236928
2049.080474
2059.366988
2058.790399
2118.506109
2117.924803
2130.585793
2094.148904
2105.945872
2105.968144
1895.670494
1902.333723
1911.77463
1880.192866
1891.346702
1885.669569
1510.687856
1514.728957
1520.478997
1482.291744
1486.45153
1482.896296
1593.75576
1592.065191
1587.163534
1603.56055
1597.238247
1597.586217
1593.824792
1595.604187
1601.649866
1562.635709
1567.82705
1565.439094
1571.43169
1569.895544
1564.800142
1581.492273
1575.493947
1576.935711
1417.78921
1421.141408
1427.024749
1389.360927
1395.393523
1390.283816
1790.637475
1773.433804
1780.450479
1757.720586
1765.561862
1782.26511
1733.040524
1749.120334
1741.48474
1825.311266
1833.758274
1851.194332
1799.229767
1816.415137
1808.043394
1834.514985
1825.564379
1808.031743
1695.315259
1702.096007
1717.357228
1672.82942
1687.238936
1680.682972
1698.182794
1693.234528
1678.679323
1715.881952
1723.821759
1721.591078
1727.015853
1725.693881
1717.708008
1742.587396
1734.07904
1735.755305
1761.778062
1759.942138
1751.118155
1778.448445
1769.121647
1771.323567
1764.379978
1766.568853
1775.673595
3268.471954
3322.020878
3389.155106
3181.639022
3252.589709
3202.481915
3347.422708
3301.531738
3220.442928
1697.356706
1695.472365
1688.135461
1710.147017
1702.793617
1704.634058
1699.121476
1700.766919
1708.216511
1658.457004
1665.072056
1662.961554
1668.279656
1666.878701
1660.340277
1680.850955
1673.72886
1675.151979
1840.436366
1836.296861
1826.585397
1855.647057
1845.992138
1850.407274
1837.537587
1841.544896
1850.977551
1784.943815
1794.283202
1790.757904
1800.671048
1797.556545
1787.970131
1816.878875
1807.200465
1810.569357
900.530896
889.4910893
887.5011936
875.1948506
856.515947
853.7774672
833.4571223
804.9940459
801.2834113
770.1661903
728.0426173
723.346396
677.7645674
618.6301596
613.3567364
550.1948093
472.4419784
467.65114
385.744107
291.5081179
288.8768293
921.710637
917.4840592
912.2336753
911.2255811
902.7872899
894.6418535
891.5190271
875.8691635
858.7340325
852.5347364
840.87171
835.8349265
796.9210882
778.7800048
772.0457147
712.4575513
685.6980883
677.7137648
590.9220372
553.5850974
545.6422069
426.0440327
377.9389392
372.9645944
934.0341367
932.526072
924.3515356
929.9172016
925.8688563
913.2919715
919.9743372
913.3103465
883.898781
885.1663936
876.4214438
865.7811605
841.5713289
826.6615668
812.1719966
767.9368743
742.4151807
725.9923623
643.5136344
602.9857661
589.0936324
456.7929494
401.5911522
395.2867014
948.5044784
951.171601
941.5034346
953.8187767
955.8791872
940.2232862
957.1801295
963.8569349
924.845822
933.8840133
929.8054275
914.9603907
910.0262544
899.4438028
879.3081595
849.8239217
825.9128674
801.5418502
725.3135519
680.785261
657.0188892
513.3473845
442.0494956
429.4011632
963.2577405
970.6412737
960.9182055
979.1857351
988.6020443
972.2228426
998.361087
1019.622354
977.5460411
994.4998902
996.9117135
979.4101392
998.175709
995.4716865
968.865592
971.7310601
956.4900205
918.1733504
874.6067712
830.7962455
782.6853537
628.6435573
533.4794093
499.5762299
974.8181291
986.8232485
979.2978197
1001.242433
1018.087078
1004.206044
1037.411745
1072.066121
1033.214216
1056.964603
1067.602974
1050.047721
1101.785532
1113.463835
1082.928254
1145.829127
1153.499019
1098.567955
1148.699486
1130.165715
1036.768389
957.2228416
833.6075477
724.1040232
979.6643286
995.5815935
992.3009389
1014.886528
1037.700818
1029.485194
1064.666019
1110.476652
1083.24029
1111.301249
1130.702522
1116.48227
1201.402503
1230.038681
1203.244283
1336.346613
1379.728178
1325.211224
1539.982268
1604.694924
1480.406347
974.8365589
993.2163679
995.8083541
1015.638033
1042.205922
1042.110337
1073.704458
1124.404128
1116.296503
1143.641663
1169.289139
1162.878186
1266.163558
1306.666311
1293.577066
1462.280648
1528.553679
1505.080718
958.6364733
977.7197547
987.0907776
1000.945751
1028.315143
1037.650622
1060.865038
1109.485197
1123.201861
1145.483287
1173.363296
1176.460907
1276.978992
1319.085654
1323.420744
1472.093563
1532.455218
1543.141461
930.6637325
948.7214039
964.8297013
970.5556094
996.0153763
1014.35217
1026.232206
1067.738122
1101.270635
1115.472377
1141.738622
1152.646315
1236.327262
1273.260565
1288.991701
1398.633701
1444.067857
1471.21484
892.086035
907.4588407
929.5296556
926.0907028
947.5959667
973.6339174
972.9373623
1004.24411
1053.608543
1058.790497
1081.16565
1098.590558
1159.334823
1188.729132
1212.60968
1283.576037
1316.135293
1350.372797
882.9376104
918.3730765
985.6915869
982.1970278
999.5584732
1021.516886
1058.384145
1079.744279
1108.700778
1145.982512
1167.943169
1206.551287
2458.614595
2346.795044
2227.65824
877.6955434
1005.190473
1852.759686
1828.655588
1797.12958
2036.342138
2000.14442
2042.453949
1611.785426
1598.11718
1572.452014
1766.461851
1736.601119
1755.50569
1415.768067
1403.414735
1379.436717
1547.368211
1522.786646
1535.188406
1542.240016
1538.903654
1534.139039
1355.148385
1330.457166
1342.772701
1360.490237
1355.849557
1349.12174
1440.389116
1434.63832
1438.595078
1905.13211
1895.717278
1878.182081
2011.833594
1990.253569
1997.37332
1896.103305
1904.564866
1899.413443
1873.928155
1878.646868
1887.501152
1456.990579
1452.398087
1446.772685
1528.779155
1524.051257
1527.570209
1342.624274
1336.00313
1341.153472
1288.546596
2171.257008
2105.875774
2071.94082
2148.001708
2169.314792
2277.575482
2838.998145
2761.23151
2705.031867
2871.440867
2909.358224
3037.187736
2064.727151
2059.225642
2034.752752
2246.070444
2209.171595
2216.50025
2342.779624
2328.670282
2285.810885
2646.601646
2588.324913
2631.423423
3256.412899
3118.317291
2983.146389
1392.568552
1387.091573
1391.352377
3710.680988
3614.639879
3537.345416
3722.328072
3763.901948
3912.767717
1963.304184
1972.547408
1967.644233
1942.830572
1946.153702
1954.556516
4076.586436
3898.550707
3782.723044
1571.291923
1566.020951
1568.248114
1585.775985
1581.664858
1577.210487
1408.343956
1404.192371
1398.723261
1485.887473
1480.693742
1484.396238
1501.120414
1497.061358
1491.81722
856.2546087
847.8796436
858.7869568
821.3528482
835.1551578
844.2714111
821.6012402
827.8144279
813.1653307
799.339603
788.1480638
805.3789695
747.1180866
768.3564059
780.3235068
750.8219399
758.8294511
736.6506109
710.7058416
697.0735023
722.9079255
636.7901124
667.861057
681.8017618
647.5943371
656.7695231
624.9468845
576.4681118
564.5977134
601.797071
479.8487196
523.1391199
533.9763503
505.6802113
513.943595
470.792738
390.0319515
384.3385487
432.7041946
332.6316431
336.3798024
324.6970647
329.0172965
901.0610782
888.1954183
895.9505723
868.7098721
879.1339266
893.1970251
854.6843305
866.2906288
854.7897419
860.454838
842.8240789
856.6451418
807.8588679
826.6983343
845.0920566
794.1147634
809.6122578
790.2956977
779.7414743
760.1679174
785.7331257
697.5736301
730.7696728
750.4343179
697.0045477
713.1379268
680.331398
636.5434631
618.6718144
660.1743045
521.950532
572.696856
589.4774579
545.5392619
558.216457
509.5536386
419.3356659
409.5995456
467.0821341
349.5139374
353.3660031
340.0334835
344.5781156
962.2044186
945.5386078
948.1910399
936.980726
941.9685136
960.0942369
908.4196594
924.718363
918.3298693
944.1042508
921.0088671
930.0988776
894.3564083
909.2325473
934.2206086
864.8401056
886.1546984
869.7633191
883.8556919
853.2225296
875.8643327
793.0102168
825.7974868
857.9925141
772.5289465
797.4839585
764.112972
742.4438371
708.865431
754.2191689
596.7507684
656.2732124
688.4078528
608.6281531
630.4162172
575.346026
477.3514508
459.3528294
532.3334273
376.2276651
390.4569124
358.6845445
366.2410148
1032.296907
1014.552322
1010.288351
1021.365158
1018.324383
1038.431723
979.0717026
998.4703507
999.0937073
1052.927896
1023.65727
1023.263855
1017.910346
1022.053452
1055.368021
961.2286422
990.5272095
982.8199985
1046.858127
999.2155707
1010.54559
960.0924887
982.820108
1035.480462
894.5777688
936.01695
909.1927082
956.4869304
888.1535568
929.1765599
767.2115322
834.940491
906.3252664
727.9886656
776.2305977
709.3097771
642.3898446
580.5092344
682.9509543
460.0534502
508.2604327
406.3976805
426.8646349
1101.075893
1084.811869
1071.820497
1112.900106
1098.510373
1117.49648
1058.635464
1078.717921
1090.136664
1174.181626
1144.088691
1128.161069
1177.367461
1160.583379
1195.835365
1089.760284
1124.968464
1135.886309
1268.122926
1210.381783
1194.258966
1235.812124
1224.767776
1293.515165
1094.073985
1157.791147
1156.973898
1355.548622
1237.187604
1240.804975
1179.462059
1219.62941
1360.347856
993.000569
1096.977677
1042.029141
1172.605425
980.1442763
1105.471732
788.2358432
1085.405538
574.0651301
664.7241342
1154.142818
1143.384334
1122.046568
1193.23088
1167.016885
1179.798361
1135.335712
1152.01157
1175.496559
1276.128364
1254.734061
1222.320294
1331.622623
1291.013748
1316.348197
1230.112309
1261.812721
1297.143541
1471.459714
1429.06963
1377.364345
1554.344447
1487.514379
1538.381835
1362.043502
1427.726728
1481.167806
1814.387807
1719.281462
1630.749604
1939.880546
1824.693102
1950.309384
1515.075129
1674.885356
1743.22741
1668.585689
1712.085426
1900.153886
1176.288175
1173.843109
1147.192357
1237.047606
1203.676773
1206.697073
1190.237696
1197.978474
1230.111936
1321.033774
1316.225729
1274.389505
1416.018464
1363.210723
1368.548762
1336.958313
1352.315346
1403.863914
1547.100934
1542.425291
1475.526799
1703.31854
1617.820364
1620.691639
1577.846232
1604.161331
1690.993678
1161.577822
1168.419717
1140.74023
1233.075195
1199.110875
1191.86854
1207.688911
1204.39461
1238.840292
1301.888434
1311.774555
1270.556914
1406.135818
1356.924784
1345.378548
1370.552295
1365.485952
1416.449765
1495.517287
1516.232425
1459.358057
1639.059794
1576.285499
1550.73156
1612.669779
1597.326009
1666.573398
1114.584118
1129.009761
1103.555753
1187.175851
1156.865328
1141.333807
1182.321465
1170.581189
1202.093802
1234.801853
1255.097278
1219.943051
1331.820623
1292.480999
1269.980511
1330.580197
1312.796839
1354.708459
1383.274744
1414.61518
1372.71018
1498.525697
1456.813739
1421.844993
1521.761762
1490.25714
1536.377852
1800.550635
1792.646822
1777.470212
1826.577626
1810.870876
1817.686311
1042.56635
1062.443358
1041.259161
1109.881942
1085.341811
1064.057126
1124.134623
1105.420671
1131.510154
1136.663394
1163.349836
1135.944059
1221.162936
1191.8574
1162.954428
1245.561464
1219.455517
1251.201435
1244.159572
1280.701995
1250.906209
1338.8012
1310.131959
1270.910808
1385.640179
1348.375856
1379.80003
1569.006035
1562.035567
1550.981756
1586.753437
1575.377297
1581.233085
1041.553248
1018.139179
1037.783675
1132.796779
1101.633757
1123.799524
1230.701294
1189.497531
1210.529118
1382.657657
1374.173114
1362.502136
1398.573983
1387.219965
1394.861755
1619.225726
1612.443307
1600.663465
1639.296642
1627.051125
1632.494765
1430.717318
1422.431611
1411.338087
1445.854233
1434.968842
1442.396586
2632.80853
2487.244744
2633.207924
2099.03684
2300.866795
2390.224073
2115.462666
2203.686801
2045.772162
1384.839829
1226.459601
1071.245454
1665.377926
1419.567497
1579.798415
1171.846009
1393.566998
1894.504161
1861.086262
1887.596694
1773.288566
1802.636446
1774.266057
2001.229055
1964.184474
1928.884256
1651.373317
1624.406274
1638.813469
1593.156777
1608.847401
1634.770824
1558.263512
1583.310489
1566.759871
1695.640952
1716.199951
1744.400735
1661.49077
1688.417105
1667.561624
1724.999703
1707.434961
1679.072006
1734.478747
1727.756019
1713.664946
1759.719957
1745.03283
1750.64391
1450.907444
1427.208269
1439.490332
1402.767441
1414.651838
1438.274972
1367.10866
1391.000744
1377.967012
1496.143983
1509.462732
1533.700297
1461.828077
1485.588381
1471.332073
1510.833731
1498.588693
1474.666369
1522.190942
1514.815081
1504.139197
1538.118508
1527.313297
1533.666192
1549.253715
1544.378916
1547.201964
1307.932481
1318.442053
1342.991065
1267.631849
1293.38255
1281.844794
1317.340461
1305.214176
1279.262942
1332.172332
1323.97689
1310.178574
1349.140694
1337.275441
1345.140777
1368.416537
1362.421187
1366.803655
1344.57965
1352.030835
1344.987394
1432.377937
1428.187532
1422.401028
2727.833036
2716.623424
2675.967754
2798.649126
2761.692778
2775.278427
2313.544435
2314.59488
2291.388095
2365.375078
2339.413224
2337.989903
1931.431297
1913.411137
1922.489242
1896.736697
1904.735109
1923.171364
1868.779498
1886.602691
1878.373674
1977.272319
1983.379032
2005.253516
1942.181408
1962.295932
1955.01648
1977.395949
1969.712334
1950.096655
2015.630266
2013.438721
2004.209459
2034.16745
2024.466611
2025.815097
1915.069224
1909.696511
1901.400759
1925.867747
1917.826604
1922.896876
1908.491494
1912.890998
1921.179138
2229.102195
2229.26784
2210.46432
2269.618336
2248.87784
2248.259425
2057.685486
2056.0594
2045.637155
2079.498513
2068.195474
2069.055035
1673.848235
1667.338403
1654.582607
1696.934569
1683.43454
1688.521371
1860.329958
1869.591162
1864.413406
1880.081485
1874.72523
1865.248582
1892.84777
1883.959543
1889.587841
1463.854607
1458.590764
1462.872513
1522.59806
1518.593613
1513.725017
1476.893313
1468.95174
1458.208003
1491.846249
1481.185798
1488.213392
1326.670864
1330.994601
1337.671583
1296.6843
2161.236145
2136.547028
2211.615967
2283.255405
2178.307559
2176.099409
2851.53011
2811.001478
2903.743726
2647.565799
2723.41889
2751.490454
2640.126089
2685.025695
2611.848214
2778.486342
2797.463155
2671.258012
3033.726639
2907.39321
2884.275531
2113.166261
2085.344336
2090.429816
2070.862068
2078.517132
2105.617436
2028.401921
2052.719964
2043.788174
2185.596536
2198.278801
2233.3947
2134.662432
2165.340004
2152.723615
2180.9424
2174.893695
2142.979936
2423.918577
2374.620466
2392.545707
2328.828969
2352.928452
2397.688908
2270.722254
2310.713722
2288.343509
2496.106345
2542.206357
2591.500093
2444.426348
2492.862542
2450.830715
2566.284386
2531.36464
2476.280006
1922.934508
2142.825486
2277.437594
2348.543399
2575.752458
3421.047062
3266.064918
3450.624631
2807.761375
3045.417437
3129.07619
2847.042598
2945.222966
2755.683667
1385.559945
1380.776049
1375.034763
2559.230543
2554.318403
2520.422422
2631.325996
2594.993375
2598.381726
2422.260587
2421.711431
2393.383678
2484.499937
2453.28612
2453.476754
3731.872412
3685.176788
3791.760234
3456.540897
3518.230389
3412.491353
3918.511094
3771.786092
3772.299649
1977.793819
1975.138455
1966.328747
1993.581555
1984.949969
1986.656603
1929.457158
1937.787634
1933.477021
1946.195239
1942.028092
1933.915698
1958.214016
1950.168305
1954.121359
2161.234792