/*--------------------------------*- C++ -*----------------------------------*\
| =========                 |                                                 |
| \\      /  F ield         | OpenFOAM: The Open Source CFD Toolbox           |
|  \\    /   O peration     | Version:  v2012                                 |
|   \\  /    A nd           | Website:  www.openfoam.com                      |
|    \\/     M anipulation  |                                                 |
\*---------------------------------------------------------------------------*/
FoamFile
{
    version     2.0;
    format      ascii;
    class       pointVectorField;
    location    "0.72";
    object      pointDisplacement;
}
// * * * * * * * * * * * * * * * * * * * * * * * * * * * * * * * * * * * * * //

dimensions      [0 1 0 0 0 0 0];


internalField   nonuniform List<vector> 
6506
(
(0 0 0)
(0 0 0)
(0 0 0)
(0 0 0)
(0 0 0)
(0 0 0)
(0 0 0)
(0 0 0)
(0 0 0)
(0 0 0)
(0 0 0)
(0 0 0)
(0 0 0)
(0 0 0)
(0 0 0)
(0 0 0)
(0 0 0)
(0 0 0)
(0 0 0)
(0 0 0)
(0 0 0)
(0 0 0)
(0 0 0)
(0 0 0)
(0 0 0)
(0 0 0)
(0 0 0)
(0 0 0)
(0 0 0)
(0 0 0)
(0 0 0)
(0 0 0)
(0 0 0)
(0 0 0)
(0 0 0)
(0 0 0)
(0 0 0)
(0 0 0)
(0 0 0)
(0 0 0)
(0 0 0)
(0 0 0)
(0 0 0)
(0 0 0)
(0 0 0)
(0 0 0)
(0 0 0)
(0 0 0)
(0 0 0)
(0 0 0)
(0 0 0)
(0 0 0)
(0 0 0)
(0 0 0)
(0 0 0)
(0 0 0)
(0 0 0)
(0 0 0)
(0 0 0)
(0 0 0)
(0 0 0)
(0 0 0)
(0 0 0)
(0 0 0)
(0 0 0)
(0 0 0)
(0 0 0)
(0 0 0)
(0 0 0)
(0 0 0)
(0 0 0)
(0 0 0)
(0 0 0)
(0 0 0)
(0 0 0)
(0 0 0)
(0 0 0)
(0 0 0)
(-8.242458076e-07 1.159593174e-05 2.775557562e-17)
(0 0 0)
(0 0 0)
(0 0 0)
(0 0 0)
(0 0 0)
(0 0 0)
(0 0 0)
(0 0 0)
(0 0 0)
(0 0 0)
(0 0 0)
(0 0 0)
(0 0 0)
(0 0 0)
(0 0 0)
(0 0 0)
(0 0 0)
(0 0 0)
(0 0 0)
(0 0 0)
(0 0 0)
(0 0 0)
(0 0 0)
(0 0 0)
(0 0 0)
(0 0 0)
(0 0 0)
(0 0 0)
(-5.134861837e-05 0.000171756201 4.857225733e-16)
(-0.0002954398043 0.001077430189 3.094746681e-15)
(-3.864336533e-06 1.440728274e-05 2.775557562e-17)
(-0.0005605173217 0.002865124806 8.021361353e-15)
(-0.001389771174 0.006967269824 1.994238108e-14)
(-0.001646883582 0.00943783099 2.700617507e-14)
(-0.0007696768773 0.004492091996 1.257327575e-14)
(-0.0009322268639 0.009466178142 2.649269693e-14)
(-0.001625858867 0.01630565773 4.66710004e-14)
(-0.001349034708 0.01801648477 5.156985949e-14)
(-0.0007998912486 0.01077254845 3.014255512e-14)
(0 0 0)
(0 0 0)
(0 0 0)
(0 0 0)
(0 0 0)
(0 0 0)
(0 0 0)
(0 0 0)
(0 0 0)
(0 0 0)
(0 0 0)
(0 0 0)
(0 0 0)
(0 0 0)
(0 0 0)
(0 0 0)
(0 0 0)
(0 0 0)
(0 0 0)
(0 0 0)
(0 0 0)
(0 0 0)
(-0.0001434069464 0.0003277101744 1.026956298e-15)
(-0.0007831377397 0.001909251918 6.022959909e-15)
(-0.0001855611813 0.0004635175551 1.429412144e-15)
(-0.002642142292 0.008266307134 2.541022948e-14)
(-0.004220821283 0.01291282489 4.067579606e-14)
(-0.005375501741 0.01798295904 5.662137426e-14)
(-0.003627434281 0.01240141632 3.810840532e-14)
(-0.005601097254 0.02654278662 8.149037001e-14)
(-0.007388313905 0.03434502496 1.080524559e-13)
(-0.0074002367 0.03951122154 1.243033454e-13)
(-0.005734774147 0.03117993466 9.571510251e-14)
(-0.004397510362 0.04265583376 1.309924391e-13)
(-0.005426209726 0.05199148973 1.636468738e-13)
(-0.004216181956 0.05480536193 1.725564136e-13)
(-0.003457576833 0.04529565092 1.391387006e-13)
(0 0 0)
(0 0 0)
(0 0 0)
(0 0 0)
(0 0 0)
(0 0 0)
(0 0 0)
(0 0 0)
(0 0 0)
(0 0 0)
(0 0 0)
(0 0 0)
(0 0 0)
(0 0 0)
(0 0 0)
(0 0 0)
(0 0 0)
(0 0 0)
(0 0 0)
(-6.170155709e-05 0.0001063106693 3.60822483e-16)
(0 0 0)
(-0.002623741987 0.005551683691 1.892930257e-14)
(-0.003898080217 0.008016103555 2.810252031e-14)
(-0.006093415422 0.01340654639 4.696243394e-14)
(-0.004476639608 0.01012331388 3.450018049e-14)
(-0.01017975816 0.02902767977 9.874046025e-14)
(-0.01234093258 0.0343171387 1.199179644e-13)
(-0.01376281908 0.04192942025 1.464384169e-13)
(-0.01159247865 0.0362038263 1.230821001e-13)
(-0.0130462347 0.05690849446 1.933453397e-13)
(-0.01484744907 0.06322771209 2.206984595e-13)
(-0.01410821099 0.06916899228 2.414735079e-13)
(-0.01252201928 0.06287085537 2.136069099e-13)
(-0.008363822743 0.07624272216 2.593480986e-13)
(-0.009208581633 0.08206830721 2.868955074e-13)
(-0.006929736105 0.08466655877 2.961797474e-13)
(-0.006331917401 0.07904241698 2.690347944e-13)
(0 0 0)
(0 0 0)
(0 0 0)
(0 0 0)
(0 0 0)
(0 0 0)
(0 0 0)
(0 0 0)
(0 0 0)
(0 0 0)
(0 0 0)
(0 0 0)
(0 0 0)
(0 0 0)
(0 0 0)
(0 0 0)
(0 0 0)
(-0.0002851699651 0.0004271394033 1.637578961e-15)
(-0.0006484838318 0.000941323517 3.73312492e-15)
(-0.002302642932 0.003520252614 1.393329896e-14)
(-0.001548227687 0.002441653411 9.381384558e-15)
(-0.009080443034 0.01707990479 6.540601394e-14)
(-0.01073971136 0.0195951357 7.738254482e-14)
(-0.01382785902 0.02697938645 1.064148769e-13)
(-0.01199155266 0.02411731843 9.225953335e-14)
(-0.01883511874 0.04784569208 1.824373985e-13)
(-0.02079575493 0.05117830941 2.012973122e-13)
(-0.02186939282 0.05892426969 2.316064007e-13)
(-0.0199941297 0.05566794071 2.120664755e-13)
(-0.01956904746 0.07639927227 2.906841434e-13)
(-0.02078609635 0.07835207355 3.075040222e-13)
(-0.01910741795 0.08291944835 3.254896352e-13)
(-0.01805003769 0.08108472555 3.086281231e-13)
(-0.01109137978 0.09040034736 3.447797603e-13)
(-0.0114915101 0.09007005349 3.543276783e-13)
(-0.008489866521 0.09084030451 3.576999807e-13)
(-0.008237355502 0.09177635111 3.50358631e-13)
(0 0 0)
(0 0 0)
(0 0 0)
(0 0 0)
(0 0 0)
(0 0 0)
(0 0 0)
(0 0 0)
(0 0 0)
(0 0 0)
(0 0 0)
(0 0 0)
(0 0 0)
(0 0 0)
(-2.714391122e-05 3.008831883e-05 1.526556659e-16)
(-7.406840871e-07 8.525411959e-07 0)
(0 0 0)
(-0.002035590251 0.002672409275 1.171285291e-14)
(-0.002569164951 0.003254270767 1.477984402e-14)
(-0.005328266111 0.007112559796 3.227973444e-14)
(-0.004546049902 0.006288795014 2.753353101e-14)
(-0.01473310771 0.02434490846 1.061234434e-13)
(-0.01603692417 0.02557289593 1.154631946e-13)
(-0.0194604543 0.03318056911 1.496025526e-13)
(-0.01843526521 0.03258570918 1.418171136e-13)
(-0.02537275266 0.05648587898 2.450817327e-13)
(-0.02643024857 0.05672387435 2.54934962e-13)
(-0.02708174019 0.06351452372 2.853550729e-13)
(-0.02612243628 0.0635746135 2.757238882e-13)
(-0.02340447353 0.07868764579 3.414768468e-13)
(-0.02392109202 0.07729786768 3.476247068e-13)
(-0.02146531809 0.07924002533 3.566452689e-13)
(-0.02113390179 0.08133658063 3.531203108e-13)
(-0.01212842515 0.08270624451 0)
(-0.01235235734 0.07971536883 0)
(-0.01079567547 0.07968973387 0)
(-0.00915309767 0.07972894117 0)
(-0.009028472368 0.08120902331 0)
(-0.008965515114 0.08265519207 0)
(0 0 0)
(0 0 0)
(0 0 0)
(0 0 0)
(0 0 0)
(0 0 0)
(0 0 0)
(0 0 0)
(0 0 0)
(0 0 0)
(0 0 0)
(0 0 0)
(0 0 0)
(0 0 0)
(-0.000244579447 0.0002295878257 1.276756478e-15)
(-0.0001393791461 0.000136746447 7.21644966e-16)
(-0.0001140242957 0.0001166926436 5.967448757e-16)
(-0.003691530865 0.004159480074 2.123301535e-14)
(-0.00382859609 0.004135458257 2.201017146e-14)
(-0.007087345694 0.008068807947 4.288236433e-14)
(-0.006899750508 0.008194286048 4.175826351e-14)
(-0.018535156 0.02628832857 1.331990074e-13)
(-0.01883559928 0.0256040219 1.352667978e-13)
(-0.02241335745 0.03255757818 1.71682113e-13)
(-0.02209069035 0.03348435134 1.693645224e-13)
(-0.0286008248 0.05440499551 2.743222316e-13)
(-0.02891587225 0.05266978055 2.768341112e-13)
(-0.02927162666 0.05815584772 3.055888875e-13)
(-0.02898172225 0.0601601078 3.032574192e-13)
(-0.02478300577 0.07045833521 3.557709682e-13)
(-0.02494182537 0.0677332712 3.566313911e-13)
(-0.02207345922 0.06820521759 0)
(-0.02197063324 0.07113218474 3.596012377e-13)
(-0.0127547474 0.07085700474 0)
(-0.01281338619 0.06937298016 0)
(-0.01127824499 0.06933015621 0)
(-0.01121981963 0.07081184717 0)
(0 0 0)
(0 0 0)
(0 0 0)
(0 0 0)
(0 0 0)
(0 0 0)
(0 0 0)
(0 0 0)
(0 0 0)
(0 0 0)
(0 0 0)
(0 0 0)
(0 0 0)
(0 0 0)
(-0.0004014951124 0.000309008672 2.095545959e-15)
(-0.0003626292324 0.0002944061716 1.90125693e-15)
(-0.0003181280716 0.0002717187917 1.665334537e-15)
(-0.004549511988 0.004279109697 2.614575223e-14)
(-0.004704580324 0.004206609642 2.703393065e-14)
(-0.008203900499 0.00773273392 4.959921363e-14)
(-0.008009462524 0.007941140341 4.843347945e-14)
(-0.02002740548 0.02369811363 1.435379593e-13)
(-0.02027521906 0.02280453358 1.452032938e-13)
(-0.02383588072 0.02862937631 1.819100426e-13)
(-0.02358935392 0.02981245104 1.801891969e-13)
(-0.02983089751 0.04714744644 2.839534163e-13)
(-0.03003506074 0.04507753055 2.853550729e-13)
(-0.0302387754 0.0494179989 3.127775816e-13)
(-0.03005687047 0.05174848292 3.116257252e-13)
(-0.02532330739 0.05929715368 3.580191699e-13)
(-0.02543195692 0.05644035285 3.582412145e-13)
(-0.02245818538 0.05655700508 0)
(-0.02236406581 0.05946187209 0)
(-0.01316382547 0.05915418315 0)
(-0.01321179449 0.05770076929 0)
(-0.01168077024 0.0576497804 0)
(-0.01163259925 0.05910318746 0)
(0 0 0)
(0 0 0)
(0 0 0)
(0 0 0)
(0 0 0)
(0 0 0)
(0 0 0)
(0 0 0)
(0 0 0)
(0 0 0)
(0 0 0)
(0 0 0)
(0 0 0)
(0 0 0)
(-0.0005922733396 0.0003559276708 3.094746681e-15)
(-0.0005339700039 0.0003434026866 2.789435349e-15)
(-0.0004820603469 0.0003303478994 2.525757381e-15)
(-0.005090899381 0.003844128052 2.92543767e-14)
(-0.005247394768 0.003719302777 3.014255512e-14)
(-0.008878411727 0.006635121156 5.362377209e-14)
(-0.008685259864 0.006914268951 5.24719157e-14)
(-0.020890355 0.01984058258 1.492833634e-13)
(-0.02113242244 0.01884192317 1.508931868e-13)
(-0.02469258305 0.02349957838 1.876970801e-13)
(-0.0244520818 0.0247904275 1.860595011e-13)
(-0.03056525372 0.03863232677 2.886996198e-13)
(-0.03076400072 0.03647381875 2.900180096e-13)
(-0.03089691583 0.03982708447 3.166356066e-13)
(-0.03072014104 0.04223141002 3.15567017e-13)
(-0.02574211744 0.04783918623 3.587130593e-13)
(-0.02584542732 0.04496931776 3.588657149e-13)
(-0.02282939673 0.04496182573 0)
(-0.02273708424 0.04785907005 0)
(-0.01354282662 0.04755185233 0)
(-0.01358972986 0.04610406414 0)
(-0.01206078129 0.0460534822 0)
(-0.01203719276 0.04677743908 0)
(-0.01201362464 0.04750079005 0)
(0 0 0)
(0 0 0)
(0 0 0)
(0 0 0)
(0 0 0)
(0 0 0)
(0 0 0)
(0 0 0)
(0 0 0)
(0 0 0)
(0 0 0)
(0 0 0)
(0 0 0)
(0 0 0)
(-0.0008482196491 0.0003666860365 4.440892099e-15)
(-0.0007788830274 0.0003695469577 4.080069615e-15)
(-0.0007118228297 0.0003677423265 3.73312492e-15)
(-0.005736955201 0.0032691235 3.294586826e-14)
(-0.005909519816 0.003093825164 3.393119119e-14)
(-0.009687280905 0.005350839193 5.845324225e-14)
(-0.009477767863 0.005696846702 5.720424134e-14)
(-0.02187504459 0.01569713147 1.558198015e-13)
(-0.02213163172 0.01460102149 1.575267694e-13)
(-0.02568220582 0.01808271795 1.943861738e-13)
(-0.02542864964 0.01947365964 1.926792059e-13)
(-0.03136749958 0.02986946067 2.939315458e-13)
(-0.03157302489 0.02762765684 2.952638134e-13)
(-0.0316120449 0.03002997886 3.209377208e-13)
(-0.03143121619 0.03250460838 3.198552534e-13)
(-0.02614880529 0.03633093645 3.59254293e-13)
(-0.02624756656 0.03344451686 3.593514375e-13)
(-0.02319577667 0.03336601177 0)
(-0.02310468661 0.03626498227 0)
(-0.01391607055 0.03595835907 0)
(-0.01396214395 0.03450919493 0)
(-0.01243582327 0.03445863415 0)
(-0.01241261826 0.03518321055 0)
(-0.01238935046 0.03590765003 0)
(0 0 0)
(0 0 0)
(0 0 0)
(0 0 0)
(0 0 0)
(0 0 0)
(0 0 0)
(0 0 0)
(0 0 0)
(0 0 0)
(0 0 0)
(0 0 0)
(0 0 0)
(0 0 0)
(-0.001072110445 0.0002826716796 5.606626274e-15)
(-0.001108730823 0.0003391099865 5.800915304e-15)
(-0.001012089731 0.0003522119788 5.301314943e-15)
(-0.006473893776 0.002490731695 3.715083796e-14)
(-0.006694646917 0.002266122103 3.841371665e-14)
(-0.01062971665 0.00380317485 6.407374631e-14)
(-0.0103664638 0.004212811354 6.250555629e-14)
(-0.02295108592 0.01117223707 1.629252289e-13)
(-0.02326263334 0.009987276781 1.649791415e-13)
(-0.02679321042 0.01228622189 2.018663015e-13)
(-0.02648866201 0.01376727963 1.998123889e-13)
(-0.03221531267 0.02078833216 2.99413272e-13)
(-0.03245026945 0.01847415288 3.009675842e-13)
(-0.03237325451 0.01997764136 3.255173908e-13)
(-0.03217187311 0.02251217164 3.242822677e-13)
(-0.0265363934 0.02477156003 3.595734821e-13)
(-0.02663031158 0.02187561893 3.596012377e-13)
(-0.02355779952 0.02177348836 0)
(-0.02346733806 0.02467180606 0)
(-0.01428023414 0.02436631221 0)
(-0.01432502386 0.02291723961 0)
(-0.01280158674 0.022867113 0)
(-0.01277904816 0.02359191406 0)
(-0.0127564604 0.02431617426 0)
(-0.0115840145 0.06055887217 0)
(-0.01311544496 0.06060980735 0)
(-0.01199005652 0.04822414101 0)
(-0.01196646118 0.04894829986 0)
(-0.01349592111 0.04899970783 0)
(-0.01236608947 0.03663188755 0)
(-0.01234281713 0.03735646168 0)
(-0.01386986703 0.03740738404 0)
(-0.01273387718 0.02504029982 0)
(-0.0127112221 0.02576455776 0)
(-0.01423532338 0.02581497634 0)
(-0.01115723114 0.07229507341 0)
(-0.0126925434 0.07234082155 0)
(-0.001101985146 0.08244788562 0)
(-0.001154919653 0.08100892788 0)
(-0.02264456071 0.05075657685 0)
(-0.02563994857 0.05070906975 3.585742814e-13)
(-0.01502640224 0.04905081322 0)
(-0.01507310804 0.04760288358 0)
(-0.0146956576 0.05920519927 0)
(-0.01474348744 0.05775191552 0)
(-0.02301325313 0.03916414341 0)
(-0.02604911874 0.03921467602 3.591432707e-13)
(-0.01539840031 0.03745828898 0)
(-0.01544440413 0.03600918989 0)
(-0.01511974426 0.046155019 0)
(-0.01373023908 0.04175664884 0)
(-0.01220223758 0.04170596401 0)
(-0.01217861728 0.04243086342 0)
(-0.01215507338 0.0431554958 0)
(-0.01368347655 0.04320626156 0)
(-0.007620533272 0.04155405446 0)
(-0.007609698179 0.04191657072 0)
(-0.007600050249 0.04227905959 0)
(-0.008363326175 0.04230431018 0)
(-0.008386340561 0.04157939035 0)
(-0.007431049813 0.04734831195 0)
(-0.008194980971 0.04737371942 0)
(-0.008219145923 0.04665065817 0)
(-0.007455744278 0.04662553815 0)
(-0.007443219662 0.04698718867 0)
(-0.02337695754 0.02756972208 0)
(-0.02643929887 0.02766330197 3.594902154e-13)
(-0.015762048 0.02586555074 0)
(-0.01580675906 0.02441681248 0)
(-0.01549020824 0.03456001667 0)
(-0.01409958125 0.0301609347 0)
(-0.01257435136 0.03011000628 0)
(-0.01255141337 0.03083465908 0)
(-0.01252840125 0.03155951158 0)
(-0.01405397684 0.03161018205 0)
(-0.008008122384 0.02995888784 0)
(-0.007994183752 0.03032109731 0)
(-0.008378165633 0.0303339701 0)
(-0.008390982231 0.02997165541 0)
(-0.007823096677 0.03575686776 0)
(-0.008581588244 0.03578168751 0)
(-0.008605596601 0.03505727298 0)
(-0.007847713215 0.03503240633 0)
(-0.007835973792 0.03539475731 0)
(-0.0158514164 0.02296766801 0)
(-0.0144583673 0.01857045901 0)
(-0.01369658141 0.01854539344 0)
(-0.01367437264 0.01927040782 0)
(-0.01443622811 0.01929540833 0)
(-0.008342245483 0.01836785062 0)
(-0.008338030338 0.01873112917 0)
(-0.008738434321 0.01874549898 0)
(-0.008746145677 0.01838267524 0)
(-0.008175902716 0.02416464035 0)
(-0.008570440701 0.02417847547 0)
(-0.008584446434 0.02381687486 0)
(-0.008192489135 0.02380326151 0)
(-0.006842576552 0.0647824357 0)
(-0.006867852437 0.06405240903 0)
(-0.006101764436 0.06402760288 0)
(-0.006089114883 0.06439276073 0)
(-0.00607693916 0.06475705835 0)
(-0.007041223192 0.05894987356 0)
(-0.006272222722 0.05892389086 0)
(-0.006260294498 0.05928704429 0)
(-0.006250351947 0.05965127563 0)
(-0.007017456162 0.05967712703 0)
(-0.006607694287 0.0707026395 0)
(-0.006641808721 0.06995574123 0)
(-0.005870345927 0.06994582457 0)
(-0.005836268804 0.0706912157 0)
(-0.006050948229 0.06548970301 0)
(-0.006816631608 0.06551451574 0)
(-0.007418547885 0.04770928925 0)
(-0.007406492265 0.04807102298 0)
(-0.00817081602 0.04809678067 0)
(-0.007239849087 0.05314392698 0)
(-0.008002700801 0.05316936547 0)
(-0.008026908859 0.05244502507 0)
(-0.007264256848 0.05241966071 0)
(-0.01335436574 0.05334816628 0)
(-0.01340166685 0.05189857171 0)
(-0.01187165699 0.0518474822 0)
(-0.01182415617 0.05329700264 0)
(-0.006503696255 0.05239463643 0)
(-0.006491611436 0.05275643658 0)
(-0.006478462832 0.05311840307 0)
(-0.007047128524 0.04733544121 0)
(-0.007034417893 0.04769641147 0)
(-0.007065631693 0.05822358532 0)
(-0.006296741061 0.05819794332 0)
(-0.00628328013 0.05856097769 0)
(-0.006465881866 0.0534807257 0)
(-0.006452712769 0.05384350031 0)
(-0.007215079753 0.05386892246 0)
(-0.007810428339 0.03611878304 0)
(-0.00779742792 0.03648055233 0)
(-0.008557189559 0.03650568449 0)
(-0.008409981278 0.04085388503 0)
(-0.007643240535 0.04082824808 0)
(-0.007630598755 0.04119117526 0)
(-0.01377695243 0.04030649526 0)
(-0.01224923157 0.04025548289 0)
(-0.01222573911 0.04098058881 0)
(-0.007241199675 0.04117785032 0)
(-0.007231805158 0.04154081953 0)
(-0.007446044506 0.03574456551 0)
(-0.007432274331 0.03610637626 0)
(-0.007059848156 0.04697440386 0)
(-0.007223860438 0.041903568 0)
(-0.008160090518 0.02452604529 0)
(-0.008556773854 0.02454002011 0)
(-0.008403659644 0.02960947083 0)
(-0.008022052014 0.02959674546 0)
(-0.01414494739 0.02871275772 0)
(-0.01262003824 0.0286623119 0)
(-0.01259727347 0.02938582474 0)
(-0.007637933218 0.02958393547 0)
(-0.007621721394 0.02994579873 0)
(-0.007771291089 0.02414992655 0)
(-0.007751755975 0.02451100382 0)
(-0.007459487138 0.03538247412 0)
(-0.007605509496 0.0303078642 0)
(-0.008757959229 0.01802012456 0)
(-0.008355010492 0.01800546679 0)
(-0.01448049967 0.01784571166 0)
(-0.01371871379 0.01782064609 0)
(-0.007944773036 0.0179900916 0)
(-0.007929005474 0.01835217204 0)
(-0.007792062686 0.02378895834 0)
(-0.007928318006 0.01871577167 0)
(-0.02226894398 0.06237047972 0)
(-0.02520717039 0.06213622163 3.576999807e-13)
(-0.0146474836 0.06066069563 0)
(-0.01428979236 0.07090268456 0)
(-0.01434768718 0.06942073644 0)
(-0.01296876877 0.06497821886 0)
(-0.0114363386 0.06492894846 0)
(-0.01138521319 0.06639402399 0)
(-0.01291777437 0.06644340664 0)
(-0.007581985709 0.06553949936 0)
(-0.007607933982 0.06480752053 0)
(-0.00737512885 0.07072368833 0)
(-0.007409807075 0.06997466034 0)
(-0.01177648668 0.0547475284 0)
(-0.01330697008 0.05479856647 0)
(-0.00797840273 0.05389437683 0)
(-0.007807241378 0.05897535136 0)
(-0.007831649879 0.05824906312 0)
(-0.007782935761 0.05970258667 0)
(-0.007633143678 0.06407745793 0)
(-0.0130177747 0.0635220361 0)
(-0.0114857807 0.06347182333 0)
(-0.003893635015 0.06176356633 0)
(-0.003931418178 0.06140000362 0)
(-0.003592289337 0.06138897938 0)
(-0.003551139702 0.06175323744 0)
(-0.003513078519 0.07067024992 0)
(-0.003538244775 0.07028447633 0)
(-0.003150445829 0.07028146965 0)
(-0.003122467647 0.07067248319 0)
(-0.003652136127 0.06763250921 0)
(-0.003267077941 0.06762457427 0)
(-0.003251044268 0.06799695119 0)
(-0.003641705579 0.06800442118 0)
(-0.006184807428 0.07674721765 0)
(-0.00635251805 0.07520343869 0)
(-0.00556743303 0.07519854259 0)
(-0.004757461325 0.07521392421 0)
(-0.004672531281 0.07597910488 0)
(-0.00458967017 0.07673249288 0)
(-0.005795228985 0.07144681513 0)
(-0.006574930191 0.07144306841 0)
(-0.008311382737 0.02126965958 0)
(-0.008684312589 0.02128148591 0)
(-0.008698002124 0.02091926804 0)
(-0.008327424057 0.02090765577 0)
(-0.01132747272 0.02136739256 0)
(-0.0113500582 0.02064319968 0)
(-0.01059257195 0.02061854861 0)
(-0.01056971944 0.02134266509 0)
(-0.01141767095 0.0184708858 0)
(-0.01066045399 0.0184462438 0)
(-0.01063784354 0.01917117724 0)
(-0.01139519742 0.01919575645 0)
(-0.003751819435 0.064682146 0)
(-0.003709979999 0.06430667295 0)
(-0.003234649026 0.06420145719 0)
(-0.003403068737 0.06467503696 0)
(-0.00350806104 0.0621149367 0)
(-0.003853707019 0.06212557396 0)
(-0.006944115738 0.06186340188 0)
(-0.006179558324 0.06183837771 0)
(-0.006166401876 0.06220337694 0)
(-0.006153450039 0.06256730467 0)
(-0.006918732205 0.06259262286 0)
(-0.004238606768 0.06213841028 0)
(-0.004271504144 0.06177562651 0)
(-0.004133416698 0.064694379 0)
(-0.004116535397 0.0643229081 0)
(-0.003838686171 0.05883109673 0)
(-0.003809066077 0.05917323175 0)
(-0.004215944501 0.05921188153 0)
(-0.004212895736 0.05884754938 0)
(-0.004302377795 0.06141149395 0)
(-0.006969250397 0.06113356591 0)
(-0.006205252064 0.06110775178 0)
(-0.006192638742 0.06147263451 0)
(-0.006734481 0.06772502054 0)
(-0.005968280378 0.06770195625 0)
(-0.005937278876 0.0684488826 0)
(-0.006703449841 0.06847142691 0)
(-0.004030689356 0.06801566968 0)
(-0.004041699941 0.0676433459 0)
(-0.003907552711 0.07065997797 0)
(-0.003926479422 0.07028595423 0)
(-0.003766711438 0.06505324656 0)
(-0.004139354211 0.06506399155 0)
(-0.004048508489 0.06727191173 0)
(-0.00365382219 0.06726107765 0)
(-0.00676292895 0.06698466725 0)
(-0.005996657597 0.06696110182 0)
(-0.003266458118 0.06725076666 0)
(-0.003413317835 0.06504550926 0)
(-0.007333924068 0.05024438306 0)
(-0.006949022124 0.05023141187 0)
(-0.006938474402 0.05059360082 0)
(-0.007322193721 0.05060646475 0)
(-0.004288142994 0.05304789193 0)
(-0.004626356235 0.05305888531 0)
(-0.004650954151 0.05269777646 0)
(-0.004314046985 0.05268682709 0)
(-0.007345255012 0.04988215311 0)
(-0.006959982788 0.04986916944 0)
(-0.007140544821 0.05604464266 0)
(-0.006375042904 0.05601884526 0)
(-0.006361575093 0.0563822838 0)
(-0.006348879307 0.05674561356 0)
(-0.007115523602 0.05677111246 0)
(-0.004075676277 0.05594034565 0)
(-0.00404849262 0.05630278277 0)
(-0.004397351829 0.05631447191 0)
(-0.004423563758 0.05595206945 0)
(-0.004232305574 0.05848538949 0)
(-0.003870125535 0.05847257743 0)
(-0.004262402774 0.05340909709 0)
(-0.004601742512 0.05342026324 0)
(-0.00444929981 0.05558998795 0)
(-0.004102615151 0.05557837208 0)
(-0.007165466953 0.05531911313 0)
(-0.006400986085 0.05529341754 0)
(-0.006387808135 0.05565585485 0)
(-0.00771976289 0.03865495385 0)
(-0.007334360483 0.0386420332 0)
(-0.007320278277 0.03900410304 0)
(-0.0077062372 0.03901710984 0)
(-0.007732339392 0.03829256368 0)
(-0.007348357511 0.03827969089 0)
(-0.007530181651 0.04445271285 0)
(-0.007149936151 0.04444016819 0)
(-0.007137065768 0.04480227886 0)
(-0.007517773532 0.0448149065 0)
(-0.007542659363 0.04409045415 0)
(-0.007162763945 0.04407792128 0)
(-0.008114154658 0.02706412788 0)
(-0.007741972097 0.02705232674 0)
(-0.00773234429 0.02741501849 0)
(-0.008103752631 0.02742679354 0)
(-0.008120939219 0.02670120552 0)
(-0.007744181002 0.02668898057 0)
(-0.007901314629 0.03285705906 0)
(-0.007501725187 0.03284291891 0)
(-0.00749521219 0.03320578302 0)
(-0.007891716021 0.03321968439 0)
(-0.007912632182 0.03249462646 0)
(-0.007512409899 0.03248046498 0)
(-0.01144020726 0.01774615206 0)
(-0.0106832596 0.01772151914 0)
(-0.007941448706 0.02125813641 0)
(-0.007920477111 0.02161983927 0)
(-0.008294690573 0.02163177626 0)
(-0.007961466503 0.02089653621 0)
(-0.003238181166 0.07375104574 0)
(-0.003328573033 0.07297599306 0)
(-0.002518771057 0.07298933818 0)
(-0.002402017848 0.07376942694 0)
(-0.003090612753 0.07106453277 0)
(-0.003482509782 0.07106213458 0)
(-0.00829080123 0.03287038695 0)
(-0.008302475598 0.03250796637 0)
(-0.01095821069 0.03295872841 0)
(-0.01098162675 0.03223388952 0)
(-0.0102205837 0.03220878158 0)
(-0.01019703526 0.03293354861 0)
(-0.0110515315 0.03005956348 0)
(-0.01029109436 0.03003447596 0)
(-0.01026761551 0.03075917793 0)
(-0.01102825463 0.03078427226 0)
(-0.0108645109 0.03585713917 0)
(-0.01088798067 0.03513270649 0)
(-0.01012640129 0.03510751308 0)
(-0.01010279688 0.03583194122 0)
(-0.01017355415 0.0336583179 0)
(-0.01093486422 0.03368350224 0)
(-0.008279598127 0.03323282341 0)
(-0.01123584634 0.0242662776 0)
(-0.01125877071 0.02354202874 0)
(-0.0104998752 0.02351719537 0)
(-0.01047661648 0.02424136556 0)
(-0.01054650308 0.02206757811 0)
(-0.0113046603 0.0220923192 0)
(-0.008670214575 0.02164382481 0)
(-0.008483370969 0.03868014823 0)
(-0.008508005657 0.03795514821 0)
(-0.007745712655 0.03792993075 0)
(-0.01077019158 0.03875593345 0)
(-0.01079388374 0.03803090166 0)
(-0.01003170072 0.03800562051 0)
(-0.01000787392 0.03873064776 0)
(-0.01007913648 0.03655603047 0)
(-0.01084098288 0.03658130028 0)
(-0.006335912751 0.03570937829 0)
(-0.006312329226 0.03607038653 0)
(-0.006683225909 0.03608214434 0)
(-0.006702444676 0.03572085421 0)
(-0.006241587503 0.03715374855 0)
(-0.006624936543 0.03716660001 0)
(-0.006644379895 0.03680484564 0)
(-0.006265135246 0.0367924021 0)
(-0.007771606366 0.03720477096 0)
(-0.007784488019 0.03684252586 0)
(-0.00740441756 0.0368299871 0)
(-0.007390461 0.03719212857 0)
(-0.00849023964 0.02707633014 0)
(-0.008499833785 0.02671363726 0)
(-0.01114400965 0.02716340314 0)
(-0.0111667434 0.02643881086 0)
(-0.01040738571 0.02641369232 0)
(-0.01038438039 0.02713834285 0)
(-0.01045343189 0.02496533605 0)
(-0.01121293104 0.02499025716 0)
(-0.0110747229 0.02933539101 0)
(-0.01031448773 0.0293103103 0)
(-0.01036110352 0.02786305163 0)
(-0.01112093702 0.02788805141 0)
(-0.008479101592 0.02743883619 0)
(-0.008063808551 0.02851287844 0)
(-0.007686742915 0.02850057574 0)
(-0.007670417011 0.02886142416 0)
(-0.008049877096 0.02887387496 0)
(-0.006563146607 0.02846453036 0)
(-0.006534013801 0.02882420579 0)
(-0.006911496843 0.02883652256 0)
(-0.006936383879 0.02847643445 0)
(-0.006450241035 0.02990564587 0)
(-0.006838746981 0.02991887331 0)
(-0.006862884902 0.02955761415 0)
(-0.006478070479 0.02954464591 0)
(-0.006606489962 0.02410797677 0)
(-0.006574125405 0.02446814989 0)
(-0.006927129398 0.02448024832 0)
(-0.006957072578 0.0241199262 0)
(-0.006479160274 0.0255273078 0)
(-0.006881552832 0.02556546941 0)
(-0.006879273379 0.02520230898 0)
(-0.006509722453 0.02518641773 0)
(-0.008127953696 0.02561246069 0)
(-0.008134753768 0.02525007805 0)
(-0.007723501922 0.02523480347 0)
(-0.007720916228 0.02559753034 0)
(-0.007868068248 0.03430759908 0)
(-0.007488520643 0.03429514533 0)
(-0.00748200772 0.03465780725 0)
(-0.00785891178 0.03467010451 0)
(-0.006388107986 0.03426075744 0)
(-0.006392113041 0.03462431302 0)
(-0.006745822329 0.03463468282 0)
(-0.006742434382 0.03427121544 0)
(-0.006720768189 0.0353591295 0)
(-0.006358724399 0.03534807443 0)
(-0.006422409322 0.03026671314 0)
(-0.006814631452 0.03028026802 0)
(-0.006338815395 0.03135004645 0)
(-0.006742370117 0.03136452243 0)
(-0.006766398125 0.03100312477 0)
(-0.006366687501 0.03098898053 0)
(-0.007952437374 0.03140786288 0)
(-0.007966317684 0.03104558404 0)
(-0.007573126095 0.03103199649 0)
(-0.007557021915 0.03139406558 0)
(-0.008243595378 0.02271775497 0)
(-0.00785628779 0.02270456791 0)
(-0.00783479334 0.02306618575 0)
(-0.008226490346 0.02307972294 0)
(-0.006740461133 0.02266736897 0)
(-0.006706967662 0.02302784105 0)
(-0.007051226554 0.02303903817 0)
(-0.00708276318 0.02267843275 0)
(-0.006988198308 0.02375991353 0)
(-0.006639938205 0.02374844677 0)
(-0.007007261367 0.01979184389 0)
(-0.00730604348 0.01979470104 0)
(-0.007273603838 0.01942850222 0)
(-0.007039940756 0.01946052856 0)
(-0.008355401815 0.0198230548 0)
(-0.008351004015 0.01945955339 0)
(-0.007972724287 0.01944727717 0)
(-0.007990216212 0.01981202865 0)
(-0.00400745989 0.06031237181 0)
(-0.003702223869 0.06030882536 0)
(-0.003665632359 0.06066622743 0)
(-0.00399401008 0.06067567615 0)
(-0.003973858708 0.05994364005 0)
(-0.003735714298 0.05997504356 0)
(-0.003598548532 0.06914204639 0)
(-0.003213864172 0.06913301869 0)
(-0.003193278686 0.06951646432 0)
(-0.003578947247 0.06952448722 0)
(-0.002416521851 0.06950744092 0)
(-0.002449030295 0.06912939817 0)
(-0.00233417788 0.07069088352 0)
(-0.002369717981 0.07028948054 0)
(-0.002479955279 0.06875194237 0)
(-0.002200107273 0.06879004195 0)
(-0.003615959526 0.06875839943 0)
(-0.003229404647 0.06875127677 0)
(-0.003732066235 0.06320789469 0)
(-0.003374484392 0.06319523759 0)
(-0.003326748276 0.06355314029 0)
(-0.003697948258 0.06357009812 0)
(-0.003772160049 0.06284656664 0)
(-0.003420235501 0.06283443719 0)
(-0.004140824621 0.06322375924 0)
(-0.004171868257 0.0628611826 0)
(-0.005353336953 0.06326994548 0)
(-0.005368326794 0.06290514283 0)
(-0.004975261 0.06289122252 0)
(-0.004957320268 0.06325558872 0)
(-0.005415119896 0.06181322275 0)
(-0.005033070126 0.06180061727 0)
(-0.005013803121 0.06216493878 0)
(-0.005399477017 0.06217800338 0)
(-0.005307147685 0.06473214761 0)
(-0.00531705218 0.06436704553 0)
(-0.004923751439 0.06435369694 0)
(-0.004917978653 0.0647205963 0)
(-0.004942022786 0.0636209202 0)
(-0.005339509317 0.06363546129 0)
(-0.00411652643 0.06358757419 0)
(-0.004348941479 0.06032098153 0)
(-0.00431460874 0.05995215772 0)
(-0.005463274516 0.06035550154 0)
(-0.005467295089 0.05999039663 0)
(-0.005077698502 0.05997713243 0)
(-0.00508245896 0.06034307246 0)
(-0.005479601073 0.05889603373 0)
(-0.005064778887 0.05888050403 0)
(-0.005062125425 0.05924444181 0)
(-0.005472540264 0.05925955338 0)
(-0.005430294076 0.06144755011 0)
(-0.005051383776 0.06143518524 0)
(-0.005078651924 0.06070724097 0)
(-0.005455522396 0.0607193349 0)
(-0.00434778245 0.06068537408 0)
(-0.003677535213 0.06615002675 0)
(-0.004080863689 0.06616521629 0)
(-0.004105264198 0.06579776519 0)
(-0.003713342834 0.0657846855 0)
(-0.005256603551 0.06620137435 0)
(-0.005270529953 0.06583272777 0)
(-0.004885380125 0.06582011218 0)
(-0.004870083199 0.06618882716 0)
(-0.004910575273 0.06508688129 0)
(-0.005296061181 0.06509852416 0)
(-0.003272326128 0.06613304165 0)
(-0.003238995401 0.06649768453 0)
(-0.003653839174 0.06651677368 0)
(-0.003324785978 0.06577136873 0)
(-0.00439382118 0.05160403906 0)
(-0.00471827833 0.05161362526 0)
(-0.004721710624 0.05124937673 0)
(-0.004419841371 0.05124432614 0)
(-0.005777321138 0.05164540579 0)
(-0.005778215261 0.05128127392 0)
(-0.005409825282 0.05126953318 0)
(-0.005414916144 0.05163406895 0)
(-0.00575016386 0.05018946017 0)
(-0.005329026655 0.05017391985 0)
(-0.005353417119 0.05053856682 0)
(-0.005758646002 0.05055296442 0)
(-0.005726643024 0.05309380816 0)
(-0.005741815797 0.05273197728 0)
(-0.005375589097 0.05272044424 0)
(-0.005357683064 0.05308198081 0)
(-0.00540692415 0.05199722022 0)
(-0.005768860148 0.05200847386 0)
(-0.004366806054 0.05196587526 0)
(-0.004698924546 0.05197592185 0)
(-0.005790164762 0.04873988918 0)
(-0.005807934027 0.048378011 0)
(-0.005391188509 0.04836275348 0)
(-0.00536992069 0.04872444636 0)
(-0.005863155339 0.04729439554 0)
(-0.005457082717 0.0472798347 0)
(-0.005434807759 0.04764021304 0)
(-0.005844527046 0.04765496417 0)
(-0.00575052122 0.04982645601 0)
(-0.0053233721 0.04981051089 0)
(-0.005349797371 0.04908617781 0)
(-0.005773470404 0.04910187099 0)
(-0.003961531925 0.05738762021 0)
(-0.004315040844 0.05739973565 0)
(-0.004342477765 0.05703818327 0)
(-0.003990158203 0.05702617531 0)