/*--------------------------------*- C++ -*----------------------------------*\
| =========                 |                                                 |
| \\      /  F ield         | OpenFOAM: The Open Source CFD Toolbox           |
|  \\    /   O peration     | Version:  v2012                                 |
|   \\  /    A nd           | Website:  www.openfoam.com                      |
|    \\/     M anipulation  |                                                 |
\*---------------------------------------------------------------------------*/
FoamFile
{
    version     2.0;
    format      ascii;
    class       surfaceScalarField;
    location    "0.64";
    object      meshPhi;
}
// * * * * * * * * * * * * * * * * * * * * * * * * * * * * * * * * * * * * * //

dimensions      [0 3 -1 0 0 0 0];
oriented        oriented;


internalField   nonuniform List<scalar> 
5975
(
2.122942906e-05
-0.0001331003747
-2.10304195e-05
0.0002658239727
-0.0001329226076
-0.0005319110217
6.195553662e-06
-8.092704158e-06
0.001060032381
-0.0005272304115
1.006202234e-06
-0.0001083338126
-0.000999300797
0.0001130476395
0.0009373044348
-0.0001936572631
-0.0006874835511
0.0001871129302
0.000586812692
-0.0001091960157
-0.0002851262907
0.0001013634376
0.0001977727617
-2.27281539e-05
-6.023720204e-06
4.641397761e-06
2.256200904e-06
0
0
0
0
0
0
0
0
0
0
0
0
0
0
0
0
0
5.009409791e-05
-0.0002494385971
-5.009403184e-05
0.0004979670253
-0.0002485284942
-0.0009911404572
1.196142118e-05
-1.086193013e-05
0.0009877690377
-0.0001162766894
-0.0008684481417
0.0001156769056
0.0008010363466
-0.0001629398604
-0.0005381227948
0.000160316868
0.0004406700357
-7.238912384e-05
-0.0001790046185
6.114670137e-05
0.0001155414453
-2.859568621e-06
-8.306603047e-07
3.71230038e-07
0
0
0
0
0
0
0
0
0
0
0
0
0
0
0
0
0
0
9.501533124e-05
-0.0009183293071
-9.501533126e-05
0.0009183293071
3.546832035e-06
-0.0008996088419
2.823092166e-07
0.0008717809346
-0.0001169571028
-0.0007107120455
0.0001148546119
0.0006361708712
-0.0001326406861
-0.0003848317361
0.0001223089761
0.000301494676
-3.563059064e-05
-9.32606368e-05
2.918451529e-05
4.870712213e-05
0
0
0
0
0
0
0
0
0
0
0
0
0
0
0
0
0
0
0
0
0
8.784369889e-05
-0.000801199415
-7.964979682e-05
0.0007854717759
-1.420962247e-05
-0.0006965079142
1.879829415e-05
0.0006515551957
-0.000100632868
-0.0004789336306
9.275164524e-05
0.0004134837345
-8.325342883e-05
-0.0002181626878
6.879052245e-05
0.0001596152683
-1.103730881e-05
-2.996874248e-05
6.319285872e-06
8.322857453e-06
0
0
0
0
0
0
0
0
0
0
0
0
0
0
0
0
0
0
0
0
0
4.522365197e-05
-0.0005157961326
-3.357583338e-05
0.0004948787298
-2.699029192e-05
-0.0004012529005
2.680084895e-05
0.0003618370573
-6.093672243e-05
-0.0002316921149
4.884719793e-05
0.0001879650115
-2.837803303e-05
-7.190218069e-05
1.77968695e-05
4.238093977e-05
-7.981715927e-08
-1.903609105e-07
0
0
0
0
0
0
0
0
0
0
0
0
0
0
0
0
0
0
0
0
0
0
0
8.362004961e-06
-0.0002010792725
-4.029951431e-06
0.0001889657451
-1.750970503e-05
-0.0001364044306
1.277275081e-05
0.0001155957047
-1.619254411e-05
-5.340042724e-05
8.529189858e-06
3.538540742e-05
-7.628746328e-07
-2.112613568e-06
2.058223987e-09
2.294150325e-08
0
0
0
0
0
0
0
0
0
0
0
0
0
0
0
0
0
0
0
0
0
0
0
0
0
-9.040386804e-08
-2.071549549e-05
6.936021254e-08
1.800035013e-05
-1.441056513e-06
-7.139308065e-06
1.183985491e-07
3.950829783e-06
0
0
0
0
0
0
0
0
0
0
0
0
0
0
0
0
0
0
0
0
0
0
0
0
0
0
0
0
0
0
0
0
0
0
0
0
0
0
0
0
0
0
0
0
0
0
0
0
0
0
0
0
0
0
0
0
0
0
0
0
0
0
0
0
0
0
0
0
0
0
0
0
0
0
0
0
0
0
0
0
0
0
0
0
0
0
0
0
0
0
0
0
0
0
0
0
0
0
0
0
0
0
0
0
0
0
0
0
0
0
0
0
0
0
0
0
0
0
0
0
0
0
0
0
0
0
0
0
0
0
0
0
0
0
0
0
0
0
0
0
0
0
0
0
0
0
0
0
0
0
0
0
0
0
0
0
0
0
0
0
0
0
0
0
0
0
0
0
0
0
0
0
0
0
0
0
0
0
0
0
0
0
0
0
0
0
0
0
0
0
0
0
0
0
0
0
0
0
0
0
0
0
0
0
0
0
0
0
0
0
0
0
0
0
0
0
0
0
0
0
0
0
0
0
0
0
0
0
0
0
0
0
0
0
0
0
0
0
0
0
0
0
0
0
0
0
0
0
0
0
0
0
0
0
0
0
0
0
0
0
0
0
0
0
0
0
0
0
0
0
0
0
0
0
0
0
0
0
0
0
0
0
0
0
0
0
0
0
0
0
0
0
0
0
0
0
0
0
0
0
0
0
0
0
0
0
0
0
0
0
0
0
0
0
0
0
0
0
0
0
0
0
0
0
0
0
0
0
0
0
0
0
0
0
0
0
0
0
0
0
0
0
0
0
0
0
0
0
0
0
0
0
0
0
0
0
0
0
0
0
0
0
0
0
0
0
0
0
0
0
0
0
0
0
0
0
0
0
0
0
0
0
0
0
0
0
0
0
0
0
0
0
0
0
0
0
0
0
0
0
0
0
0
0
0
0
0
0
0
0
0
0
0
0
0
0
0
0
0
0
0
0
0
0
0
0
0
0
0
0
0
0
0
0
0
0
0
0
0
0
0
0
0
0
0
0
0
0
0
0
0
0
0
0
0
0
0
0
0
0
0
0
0
0
0
0
0
0
0
0
0
0
0
0
0
0
0
0
0
0
0
0
0
0
0
0
0
0
0
0
0
0
0
0
0
0
0
0
0
0
0
0
0
0
0
0
0
0
0
0
0
0
0
0
0
0
0
0
0
0
0
0
0
0
0
0
0
0
0
0
0
0
0
0
0
0
0
0
0
0
0
0
0
0
0
0
0
0
0
0
0
0
0
0
0
0
0
0
0
0
0
0
0
0
0
0
0
0
0
0
0
0
0
0
0
0
0
0
0
0
0
0
0
0
0
0
0
0
0
0
0
0
0
0
0
0
0
0
0
0
0
0
0
0
0
0
0
0
0
0
0
0
0
0
0
0
0
0
0
0
0
0
0
0
0
0
0
0
0
0
0
0
0
0
0
0
0
0
0
0
0
0
0
0
0
0
0
0
0
0
0
0
0
0
0
0
0
0
0
0
0
0
0
0
0
0
0
0
0
0
0
0
0
0
0
0
0
0
0
0
0
0
0
0
0
0
0
0
0
0
0
0
0
0
0
0
0
0
0
0
0
0
0
0
0
0
0
0
0
0
0
0
0
0
0
0
0
0
0
0
0
0
0
0
0
0
0.00013367593
-1.115293338e-05
1.119538932e-05
-0.000133718386
-0.0001339506513
0.0002673564392
2.14995712e-05
-1.089409279e-05
0.0005370164503
1.07538391e-05
-0.0005368761967
0.0002508123969
-2.698699562e-05
2.69873555e-05
-0.0002508127567
-0.0001332698776
-1.098343045e-05
0.0005025325092
-0.0002282262953
1.197336699e-05
1.462691389e-05
-2.416404354e-05
0.0009986764286
-0.0005011780088
-0.000502867223
1.753785356e-05
1.199499309e-05
-0.0005317395715
-1.1065543e-05
0.0004660128794
-5.526655107e-05
5.526655107e-05
-0.0004660128794
-0.0002494387943
-2.69867985e-05
-3.032585319e-05
0.0005362365247
3.004324e-05
-0.0002672399181
-0.0002687139934
2.088963365e-05
0.0002543178597
-0.0002544093879
-2.079810546e-05
0.0002556036547
2.116083983e-05
-0.0002558748609
-2.084913823e-05
0.0002555489833
2.090380965e-05
-3.361576696e-05
0.0005162332368
3.230376393e-05
-0.0005149212338
0.0005311647668
-3.066019813e-05
-0.0002647343674
-0.0002660960545
1.270058254e-05
0.0001362364098
-0.0001367797326
-1.215725977e-05
-2.143631399e-05
0.0002615734671
2.147663135e-05
-0.000130524685
-0.0001310890995
0.0001365083038
1.31235956e-05
-0.0001369313168
-1.165050677e-05
0.0001362606728
1.189813774e-05
-1.847699082e-05
0.0002725869925
1.854532224e-05
-0.0002726553239
0.0002603829573
-0.0002603560818
-2.146318948e-05
0.0009363716141
-0.0004703587348
5.009402236e-05
4.49213089e-05
0.0009297310496
-3.073551584e-05
3.252692097e-05
-0.0009362267757
-3.294506437e-05
-0.0004931734319
-0.0004891860045
-1.845648304e-05
0.0002670729678
1.847849642e-05
-0.0002670949812
0.000271140618
-0.000271142317
-1.847529177e-05
-1.135177545e-05
0.0001359376785
-3.457645875e-05
0.0004928337505
3.188001652e-05
-0.0004901373083
0.0005115568035
-0.0005095998927
-3.557267778e-05
-2.073421075e-05
0.0002542029323
0.0004842726949
-5.526655085e-05
5.526655021e-05
-0.0004842726943
9.769302252e-06
0.0001790902166
-0.0001888595189
-1.243251518e-05
0.0001379422125
1.273117984e-05
-0.0001382408772
-2.269317442e-05
0.0002511844138
2.165777847e-05
-1.851813142e-05
0.0002502366568
1.96485218e-05
-0.0002513670472
-0.0001361541337
1.076603924e-05
-1.237368482e-05
0.0001377617793
-0.0001337661057
-1.303074602e-05
0.0001346035296
1.219332212e-05
-1.156617765e-05
0.0001347213548
1.152852604e-05
-0.0001346837032
-1.203648392e-05
9.299948774e-06
-0.0001310295706
-7.445295328e-06
-1.899848317e-05
-0.0001097103552
-1.379442711e-05
0.0001350385381
1.409686401e-05
-0.000135340975
0.0001322165241
-0.0001291721048
-1.508090316e-05
-4.67165139e-05
0.000132612176
1.890295122e-05
-1.233704196e-05
0.0001328777568
1.25200438e-05
-0.0001330607587
0.0001343258499
-0.0001344321018
-1.36881752e-05
-1.273781393e-05
0.0001304566574
1.280588634e-05
-0.0001305247298
0.0001323939264
-0.0001325097873
-1.222118104e-05
-9.257280361e-06
0.0001327788427
0.0001786501754
-0.0001860954707
0.0001374032296
-0.0001372065286
-1.262921616e-05
-9.263885049e-06
0.0001340694083
-0.000115036221
0.0001393578794
5.005833522e-05
0.0005372015457
6.010458304e-06
0.001031245059
7.297099613e-05
-7.075694792e-05
-0.001065239942
0.0001341668843
-0.0001343696371
-1.136342487e-05
-1.451120524e-05
0.0001336969833
-1.348710155e-05
0.0001344369964
1.408864318e-05
0.0001363077138
-0.0001336653331
-1.329361452e-05
0.0001374338157
-1.265155378e-05
-1.194098389e-05
0.0001378099162
1.20732802e-05
-1.015538492e-05
0.0001374165539
1.019229442e-05
-0.0001374534634
-6.901804899e-06
-1.946134844e-05
0.0001334933223
-0.000107130169
0.000175299187
-0.0001822009919
0.0001736941984
7.090926475e-06
4.80593994e-05
-1.003007018e-05
0.0001356648692
0.0001340127701
-0.0001054147191
0.0001295363347
-1.168469145e-05
1.172233834e-05
-0.0001295739816
0.0001304856126
-0.0001310069384
-1.221648809e-05
-2.275253324e-05
-0.0001198294103
4.892864775e-05
-9.333368643e-06
0.0001394949375
0.0001377115675
-0.000111535453
-0.0001750624836
4.768908898e-05
0.0001366733434
9.308446606e-06
-0.0001843709302
-9.658545734e-06
-0.0001120625782
0.0001361552284
-0.0001074646225
-0.000136825834
1.545082856e-05
0.0001354718694
-1.134534926e-05
4.981870226e-05
-1.319300192e-05
-2.354737203e-05
-0.0001152832785
0.0001336066922
-0.0001073353619
0.0001339766176
1.191171733e-05
-1.222730117e-05
0.0001329277598
-0.0001322232681
0.0001341049153
0.0001296962277
-1.264054613e-05
1.205077415e-05
-1.326927982e-05
0.0001309147333
0.0001326023157
0.0001318008428
-2.350800504e-05
-0.0001175567228
1.1741206e-05
-1.481072973e-05
0.0001348703665
0.0001364772457
1.50688959e-05
0.000137731396
-1.344241252e-05
-0.0001361722246
0.0001364303908
-0.0001096218944
0.0009778042656
-0.0001068590273
0.0007260957246
0.000187224358
-0.0001905801918
-0.0008222757172
0.000621094116
-0.0001937032622
0.000308499254
0.0001420036648
-0.0001521863297
-0.0004086927444
0.0002173812183
-0.0001196536823
2.07509247e-05
2.99529353e-05
-2.645681012e-05
-7.524520861e-05
-2.114591639e-05
0.0002617329809
2.098640261e-05
-1.854543445e-05
0.0002619279137
1.865068642e-05
-0.0002620331657
0.0002660132379
-0.0002659520007
-1.851772026e-05
0.0009996092128
1.063706491e-05
0.0009063621478
8.399780181e-05
-8.043881009e-05
-0.0009597346441
-0.001040202608
7.649767515e-05
0.0008390304286
-0.0001138758646
0.0005685630679
0.0001711521246
-0.0001761989929
-0.0006657107777
-0.0007822523213
0.000182597673
0.0004790891524
-0.0001754704423
0.0002060689868
0.0001028568587
-0.0001113940565
-0.0002904906352
-0.0003814877635
0.0001334001478
0.000132459605
-7.977700502e-05
6.645389918e-06
6.616661258e-06
-1.043534234e-05
-3.177098312e-05
-6.358395914e-05
1.765293168e-05
-5.009402257e-05
0.0004842726943
5.009402319e-05
-3.457645874e-05
0.0004842726943
3.457645876e-05
-0.0004842726943
0.0004979670253
-0.0004979670253
-3.457645875e-05
0.0009088719366
6.764993486e-06
0.0007576332571
9.037859851e-05
-8.946911917e-05
-0.0008216552375
-0.0009207560002
8.424181602e-05
0.0006828035
-0.0001181741777
0.0004221900298
0.0001442834788
-0.0001517820527
-0.0005119590208
-0.0006325608526
0.0001655471608
0.0003337493243
-0.0001382094479
0.0001124983623
6.003221582e-05
-7.23976566e-05
-0.0001764139377
-0.0002581820789
9.094551631e-05
6.431962167e-05
-4.608347586e-05
6.832556176e-07
0
-1.492002971e-06
-5.06448659e-06
-2.287626054e-05
4.650496565e-06
0.0008467376199
-0.0001094569598
0.0001145675414
-0.0001157053559
6.043880476e-05
0.0008355776549
9.311053203e-05
0.0007591591365
-1.305655031e-05
1.887310544e-05
-0.0007929858583
-0.0009141201428
-2.780354442e-05
0.0007163937638
-9.372144214e-06
0.00054145078
8.61210191e-05
-8.897486105e-05
-0.0006062914306
-0.0007761706695
9.081914127e-05
0.0004723939941
-0.0001068912026
0.000260311679
9.819816521e-05
-0.0001118077351
-0.0003297242752
-0.000470356782
0.0001350593622
0.0001949861279
-9.728626853e-05
4.435766696e-05
2.539999156e-05
-3.411579587e-05
-8.494660937e-05
-0.0001529554239
5.187731877e-05
1.60272119e-05
-1.66800548e-05
0
0
0
0
-1.743127715e-06
6.450211017e-08
0.0005976228955
-6.206082845e-05
7.610424913e-05
-0.0001008101671
0.0005762060617
5.741365483e-05
0.0004776476348
9.990946251e-06
-5.308209686e-06
-0.0005158365766
-0.0007337753659
-6.751161865e-06
0.0004349910802
-2.55644855e-05
0.0002901864362
5.916168063e-05
-6.809053712e-05
-0.0003401210291
-0.0005415092429
8.171249275e-05
0.0002402410212
-7.260221477e-05
0.0001032608224
4.021186044e-05
-5.41472926e-05
-0.0001454602048
-0.0002812350985
8.371945157e-05
6.635827331e-05
-4.077350089e-05
2.383012978e-06
1.916621295e-06
-5.325555323e-06
-1.437782782e-05
-6.362554323e-05
1.741018548e-05
0
-9.296064253e-07
0
0
0
0
0
0
0.0002721304139
-1.609286153e-05
2.478607887e-05
-4.827778101e-05
0.0002572794316
1.475385827e-05
0.0001928883464
1.286569988e-05
-1.450696634e-05
-0.0002170045052
-0.0004370610555
1.319283336e-05
0.0001670957799
-2.176146293e-05
8.768211634e-05
1.93704697e-05
-2.875185963e-05
-0.0001136632382
-0.0002759945785
4.927292461e-05
6.335036326e-05
-2.583984271e-05
9.886436995e-06
3.250568742e-06
-8.792700313e-06
-2.341351395e-05
-0.0001068645435
2.765566085e-05
2.170380209e-06
-3.746249474e-06
0
0
0
0
-5.285790843e-06
3.778841176e-07
0
0
0
0
0
0
0
0
4.824857261e-05
-9.805916467e-07
2.481987922e-06
-9.630775945e-06
4.361060427e-05
2.719715063e-07
2.373785067e-05
1.654834296e-06
-4.046220586e-06
-3.093392378e-05
-0.0001560192214
1.020279742e-05
1.663268527e-05
-4.216212536e-06
1.783003776e-06
7.762925953e-08
-1.522850187e-06
-5.022661281e-06
-7.332277609e-05
1.13997804e-05
1.839534733e-07
-5.060721164e-07
0
0
0
0
-8.733320807e-06
5.395548421e-07
0
0
0
0
0
0
0
0
0
0
0
0
0
0
0
0
0
0
0
-2.721093703e-07
0
0
0
0
0
0
-1.084391505e-05
2.730170529e-07
0
0
0
0
0
0
-3.478268597e-07
0
0
0
0
0
0
0
0
0
0
0
0
0
0
0
0
0
0
0
0
0
0
0
0
0
0
0
0
0
0
0
0
0
0
0
0
0
0
0
0
0
0
0
0
0
0
0
0
0
0
0
0
0
0
0
0
0
0
0
0
0
0
0
0
0
0
0
0
0
0
0
0
0
0
0
0
0
0
0
0
0
0
0
0
0
0
0
0
0
0
0
0
0
0
0
0
0
0
0
0
0
0
0
0
0
0
0
0
0
0
0
0
0
0
0
0
0
0
0
0
0
0
0
0
0
0
0
0
0
0
0
0
0
0
0
0
0
0
0
0
0
0
0
0
0
0
0
0
0
0
0
0
0
0
0
0
0
0
0
0
0
0
0
0
0
0
0
0
0
0
0
0
0
0
0
0
0
0
0
0
0
0
0
0
0
0
0
0
0
0
0
0
0
0
0
0
0
0
0
0
0
0
0
0
0
0
0
0
0
0
0
0
0
0
0
0
0
0
0
0
0
0
0
0
0
0
0
0
0
0
0
0
0
0
0
0
0
0
0
0
0
0
0
0
0
0
0
0
0
0
0
0
0
0
0
0
0
0
0
0
0
0
0
0
0
0
0
0
0
0
0
0
0
0
0
0
0
0
0
0
0
0
0
0
0
0
0
0
0
0
0
0
0
0
0
0
0
0
0
0
0
0
0
0
0
0
0
0
0
0
0
0
0
0
0
0
0
0
0
0
0
0
0
0
0
0
0
0
0
0
0
0
0
0
0
0
0
0
0
0
0
0
0
0
0
0
0
0
0
0
0
0
0
0
0
0
0
0
0
0
0
0
0
0
0
0
0
0
0
0
0
0
0
0
0
0
0
0
0
0
0
0
0
0
0
0
0
0
0
0
0
0
0
0
0
0
0
0
0
0
0
0
0
0
0
0
0
0
0
0
0
0
0
0
0
0
0
0
0
0
0
0
0
0
0
0
0
0
0
0
0
0
0
0
0
0
0
0
0
0
0
0
0
0
0
0
0
0
0
0
0
0
0
0
0
0
0
0
0
0
0
0
0
0
0
0
0
0
0
0
0
0
0
0
0
0
0
0
0
0
0
0
0
0
0
0
0
0
0
0
0
0
0
0
0
0
0
0
0
0
0
0
0
0
0
0
0
0
0
0
0
0
0
0
0
0
0
0
0
0
0
0
0
0
0
0
0
0
0
0
0
0
0
0
0
0
0
0
0
0
0
0
0
0
0
0
0
0
0
0
0
0
0
0
0
0
0
0
0
0
0
0
0
0
0
0
0
0
0
0
0
0
0
0
0
0
0
0
0
0
0
0
0
0
0
0
0
0
0
0
0
0
0
0
0
0
0
0
0
0
0
0
0
0
0
0
0
0
0
0
0
0
0
0
0
0
0
0
0
0
0
0
0
0
0
0
0
0
0
0
0
0
0
0
0
0
0
0
0
0
0
0
0
0
0
0
0
0
0
0
0
0
0
0
0
0
0
0
0
0
0
0
0
0
0
0
0
0
0
0
0
0
0
0
0
0
0
0
0
0
0
0
0
0
0
0
0
0
0
0
0
0
0
0
0
0
0
0
0
0
0
0
0
0
0
0
0
0
0
0
0
0
0
0
0
0
0
0
0
0
0
0
0
0
0
0
0
0
0
0
0
0
0
0
0
0
0
0
0
0
0
0
0
0
0
0
0
0
0
0
0
0
0
0
0
0
0
0
0
0
0
0
0
0
0
0
0
-0.0001341031303
1.134786831e-05
-1.199968026e-05
1.226576012e-05
-0.0001343692101
-0.0001339015623
-1.181650393e-05
2.039808866e-05
0.0002672090084
-2.025065789e-05
-0.0002682916294
0.0002683055107
2.038420737e-05
2.163989461e-05
-0.0001342650684
0.0005514861634
-0.0005513352094
-1.07120682e-05
-0.0002748288255
-2.516053321e-05
0.0005510474398
-2.618458409e-05
0.0005365240962
2.589701256e-05
0.00024938988
-0.0002512030258
-1.670498568e-05
0.00026039577
-1.309087516e-05
0.0001339296235
-1.180766141e-05
0.0001326546585
1.203075975e-05
-2.175659817e-05
0.0002645194352
1.129614863e-05
1.101458617e-05
-0.0001324460617
-0.0001326275102
4.492130888e-05
0.0005025325092
-4.492130889e-05
0.0004935247162
4.301659426e-05
-0.0002444475675
-0.0002471724341
1.905018396e-05
-1.769072106e-05
0.0002480304171
1.142459717e-05
0.0005122645943
-0.0005120942456
-1.159494581e-05
2.780331901e-05
-2.727792695e-05
0.0005110314115
-2.940346193e-05
0.0004940713538
2.81658586e-05
-2.649981827e-05
0.000531480001
0.0005163629298
2.767362605e-05
0.0005173280012
1.128330065e-05
-0.0005171867047
0.0004797072106
-0.0004797072104
-5.526655101e-05
-5.526654859e-05
0.0004931734389
2.827972104e-05
2.698682052e-05
-0.0002460165605
-0.0002471568714
1.45320104e-05
0.0005413458016
-0.0002698462306
-0.0002712668003
1.527845896e-05
1.734800946e-05
-1.738369033e-05
0.0002711762989
-1.757706439e-05
0.0002671540622
1.749596998e-05
0.0002724360174
1.749898463e-05
0.0002724754963
1.437533413e-05
-0.00027231882
0.0001378155537
-1.201919708e-05
-1.133317998e-05
0.0001378612644
-2.101951319e-05
2.131102858e-05
-0.0002547009033
0.0002530686068
-0.0002537723249
-2.031579506e-05
-2.020882014e-05
0.0002524793215
-0.0002575581332
2.130519111e-05
0.0002574137819
-2.177593164e-05
2.178281785e-05
-0.0001289833597
-0.0001285816597
-0.000256339764
0.0002561500293
-1.90041087e-05
1.891124308e-05
-0.0002560571637
0.0002605159307
-0.0002603508203
-1.871054487e-05
-2.094335769e-05
0.0002601803986
-0.0005203203427
3.115974484e-05
0.0005214643618
-3.555997335e-05
3.478994386e-05
-0.0002590343825
-3.65567208e-05
-0.000257774457
-1.759314342e-05
0.0002660293169
0.0005257605459
-0.0002635869504
1.761490388e-05
1.692935823e-05
0.0005262600926
-1.292773356e-05
1.354277789e-05
-0.0001373947769
0.0001362166625
-0.0001365320076
-1.261238851e-05
-1.182554475e-05
0.0001358849475
1.508869695e-05
-1.540177771e-05
0.0001303474865
-0.0001279092917
0.0001297287088
0.0002634059777
-0.0001316341131
-0.0001320518314
-1.157265289e-05
0.0001321589178
-1.176500281e-05
0.0001304399027
1.178175757e-05
-0.000136603419
1.314260449e-05
0.0001365844101
-1.434285709e-05
1.41698289e-05
2.03734742e-05
0.0002727607707
-2.042545679e-05
-0.0001361333936
-0.0001365753946
0.0002738770458
1.039913192e-05
-0.0001368836906
-0.0001371743979
-1.185247175e-05
0.0001373147174
-0.0002738549909
1.853545632e-05
0.0002738648568
-1.959292853e-05
1.961498345e-05
-1.948748172e-05
0.0002749706215
-0.0001376021323
0.0002748029093
-2.234864461e-05
-0.0001305886342
1.130180681e-05
0.0002589358093
-0.0001299653013
0.0002587778109
1.479737816e-05
-1.435295662e-05
0.0001312215278
0.0001313935752
-2.21217101e-05
-0.0001283006867
-0.0001286899235
1.152211031e-05
1.125044602e-05
-0.0001293093623
-1.135868889e-05
7.432544625e-05
0.0009363716141
-7.43254462e-05
0.0009548489369
3.974898748e-05
-0.0004751417265
-0.0004797072104
-5.009402237e-05
0.0004797072104
-0.0009548489369
3.294506436e-05
0.0009536829458
-5.36352369e-05
5.363523689e-05
-5.359695066e-05
-2.940346194e-05
0.0004979670253
0.0009731108724
-0.0004888381781
2.940346194e-05
2.423177495e-05
0.0009731108724
-0.0002684152998
1.833522068e-05
0.0002685585755
-1.956932735e-05
1.945953824e-05
-1.945530018e-05
-1.959457422e-05
-0.0002710352246
0.0002698639161
-0.0002699989521
0.000269723845
0.0002697559933
-0.0001351262266
1.106102074e-05
1.067046192e-05
2.014124863e-05
-0.0001354456767
-0.000135873756
-0.0005043853176
3.62108401e-05
0.000500054494
-5.214418837e-05
4.128358697e-05
-3.974898748e-05
-3.823237894e-05
-0.0005079242346
0.0005051315538
-0.0005020803458
0.0005057697161
0.000249166185
2.012065574e-05
4.07642603e-05
-0.0002489540036
-0.0002508740082
-0.00025244963
-0.0002542283244
2.051387142e-05
-0.0004888381781
0.0004888381798
-6.043880477e-05
2.957284194e-05
-6.043880475e-05
-0.0001376954467
0.0001377750728
-1.327749375e-05
-1.202343338e-05
2.145329019e-05
-2.09782333e-05
-0.000126943991
-0.0001273033908
-0.0001278625684
-0.0001275067548
2.039778104e-05
0.000252571076
-2.178444326e-05
-0.0002530287429
0.0002524482906
1.09434985e-05
-0.000251706341
0.0002511460427
-1.957384548e-05
-1.836981665e-05
0.0001365634681
-1.278192454e-05
1.307541018e-05
-1.304394967e-05
1.270537167e-05
0.0001347731541
-1.287499618e-05
-0.0001360847409
0.0001357461629
-0.0001354232453
-1.22894709e-05
-1.220001991e-05
-0.0001339563753
1.301046716e-05
0.0001334659519
-1.249842119e-05
1.264696118e-05
-1.263142e-05
-1.361233366e-05
0.0001346994967
0.0001340217887
-0.0001305300906
1.23210925e-05
0.0001310148844
-1.381447634e-05
1.301309454e-05
-1.399171964e-05
-1.253889159e-05
0.0001313889363
0.0001314888477
-1.275271628e-05
0.0001362874792
0.0001368008675
-1.297193799e-05
0.00107963494
1.271360633e-05
-0.000537405716
-0.0005421253746
0.001098584038
-0.0005465171479
-0.0005515748713
-6.049669146e-06
0.0005515571872
-0.001090482274
0.00106054383
3.736872743e-05
4.03300586e-05
-1.231108452e-05
-0.0001342585725
0.000134280625
-0.0001343259494
0.0001342752153
-1.480980298e-05
1.343658541e-05
-1.348731947e-05
1.310581995e-05
-1.25703858e-05
-0.0001347507096
1.126354069e-05
0.0001376687332
-1.112235769e-05
-0.0001378291559
0.0001377595166
-0.0001376696139
1.025977599e-05
-1.061440177e-05
1.070430449e-05
0.0001377771419
1.405145204e-05
0.0001300499792
-1.347264773e-05
0.0001305162564
-0.0001303404374
1.209747442e-05
-1.291538405e-05
1.3091203e-05
-1.243938642e-05
-1.360508285e-05
0.0001307076479
4.890657376e-06
-9.013876172e-06
0
0
0
-1.398756467e-08
0
0
0
0
0
0.0002646249522
-2.113593646e-05
2.032493684e-05
-2.032435537e-05
0.0002646243707
0.0002658982516
0.001040623934
-8.931791331e-06
-0.0005224568453
-1.271086192e-05
1.318424786e-05
0.001036951531
0.001058948068
0.0009111221764
-0.0009724062207
0.0001136697955
-0.0001408307729
0.0001445224986
0.0008332008291
-0.0001422681622
0.0008672723843
0.0005393929809
-0.0006428411053
0.0001814000597
-0.0001795741345
0.0001653147559
0.0004469323933
-0.000187362465
0.0004834549295
0.0001773579637
-0.0002591610918
9.180303112e-05
-6.878285472e-05
6.091639419e-05
0.0001078345321
-7.531492838e-05
0.0001228494703
0
-1.973209669e-06
0
0
0
0
0
0
0
0
0
0
0
0
0
0
0.0004931734319
-5.009402484e-05
4.492130889e-05
-4.492130889e-05
0.0004931734319
0.0004979670253
0.0009657513773
-9.330005447e-06
-1.883896676e-05
2.096126116e-05
0.0009398008878
-1.50516612e-05
0.0009658541096
0.0007583709796
-0.0008342068385
0.000118809892
-0.0001389142992
0.0001379331089
0.0006769071671
-0.000143451805
0.0007227431996
0.0004075592711
-0.0004998669648
0.0001507376998
-0.0001443766117
0.0001347909955
0.0003174111925
-0.0001541606976
0.0003462192209
9.647389589e-05
-0.0001581722365
5.417511945e-05
-3.742529666e-05
2.962304244e-05
4.772203396e-05
-4.402090608e-05
6.104293145e-05
0
0
0
0
0
0
0
0
0
0
0
0
0
0
0
0
0.0008989142133
-0.0008998061979
-9.50691954e-05
7.43033461e-05
-7.347904325e-05
0.0008950780582
0.0009181501397
0.0008271145975
-0.0008611376043
4.641411671e-06
-3.07919503e-05
3.450705873e-05
0.0007813027536
-2.714194785e-05
0.0008303815395
0.0005847888695
-0.000658343274
0.0001115795711
-0.0001313052164
0.0001250420005
0.0005062569615
-0.0001361142619
0.0005551150178
0.000266852768
-0.0003446345747
0.0001104318498
-0.0001020512041
9.024391064e-05
0.0001945906036
-0.0001125421795
0.0002232599264
3.583608368e-05
-7.672118753e-05
2.286424304e-05
-1.220858121e-05
8.526022746e-06
9.77314411e-06
-1.817183805e-05
1.717746228e-05
0
0
0
0
0
0
0
0
0
0
0
0
0
0
0
0
0.0007239018945
-0.0007428239655
-6.921321432e-05
5.669004191e-05
-4.729071138e-05
0.0006985239626
6.455446848e-05
0.0007632819403
0.0005816519024
-0.0006272426119
2.272040741e-05
-4.313793061e-05
4.409118939e-05
0.0005303135437
-4.100436521e-05
0.0005995293814
0.0003541527046
-0.0004151078838
8.333331216e-05
-9.678751672e-05
8.455475251e-05
0.0002930907015
-0.0001077480311
0.0003469654822
0.0001257545916
-0.0001772295937
5.443980047e-05
-5.101840819e-05
3.835970718e-05
8.084297823e-05
-6.424682445e-05
0.0001074706171
2.945748727e-06
-1.770903078e-05
2.87044454e-06
-1.074877799e-06
1.967824048e-07
0
-2.678319161e-06
2.337120315e-07
0
0
0
0
0
0
0
0
0
0
0
0
0
0
0
0
0.000412833442
-0.0004323373876
-2.323972679e-05
1.790489234e-05
-1.02257881e-05
0.0003883839181
2.708061689e-05
0.0004684777499
0.0002917260261
-0.000327078096
2.498986396e-05
-3.785762328e-05
3.281134528e-05
0.0002544108661
-4.151917913e-05
0.0003197410414
0.0001404735032
-0.0001777729536
3.693113716e-05
-4.45269754e-05
3.200350841e-05
0.0001052436207
-5.787614545e-05
0.0001459629352
2.325380039e-05
-4.542999687e-05
9.477578769e-06
-9.084407819e-06
3.657151422e-06
7.975773817e-06
-1.691172505e-05
1.969095803e-05
0
0
0
0
0
0
0
0
0
0
0
0
0
0
0
0
0
0
0
0
0
0
0
0
0.0001297873479
-0.0001391928558
-1.47868684e-06
-1.428245199e-06
2.019521756e-06
0.0001179078557
5.930723868e-07
0.0001737531299
7.289576751e-05
-8.886097218e-05
8.148836352e-06
-1.381224937e-05
8.133347828e-06
5.684198408e-05
-2.022377276e-05
9.431724525e-05
1.541096852e-05
-2.732339616e-05
3.233709808e-06
-5.274226585e-06
1.342832096e-06
6.535372628e-06
-1.188817243e-05
2.017303155e-05
0
-5.822834766e-09
0
0
0
0
-8.573120721e-09
0
0
0
0
0
0
0
0
0
0
0
0
0
0
0
0
0
0
0
0
0
0
0
0
0
4.200372224e-06
-5.293605503e-06
1.751784598e-09
-2.909509966e-07
3.51663418e-09
2.969845487e-06
-9.549573692e-07
1.459845283e-05
1.128972528e-07
-7.711697946e-07
0
-1.828686795e-08
0
0
-9.60378533e-07
1.726902482e-06
0
0
0
0
0
0
0
0
0
0
0
0
0
0
0
0
0
0
0
0
0
0
0
0
0
0
0
0
0
0
0
0
0
0
0
0
0
0
0
0
0
0
0
0
0
0
0
0
0
0
0
0
0
0
0
0
0
0
0
0
0
0
0
0
0
0
0
0
0
0
0
0
0
0
0
0
0
0
0
0
0
0
0
0
0
0
0
0
0
0
0
0
0
0
0
0
0
0
0
0
0
0
0
0
0
0
0
0
0
0
0
0
0
0
0
0
0
0
0
0
0
0
0
0
0
0
0
0
0
0
0
0
0
0
0
0
0
0
0
0
0
0
0
0
0
0
0
0
0
0
0
0
0
0
0
0
0
0
0
0
0
0
0
0
0
0
0
0
0
0
0
0
0
0
0
0
0
0
0
0
0
0
0
0
0
0
0
0
0
0
0
0
0
0
0
0
0
0
0
0
0
0
0
0
0
0
0
0
0
0
0
0
0
0
0
0
0
0
0
0
0
0
0
0
0
0
0
0
0
0
0
0
0
0
0
0
0
0
0
0
0
0
0
0
0
0
0
0
0
0
0
0
0
0
0
0
0
0
0
0
0
0
0
0
0
0
0
0
0
0
0
0
0
0
0
0
0
0
0
0
0
0
0
0
0
0
0
0
0
0
0
0
0
0
0
0
0
0
0
0
0
0
0
0
0
0
0
0
0
0
0
0
0
0
0
0
0
0
0
0
0
0
0
0
0
0
0
0
0
0
0
0
0
0
0
0
0
0
0
0
0
0
0
0
0
0
0
0
0
0
0
0
0
0
0
0
0
0
0
0
0
0
0
0
0
0
0
0
0
0
0
0
0
0
0
0
0
0
0
0
0
0
0
0
0
0
0
0
0
0
0
0
0
0
0
0
0
0
0
0
0
0
0
0
0
0
0
0
0
0
0
0
0
0
0
0
0
0
0
0
0
0
0
0
0
0
0
0
0
0
0
0
0
0
0
0
0
0
0
0
0
0
0
0
0
0
0
0
0
0
0
0
0
0
0
0
0
0
0
0
0
0
0
0
0
0
0
0
0
0
0
0
0
0
0
0
0
0
0
0
0
0
0
0
0
0
0
0
0
0
0
0
0
0
0
0
0
0
0
0
0
0
0
0
0
0
0
0
0
0
0
0
0
0
0
0
0
0
0
0
0
0
0
0
0
0
0
0
0
0
0
0
0
0
0
0
0
0
0
0
0
0
0
0
0
0
0
0
0
0
0
0
0
0
0
0
0
0
0
0
0
0
0
0
0
0
0
0
0
0
0
0
0
0
0
0
0
0
0
0
0
0
0
0
0
0
0
0
0
0
0
0
0
0
0
0
0
0
0
0
0
0
0
0
0
0
0
0
0
0
0
0
0
0
0
0
0
0
0
0
0
0
0
0
0
0
0
0
0
0
0
0
0
0
0
0
0
0
0
0
0
0
0
0
0
0
0
0
0
0
0
0
0
0
0
0
0
0
0
0
0
0
0
0
0
0
0
0
0
0
0
0
0
0
0
0
0
0
0
0
0
0
0
0
0
0
0
0
0
0
0
0
0
0
0
0
0
0
0
0
0
0
0
0
0
0
0
0
0
0
0
0
0
0
0
0
0
0
0
0
0
0
0
0
0
0
0
0
0
0
0
0
0
0
0
0
0
0
0
0
0
0
0
0
0
0
0
0
0
0
0
0
0
0
0
0
0
0
0
0
0
0
0
0
0
0
0
0
0
0
0
0
0
0
0
0
0
0
0
0
0
0
0
0
0
0
0
0
0
0
0
0
0
0
0
0
0
0
0
0
0
0
0
0
0
0
0
0
0
0
0
0
0
0
0
0
0
0
0
0
0
0
0
0
0
0
0
0
0
0
0
0
0
0
0
0
0
0
0
0
0
0
0
0
0
0
0
0
0
0
0
0
0
0
0
0
0
0
0
0
0
0
0
0
0
0
0
0
0
0
0
0
0
0
0
0
0
0
0
0
0
0
0
0
0
0
0
0
0
0
0
0
0
0
0
0
0
0
0
0
0
0
0
0
0
0
0
0
0
0
0
0
0
0
0
0
0
0
0
0
0
0
0
0
0
0
0
0
0
0
0
0
0
0
0
0
0
0
0
0
0
0
0
0
0
0
0
0
0
0
0
0
0
0
0
0
0
0
0
0
0
0
0
0
0
0
0
0
0
0
0
0
0
0
0
0
0
0
0
0
0
0
0
0
0
0
0
0
0
-0.0005422274761
1.077291574e-05
0.0005422083995
-1.554866165e-05
1.545372076e-05
-0.0005421325353
-1.580821081e-05
-0.0005366166475
-0.000213102081
1.18631412e-05
-2.828253185e-05
6.690371503e-05
-0.0002517232642
-0.000250814294
-2.828099458e-05
-1.148900672e-05
-0.0001335973748
0.0001328914518
-0.0001330843099
-1.602534395e-05
-0.0005315224384
0.0005270527125
-0.0005267612875
-1.631676894e-05
-1.124324201e-05
0.0002747956013
-0.0002746939071
-1.544523323e-05
-1.433290658e-05
2.061562839e-05
-2.08394431e-05
0.000255772798
-0.000257275863
0.0002573376068
2.055388454e-05
2.104172863e-05
1.101017975e-05
-1.08829005e-05
-0.0001365253924
1.096017759e-05
1.195715537e-05
1.21533286e-05
-1.203264608e-05
1.251116029e-05
0.0001355941928
1.081897797e-05
0.0002522728642
-2.052775346e-05
2.086483521e-05
-2.104160101e-05
1.145874008e-05
-1.136058936e-05
-0.0001420552574
0.0009072109849
-0.001009543243
0.000939418265
-0.0008534982338
0.0007552500235
0.0001708535616
0.0001692203384
-0.0001942322544
0.0005143336472
-0.0006585248451
0.0005506066915
-0.0004423649266
0.0003380695689
0.0001781961562
0.0001693553694
-8.506290578e-05
0.0001386118158
-0.0002419048204
0.0001575353527
-8.850998508e-05
4.01050638e-05
5.270756456e-05
4.462618316e-05
2.031061436e-05
0.000261894919
-2.047255254e-05
-0.0002632564438
0.0002632427028
-0.0002633389641
1.840270014e-05
-1.960781681e-05
1.951155556e-05
-1.974606347e-05
-1.950904927e-05
0.000264626877
0.0002645118569
-1.423494187e-05
0.0009871970399
-0.001021657779
0.001013798148
-0.0005076879111
-0.0009855587126
-7.695191909e-05
0.0009358858693
4.49732434e-05
-4.301040642e-05
4.119432818e-05
4.208178477e-05
0.001014675285
-0.0001444741637
0.0007583634295
-0.0008734332691
0.0007936801709
-0.0007102646972
-0.0001806322206
0.0006138681354
0.0001612827018
-0.0001676586711
0.0001627393082
0.000166817889
0.0007423705709
-0.0001630635121
0.000382552591
-0.0005135450175
0.0004121059535
-0.0003160130016
-0.0001227893888
0.0002280987046
0.0001405532287
-0.0001500616013
0.0001313810003
0.0001608015638
0.0003500110644
-4.994207355e-05
7.477639452e-05
-0.000151092933
9.143801635e-05
-4.295917837e-05
-1.411171981e-05
1.198322528e-05
2.761927916e-05
-3.395293259e-05
2.124480977e-05
3.973911917e-05
5.364818258e-05
1.741812104e-05
4.492130889e-05
0.0004842726943
-4.492130889e-05
-0.0004888381781
0.0004888381781
-3.974898747e-05
0.0004931734319
-3.974898747e-05
-3.457645875e-05
0.0004931734319
-2.379495342e-05
0.0008726022282
-0.0009399914995
0.0009090581585
-0.0008616408979
-8.842602294e-05
0.0007993941291
5.686166385e-05
-5.458999621e-05
5.937950431e-05
5.090142955e-05
0.0008955614738
-0.0001396592514
0.0005998996634
-0.0007246775527
0.0006392136527
-0.0005478626988
-0.0001580265787
0.0004543775483
0.0001513221011
-0.0001537313674
0.0001455813405
0.0001596919592
0.0005907904625
-0.0001231094409
0.0002509667839
-0.0003693948486
0.0002853924119
-0.0002071265297
-8.229682682e-05
0.0001377760775
9.928667446e-05
-0.0001103991237
8.70744353e-05
0.0001198872236
0.0002333361783
-2.393026822e-05
2.677159003e-05
-7.977297858e-05
3.625414796e-05
-9.183061616e-06
-2.476430758e-06
4.057429253e-08
8.649382967e-06
-1.183096465e-05
5.657561632e-06
1.696405017e-05
1.536743716e-05
9.19940331e-07
0.0001157329256