/*--------------------------------*- C++ -*----------------------------------*\
| =========                 |                                                 |
| \\      /  F ield         | OpenFOAM: The Open Source CFD Toolbox           |
|  \\    /   O peration     | Version:  v2012                                 |
|   \\  /    A nd           | Website:  www.openfoam.com                      |
|    \\/     M anipulation  |                                                 |
\*---------------------------------------------------------------------------*/
FoamFile
{
    version     2.0;
    format      ascii;
    class       surfaceVectorField;
    location    "1.62";
    object      Uf;
}
// * * * * * * * * * * * * * * * * * * * * * * * * * * * * * * * * * * * * * //

dimensions      [0 1 -1 0 0 0 0];


internalField   nonuniform List<vector> 
6464
(
(99.98756075 0.8800880971 2.359446545e-22)
(99.99848302 0.4459098903 0)
(100.0007995 0.448809031 2.846137217e-22)
(100.0074696 0.8914160991 -6.732613109e-24)
(100.0028375 0.440850035 8.584017359e-22)
(100.0041187 0.4230286499 -5.641892927e-23)
(100.0241914 0.8219487574 -5.515341439e-22)
(100.0049073 0.3971444079 -9.382245736e-22)
(100.005509 0.3657436652 9.210004381e-23)
(100.0325965 0.6976689716 1.667744081e-21)
(100.0058799 0.3308975581 4.27675898e-22)
(100.0059224 0.2946163775 0)
(100.0335537 0.5532327259 0)
(100.0057234 0.2587405322 0)
(100.0055099 0.2244778848 7.491209046e-22)
(100.0293637 0.4172461152 1.562480625e-21)
(100.0056336 0.1930878375 -3.798745439e-21)
(100.005482 0.162708749 -1.405070975e-21)
(100.0247827 0.2975590603 3.086279466e-21)
(100.004736 0.1362222847 3.086049163e-21)
(100.0035441 0.1138648632 -8.768892844e-22)
(100.0149806 0.2060388849 -5.588211623e-23)
(100.0009067 0.09786182515 1.703539983e-21)
(100.0095663 0.09596616286 -7.647592304e-21)
(100.0541867 0.2346855479 5.405230317e-22)
(100.0191371 0.2098379859 -2.729578529e-21)
(100.0031289 0.09775713195 -1.597104624e-21)
(100.0068366 0.05606628255 -9.646045004e-22)
(100.0373149 0.1449051884 1.528369563e-20)
(100.0057357 0.02638209399 -7.752144018e-21)
(100.0278905 0.07789580242 -1.629698013e-20)
(100.0248624 0.02468547284 1.476173924e-21)
(99.91301355 1.955228948 -3.903173165e-21)
(99.94699367 1.763247041 -7.995030527e-22)
(99.9020129 2.212938286 3.202862684e-22)
(99.93781948 2.003198157 -2.165880338e-21)
(100.0127822 2.023599689 4.186756836e-22)
(100.0326178 1.799005513 -4.005163137e-22)
(100.0244571 2.264807607 4.672636622e-21)
(100.0369324 2.03207681 -5.417561984e-22)
(100.1061232 1.911233966 -2.124636101e-22)
(100.0904071 1.668725857 -2.221001101e-22)
(100.1326645 2.104503819 -9.794817067e-23)
(100.1232733 1.86579007 1.78950355e-21)
(100.163821 1.65408454 2.203860615e-21)
(100.1216925 1.422744451 3.832099647e-21)
(100.1948938 1.794819423 3.841185955e-21)
(100.1699768 1.575608628 5.082570749e-22)
(100.1782672 1.327830087 -6.356332791e-21)
(100.1252447 1.129107431 -5.948782275e-21)
(100.2063792 1.422902767 -2.13987773e-21)
(100.1750578 1.240916859 -2.111489014e-21)
(100.1602521 1.011048453 -5.128148564e-21)
(100.1058947 0.8530599411 4.712349514e-22)
(100.1783602 1.070062191 -1.382972663e-21)
(100.1518698 0.9334681608 5.639607328e-21)
(100.099909 0.5889790617 -1.31675553e-20)
(100.159231 0.8017076122 -1.316653221e-20)
(100.2239346 0.8677881526 1.334322438e-20)
(100.1381287 0.6689732984 -2.699770269e-20)
(100.1172445 0.5544521779 1.173463167e-20)
(100.1627698 0.5921123312 -1.668728989e-20)
(100.0958625 0.4575518676 2.368459795e-20)
(100.0721189 0.4042763887 2.632711824e-20)
(100.0904296 0.2787330595 2.269808831e-20)
(100.2047102 0.4377778139 -2.160876742e-22)
(100.1559825 0.4895483315 4.747047781e-20)
(100.0918929 0.3883828729 2.585724163e-21)
(100.0657333 0.1633591481 -7.01282736e-22)
(100.1455748 0.2688564883 3.261233443e-20)
(100.0531954 0.07526658066 -7.581345198e-21)
(100.1109423 0.1446206332 -1.729199501e-20)
(100.0958573 0.04565170573 7.75061476e-21)
(99.77712911 3.649404791 1.110009183e-19)
(99.67513527 3.857374808 7.822054628e-21)
(99.71566693 4.175481344 2.334606646e-20)
(99.76618246 3.940329722 7.767605698e-21)
(100.0922555 3.748196144 3.260613784e-20)
(100.0665194 4.018731043 2.44977132e-20)
(100.1384805 4.2812037 -2.504718058e-20)
(100.162302 3.984367017 6.093233907e-20)
(100.3799633 3.449137296 1.056691794e-19)
(100.40572 3.739445463 -1.330640643e-20)
(100.5045904 3.918505827 -2.003147196e-19)
(100.4679742 3.614132371 -8.624856822e-20)
(100.5327893 2.898771194 2.703619263e-21)
(100.5949439 3.166761769 1.769021632e-21)
(100.6896235 3.271029042 1.775491813e-21)
(100.6176982 2.999240292 5.798385997e-21)
(100.5592893 2.271400714 -5.953601384e-21)
(100.6376623 2.494475398 -1.381394776e-20)
(100.7165036 2.545868 -4.832720097e-21)
(100.6290738 2.326383603 5.433347363e-21)
(100.5718307 1.851109267 -1.721700561e-20)
(100.4937879 1.677499748 -1.162103925e-20)
(100.6312985 1.869426697 -1.163671069e-20)
(100.5493929 1.703889802 6.259519042e-21)
(100.3955015 1.128057799 -5.208240142e-20)
(100.5274409 1.376501459 -2.732218748e-20)
(100.616147 1.364220363 -7.896110288e-20)
(100.4600682 1.141625351 -3.697945942e-20)
(100.2918565 0.764519289 -6.011196299e-20)
(100.3953904 0.9393234724 2.376346019e-20)
(100.4536988 0.9152488546 -2.852815662e-20)
(100.3345057 0.7670109389 -2.495541277e-20)
(100.2517653 0.423694262 1.035282137e-20)
(100.4319774 0.5807753531 -2.578508336e-20)
(100.4036952 0.7003513629 -1.694206464e-22)
(100.3011572 0.631412141 -1.479691313e-20)
(100.1848965 0.2469859587 1.527243942e-20)
(100.3118268 0.3534019768 2.721158145e-20)
(100.1486962 0.1133736292 -1.947690381e-21)
(100.2369985 0.1889849753 -3.936642968e-21)
(100.2027785 0.05923462344 0)
(99.53063461 5.967587043 -6.660173555e-19)
(99.33645143 6.214522701 3.350513013e-19)
(99.46694217 6.655395947 1.309220006e-19)
(99.58500016 6.346544562 -3.058603319e-19)
(100.3998035 6.050010524 3.044072546e-19)
(100.3456438 6.402720122 1.415493007e-19)
(100.5462862 6.710834359 1.02017809e-19)
(100.5763903 6.308247671 1.503918571e-20)
(101.0647935 5.401694428 4.028059162e-20)
(101.1189374 5.771907768 2.925339678e-19)
(101.3338937 5.922069156 3.681736837e-19)
(101.2428071 5.532113518 3.538885181e-19)
(101.3366036 4.394350387 1.786997569e-19)
(101.4537715 4.722001282 7.206364415e-20)
(101.6250568 4.763523102 7.242408229e-20)
(101.4783979 4.437744912 -8.392448418e-21)
(101.319609 3.326983004 4.399128631e-20)
(101.4544138 3.590587132 0)
(101.5739373 3.567242187 8.552067069e-20)
(101.4208287 3.317792219 2.076543736e-19)
(101.2775473 2.585147082 0)
(101.150802 2.395272013 4.636311953e-20)
(101.3560397 2.546198489 0)
(101.218525 2.36691689 0)
(100.883832 1.567332275 2.902423709e-20)
(101.1048208 1.83587395 1.872712475e-20)
(101.1945553 1.727814911 -1.684996432e-20)
(100.9560748 1.504548919 3.639720465e-20)
(100.6489738 1.038981823 -3.336021189e-20)
(100.8186353 1.223107874 -1.48938983e-20)
(100.8721842 1.131396266 -1.505765631e-20)
(100.694954 0.9851997069 -7.243687276e-21)
(100.4778671 0.5066508388 -9.190954549e-21)
(100.716358 0.6364584386 -1.951815034e-20)
(100.7431239 0.8263431331 -2.563303889e-21)
(100.6097797 0.7916849648 5.047577612e-21)
(100.3513209 0.2924901032 7.841616969e-21)
(100.5137401 0.3823803326 1.193495721e-20)
(100.2805664 0.1330991711 -1.988600724e-21)
(100.3873246 0.2011245567 -3.515816256e-21)
(100.3283018 0.06236686143 -5.06566667e-22)
(99.27193755 9.121185149 3.373544672e-19)
(98.8665591 9.458967415 -1.227372696e-19)
(99.17472212 10.11756804 2.590956819e-19)
(99.44448729 9.667484942 2.098030712e-19)
(101.2597992 8.990852423 -1.775143214e-19)
(101.1680588 9.527503187 -2.450441344e-19)
(101.6203959 9.877709565 -3.064578846e-19)
(101.6467128 9.254948668 -9.133577753e-20)
(102.4879661 7.551526847 -6.268481033e-19)
(102.6280508 8.055045863 -3.330356699e-19)
(103.0176367 8.102627134 -3.794296364e-19)
(102.8066543 7.592750058 7.326552029e-21)
(102.7714133 5.784297704 8.781759086e-20)
(103.0032866 6.173078677 5.087888832e-20)
(103.2677477 6.085421681 -8.571695568e-19)
(102.9843351 5.718179491 -1.750685031e-19)
(102.5211637 4.19947884 5.204826341e-20)
(102.7556209 4.480759515 1.107137166e-19)
(102.8980342 4.362300599 -2.519802052e-19)
(102.6430012 4.105773715 0)
(102.268006 3.096397587 -1.478877357e-20)
(102.0713656 2.897209653 -3.858058025e-21)
(102.3455046 2.978413755 1.850169607e-20)
(102.1393282 2.80405951 2.267913227e-20)
(101.5416399 1.835646456 -9.44867518e-20)
(101.8574391 2.09312068 -5.991708791e-20)
(101.9180463 1.880509996 -3.365477786e-20)
(101.597194 1.692156199 -1.734658741e-20)
(101.1175783 1.185882135 1.162572343e-20)
(101.3579189 1.355046044 3.504098278e-20)
(101.3804734 1.197661107 -3.934751406e-21)
(101.1469949 1.074990538 -3.838622013e-21)
(100.7379611 0.5123107677 2.033687394e-21)
(101.0247238 0.5828742736 0)
(101.1341812 0.8358066101 -1.127882527e-22)
(100.9866959 0.8434878026 -1.048553563e-20)
(100.537339 0.2884371694 4.488602981e-22)
(100.724857 0.3429062983 2.033504049e-21)
(100.4243096 0.1290393421 -2.039927044e-21)
(100.537671 0.1741566 -2.042015513e-21)
(100.4500104 0.05303909489 -2.054292916e-21)
(98.5259006 14.01427528 1.800859936e-19)
(97.6915245 14.521795 -1.016424332e-20)
(98.15372526 15.78197451 -1.997259808e-19)
(99.12378922 14.97467686 -3.811211322e-20)
(103.3277034 13.06989697 2.278944116e-19)
(103.1957992 14.05941514 -8.651575939e-21)
(104.2019171 14.36298274 -7.378414452e-20)
(104.135048 13.23493565 6.844639136e-20)
(105.2250859 9.694661036 3.549044674e-19)
(105.5814736 10.40543859 2.129661453e-19)
(106.2163711 10.17362163 2.892676992e-19)
(105.7227425 9.503135816 2.026556996e-19)
(105.077185 6.772975741 0)
(105.5083058 7.186617241 0)
(105.7932206 6.897957875 -1.719198867e-19)
(105.313023 6.538317389 3.054422041e-19)
(104.2100732 4.644180988 -5.503631678e-19)
(104.5812209 4.900073224 9.781427044e-21)
(104.7001979 4.650945387 3.246286671e-19)
(104.3170991 4.439244683 0)
(103.5397725 3.250591802 3.78316646e-20)
(103.2511286 3.077407428 -6.892440788e-20)
(103.5807128 3.05059612 -2.490278797e-19)
(103.2952192 2.907185983 -1.35823426e-19)
(102.3119986 1.852855957 2.741904363e-20)
(102.7221382 2.053352979 -2.664592226e-22)
(102.7098836 1.744074352 1.677562274e-20)
(102.317079 1.629285465 1.249724169e-20)
(101.6469607 1.160268112 -1.642668734e-20)
(101.953346 1.282310131 -8.391179393e-21)
(101.9146736 1.06871473 -8.392805065e-21)
(101.6334028 0.997653637 1.283637729e-20)
(100.9958096 0.4199351581 0)
(101.3163278 0.4115818013 1.360313511e-21)
(101.5185208 0.689340831 -1.131252668e-20)
(101.3810792 0.7689480905 2.801807373e-20)
(100.7117212 0.2266152509 -5.15115298e-22)
(100.9071291 0.2265576322 -1.607246735e-21)
(100.5527202 0.09795333029 -2.066580629e-21)
(100.6589942 0.1049994963 -2.343473303e-21)
(100.5423912 0.030518836 2.624806158e-21)
(93.52469746 24.27627659 2.46665049e-19)
(94.90798867 23.86882739 -2.354207795e-19)
(94.03508526 26.09486483 -2.227700677e-20)
(95.72029111 25.24956054 1.448749836e-19)
(108.7405987 20.71833535 -7.354305004e-19)
(108.8357147 18.93334287 -2.188550305e-19)
(110.475677 18.40924306 4.043093663e-20)
(109.6491994 21.45621049 1.268405641e-18)
(111.66838 20.10670332 2.672678795e-20)
(111.3074764 20.93987448 2.681031197e-20)
(110.8870106 11.98301324 -1.246980749e-20)
(109.9948287 11.11413754 -4.9465693e-19)
(111.5412381 11.12695145 -2.050868663e-20)
(110.5084345 10.45868702 -4.43424511e-19)
(108.2460052 6.800714478 8.841671695e-20)
(108.9623901 7.140433868 7.53931334e-20)
(109.14031 6.560257045 8.857267087e-20)
(108.4065782 6.334355168 1.857223473e-19)
(106.2772506 4.333267898 3.533235674e-19)
(106.7985151 4.487070556 0)
(106.8084567 4.099203109 8.090651943e-19)
(106.2997477 4.008152949 -1.43931238e-18)
(104.9474682 2.834901071 1.422908859e-19)
(104.5716933 2.748516896 8.180235723e-20)
(104.9012481 2.568652242 6.575899058e-19)
(104.5436724 2.506574102 1.31969689e-19)
(103.0971059 1.547891538 4.436049977e-21)
(103.5997268 1.636486983 -1.961643776e-20)
(103.4542803 1.261477128 -2.599599419e-21)
(103.0130423 1.257103207 -4.650645337e-21)
(102.1651195 0.917282762 4.624224602e-21)
(102.5154357 0.9597871671 -2.297509896e-23)
(102.3959696 0.7103122949 -7.464677075e-21)
(102.0859759 0.7148626727 9.367316989e-21)
(101.2058816 0.2251280079 -1.810634135e-22)
(101.519537 0.125948541 -3.034220235e-22)
(101.8478318 0.3826826472 8.4118838e-22)
(101.7349135 0.4987973716 6.812438336e-21)
(100.840522 0.1049074796 -3.444968284e-21)
(101.0204041 0.03593205431 -2.478132766e-22)
(100.6380332 0.03853847769 2.56377558e-21)
(100.7215369 -0.003631862811 -2.328294407e-21)
(100.578727 -0.004438667727 4.437515255e-22)
(126.1300995 23.56373598 -8.920423558e-19)
(124.1959571 22.52535545 8.476555729e-19)
(126.7446126 21.51010288 8.464482847e-19)
(124.8796118 20.90123388 8.451270465e-19)
(118.3864361 9.900089086 -1.450322333e-18)
(116.6893219 9.503668143 6.082026445e-19)
(118.2990365 8.309652159 6.086311364e-19)
(116.723067 8.272683854 -6.381948371e-19)
(111.7550728 5.079461851 -8.004654964e-19)
(112.722771 5.114772795 -1.718667634e-20)
(112.5338547 4.329446794 -5.466050027e-19)
(111.6396059 4.428291644 -5.407097237e-19)
(108.3002868 3.004630396 8.442568597e-19)
(108.9246225 2.967131516 0)
(108.7331389 2.510349603 -9.318372111e-19)
(108.1636792 2.610206017 1.738288601e-18)
(106.2148307 1.755487012 -4.182479973e-19)
(105.7884284 1.791283779 -4.00553012e-19)
(106.0469481 1.457133864 3.112413015e-19)
(105.6579993 1.515968832 6.994547958e-19)
(103.7594039 0.8903989672 -5.071901723e-21)
(104.3111718 0.8295174156 -5.081230867e-21)
(103.9951744 0.4465216465 8.125629772e-21)
(103.5544845 0.5789304356 1.201588663e-21)
(102.5775978 0.4522965476 -2.023575664e-21)
(102.9368688 0.3918879376 1.415554468e-20)
(102.7141572 0.1506091463 5.213366328e-21)
(102.4203477 0.2468738849 1.03277448e-20)
(101.3194173 -0.05847506606 -3.550327024e-22)
(101.5956162 -0.2527143818 -1.090904323e-21)
(102.0372199 -0.06378926591 -1.108868363e-21)
(101.9842539 0.1086314739 -1.268203596e-21)
(100.889972 -0.07031457927 1.106861144e-21)
(101.0314557 -0.2126652699 1.359807167e-21)
(100.6530838 -0.04509455687 -4.400195122e-21)
(100.69769 -0.1429438136 1.695395407e-21)
(100.5361716 -0.04934958817 -2.18035421e-21)
(139.3113385 5.964697501 -2.395363645e-18)
(137.6032119 6.97745469 -3.655004965e-18)
(137.9613285 4.588138359 -3.651607046e-18)
(136.5384701 5.603191204 -3.658499308e-18)
(123.3973789 2.421723038 9.083806047e-19)
(121.6911232 3.138234648 -1.489306991e-18)
(122.1872476 1.124836008 -7.429178225e-19)
(120.8419886 1.94481348 6.337259878e-19)
(114.2126517 1.424284415 6.08543121e-19)
(115.151392 0.9959704169 -6.482946869e-19)
(114.4962662 0.3185426755 -4.710000182e-19)
(113.7110873 0.7987970916 1.110186352e-18)
(109.6638978 0.6949291792 4.389293649e-19)
(110.2558329 0.4101079399 6.860218548e-19)
(109.8292489 0.01563863362 1.18839789e-18)
(109.3204919 0.3231678262 8.503478225e-19)
(106.9799864 0.1121100504 8.263298715e-19)
(106.5752628 0.2906189778 4.153512014e-19)
(106.6754808 -0.1423456122 5.923758468e-20)
(106.3229117 0.04174016573 4.19611468e-19)
(104.1454199 -0.05470922962 8.081454339e-21)
(104.6737104 -0.2818180608 8.097971666e-20)
(104.1950492 -0.5957865267 -2.539174475e-21)
(103.8097899 -0.3333621532 -1.29525224e-21)
(102.7842937 -0.187517389 5.855017037e-22)
(103.1153661 -0.3585633051 7.202811031e-21)
(102.793232 -0.5511891784 5.905590225e-21)
(102.5449559 -0.3682376838 1.297744767e-21)
(101.2991233 -0.4015135017 5.736602756e-22)
(101.505928 -0.6838722619 1.094159153e-23)
(102.0310166 -0.599645142 3.825843172e-22)
(102.0537288 -0.3932178029 -5.867012161e-21)
(100.8328468 -0.2807309967 2.090976063e-21)
(100.9173896 -0.4939702698 -2.319241535e-21)
(100.575591 -0.1450802085 4.155724527e-21)
(100.5696442 -0.2996314233 2.349148265e-21)
(100.3992845 -0.1000310151 2.064775088e-21)
(135.4824907 -10.9695944 -1.125694926e-18)
(134.9716783 -9.627050162 -1.472340939e-20)
(134.0142913 -11.19015139 1.061120606e-18)
(133.589526 -9.94227779 -1.181583338e-18)
(122.7351781 -6.098595812 -1.660360406e-18)
(121.7851586 -4.782255606 7.264318304e-19)
(121.1244155 -6.532130016 1.484224064e-18)
(120.439665 -5.358271726 -7.247800865e-19)
(114.4616422 -3.064298539 -5.79496284e-19)
(115.0822998 -3.806358148 -7.200777038e-19)
(114.1739352 -4.130479503 0)
(113.6789582 -3.427923309 0)
(109.8571691 -2.062836246 -7.271408919e-19)
(110.2526712 -2.523983232 -1.009475985e-18)
(109.7048906 -2.738645597 -6.980910653e-19)
(109.3213226 -2.292842798 1.779038414e-20)
(106.9826925 -1.762409395 -5.446048635e-20)
(106.6687039 -1.478114537 -7.750800352e-19)
(106.5867706 -1.916140793 -6.791182624e-21)
(106.3195891 -1.644573714 -7.810695513e-19)
(104.1396202 -1.153252513 2.154318559e-20)
(104.5724177 -1.518767307 1.222688394e-19)
(103.978779 -1.703496732 6.114277658e-20)
(103.6955671 -1.345513485 1.622582254e-21)
(102.7247552 -0.9263780028 0)
(102.9903973 -1.189349211 -2.07984184e-20)
(102.59257 -1.298911999 0)
(102.4159579 -1.048535004 0)
(101.123676 -0.7690516415 -2.880518242e-21)
(101.2383236 -1.117635433 -7.571744005e-21)
(101.8079728 -1.160555918 2.300914192e-21)
(101.910005 -0.9451725835 -3.747314843e-22)
(100.6536352 -0.5058534067 -2.083340258e-21)
(100.66911 -0.777175964 -1.637852358e-21)
(100.3927188 -0.2519279214 2.586717746e-22)
(100.3301091 -0.4578777782 -1.411662466e-21)
(100.1616283 -0.1514191285 2.447345649e-22)
(125.8319231 -19.78062345 4.10136495e-20)
(125.9703691 -18.74583604 8.758069081e-19)
(124.7526032 -19.41346465 -8.017145761e-19)
(124.8749081 -18.4787049 -8.306061777e-19)
(118.3126 -12.05193389 5.810799839e-19)
(118.102058 -10.76233788 6.227875365e-19)
(116.8712537 -11.80404881 6.70736345e-20)
(116.7735746 -10.71135734 1.262122323e-18)
(112.6623708 -6.883946661 1.062242664e-18)
(112.9070669 -7.686939089 8.224462281e-19)
(111.9919285 -7.631370206 -1.406287975e-21)
(111.8247347 -6.920326706 7.450893676e-19)
(108.852531 -4.58058466 -1.296874166e-18)
(109.0724768 -5.109174114 -1.075828894e-18)
(108.454796 -5.11079075 -2.122388557e-19)
(108.2889337 -4.635238368 -1.895422047e-18)
(106.2511627 -3.51240114 -5.026360501e-19)
(106.0587979 -3.165028902 -4.522147792e-19)
(105.8080062 -3.537892776 -4.531562903e-20)
(105.6540008 -3.223531126 3.308799344e-19)
(103.7183267 -2.226617669 3.965350259e-20)
(104.0071024 -2.675767619 -4.282242225e-20)
(103.3686119 -2.704858171 -1.965328991e-20)
(103.2100242 -2.30144656 1.969373417e-20)
(102.388807 -1.657078052 -1.401986841e-20)
(102.5635025 -1.980478073 6.124600923e-21)
(102.1269948 -1.990775167 -6.181576868e-22)
(102.0338654 -1.700509377 -1.454792721e-20)
(100.7919349 -1.118203931 -6.384458942e-21)
(100.8067128 -1.509884084 -1.117211511e-21)
(101.3801059 -1.675803863 -1.903463765e-21)
(101.5517647 -1.47597511 -5.525779501e-21)
(100.3510895 -0.721798529 -1.185612854e-21)
(100.2952863 -1.032864774 5.283247122e-22)
(100.1028843 -0.3548351623 -1.432526992e-21)
(99.98401692 -0.6025523201 4.46363359e-22)
(99.82692865 -0.1986398738 2.447383197e-22)
(116.0504025 -22.62877273 1.60289791e-18)
(116.4566052 -21.93803054 5.120724766e-19)
(115.3180611 -22.01771915 -3.442616024e-21)
(115.7182671 -21.41058715 1.050572487e-18)
(112.6727476 -14.82267568 -5.14144207e-19)
(112.9278572 -13.84966547 -2.016726029e-18)
(111.6074431 -14.19762083 -1.876567354e-18)
(111.8739587 -13.38783087 -1.211845856e-18)
(109.6950413 -9.291501862 -8.704686178e-19)
(109.6422189 -9.974779617 3.516851876e-19)
(108.8795934 -9.655564608 -5.956144697e-19)
(108.9539027 -9.070488094 2.4472674e-19)
(107.0396626 -6.387048771 1.915376605e-19)
(107.0763144 -6.870191032 -7.552700366e-19)
(106.5208546 -6.702298112 -5.165807026e-19)
(106.5083867 -6.277372371 -1.453976044e-18)
(104.9525934 -4.828116526 -3.704186615e-19)
(104.8802722 -4.487249893 -8.485224515e-20)
(104.5266568 -4.742638422 -4.51274035e-19)
(104.4746504 -4.437398434 -4.51219483e-19)
(102.9451722 -3.123732248 -1.852588538e-20)
(103.0797817 -3.589457416 -8.827866855e-21)
(102.4244996 -3.076030441 1.842622179e-20)
(101.8106459 -2.290382237 -3.569522942e-21)
(101.8855523 -2.635335501 5.074242483e-22)
(101.4411607 -2.250394225 -1.911413314e-20)
(100.3250742 -1.414099247 4.149427897e-21)
(101.0142515 -1.932425272 -9.096288e-24)
(99.93814358 -0.9081692221 1.924422084e-21)
(99.71540072 -0.4444101245 1.92420384e-21)
(140.5336679 7.514485916 3.835643992e-18)
(138.839173 8.527887567 2.58576237e-18)
(139.9234172 10.24776921 2.259289894e-18)
(141.9778245 8.637453106 6.50066709e-20)
(141.798325 9.695726269 6.591688225e-18)
(125.2651913 25.40234909 -2.52309016e-18)
(127.4713747 26.7470569 -3.00903356e-18)
(128.3089861 24.27463102 -1.738220737e-18)
(136.9739255 -10.61903101 -3.07241544e-19)
(136.4592082 -9.282194043 8.032064366e-19)
(138.0129122 -8.804108603 6.221397972e-19)
(138.329651 -10.7392648 -2.068813815e-19)
(138.7129737 -10.0358532 1.275312829e-18)
(140.8339965 4.838813888 -2.658066073e-18)
(142.3219347 5.752919911 8.409257335e-19)
(142.251531 6.794992268 8.410255311e-19)
(126.9550625 -20.11328571 9.030361422e-19)
(127.0971935 -19.06322424 1.734913315e-18)
(128.271277 -19.34114242 -1.342909553e-18)
(127.9034915 -20.61724901 2.50932573e-20)
(128.3351636 -20.31564703 2.509551265e-20)
(135.8625444 -12.28225554 -8.056924304e-19)
(137.1776408 -12.48080994 -6.401409818e-20)
(137.5894725 -11.82508267 2.390895526e-20)
(116.8180853 -23.20038231 1.090493298e-18)
(117.2224837 -22.52470897 0)
(118.0373905 -23.06620037 3.086737144e-18)
(117.6019401 -23.82795068 6.09189775e-19)
(126.7339462 -21.17084131 1.588885304e-20)
(125.6487368 -20.78182909 1.116273161e-19)
(116.3605253 -23.91423902 -1.097739172e-18)
(115.6138035 -23.27041903 -4.141748185e-19)
(93.08239074 22.70816673 0)
(91.76796156 24.67381557 1.81595935e-19)
(123.2500376 24.36501165 -7.839671025e-19)
(122.143234 25.95629481 -2.034432361e-18)
(123.9938108 27.62114418 6.993466575e-20)
(107.337784 21.11403645 -9.252581252e-19)
(107.5072321 22.0345336 -3.612392521e-19)
(108.6098137 21.9999534 5.650998757e-19)
(150.3898898 27.37255685 3.563841708e-20)
(149.3145389 27.85948056 -3.366703869e-18)
(149.8060292 28.69036554 -1.204274921e-18)
(150.8994307 28.46507637 -2.365743154e-18)
(130.2413004 42.3289565 2.081194306e-18)
(128.6524955 44.39343956 2.07990523e-18)
(130.9242412 46.3943598 4.2862639e-18)
(132.5785551 43.71032953 -2.282061533e-18)
(136.0396549 7.87098582 -1.061347816e-18)
(136.9650522 9.381117511 2.281708264e-18)
(124.3912646 3.828560707 1.694325665e-18)
(122.6707706 4.603699312 -7.202444238e-19)
(123.4028857 6.12762441 0)
(125.5807943 5.616121299 -1.614385662e-18)
(118.260061 11.37078036 -2.090878995e-18)
(120.2741279 11.97073158 -2.889946387e-18)
(120.253179 10.00156451 -6.636254606e-21)
(150.9169405 -5.931772866 -1.106772689e-18)
(150.6243822 -5.360281076 -3.232552181e-18)
(151.2116906 -5.172324796 3.229330868e-18)
(151.5819348 -5.719875364 2.331017298e-18)
(154.2138259 8.232810086 -4.772037138e-18)
(153.6546445 7.750604796 -2.380366741e-18)
(154.7148619 7.653317266 -4.886655927e-18)
(154.101469 7.205092554 5.289965812e-20)
(134.4339211 -8.365257979 2.189557728e-18)
(135.8252353 -7.937814279 -3.635676825e-21)
(124.3066411 -5.485685365 -8.509290734e-19)
(123.3668886 -4.132345231 1.563038002e-18)
(124.8683337 -3.302587407 8.049768276e-19)
(126.1646411 -4.763226899 5.555875823e-19)
(126.4202968 2.979949647 1.404503397e-18)
(124.9521084 1.426863036 -9.234956587e-19)
(136.7460435 -22.46539305 8.442079564e-19)
(136.9746649 -22.0531597 -3.774331531e-19)
(137.2478649 -22.190142 2.575869063e-18)
(137.1066413 -22.57194374 -8.778781472e-19)
(144.4249548 -16.06801381 -1.942523183e-18)
(143.9557796 -16.10277251 -2.022572704e-18)
(144.4741043 -16.60587251 -4.079320313e-18)
(143.9703891 -16.5904803 -8.026781261e-18)
(126.044496 -17.76633757 6.542337074e-20)
(127.1826388 -17.98772349 2.577113273e-18)
(119.8197488 -12.17082047 -9.912799874e-21)
(119.6148543 -10.87091845 3.560620234e-20)
(121.1761173 -10.83450811 6.323147364e-19)
(121.5130421 -12.34599287 6.900668062e-19)
(125.3380881 -7.024356754 -1.320185268e-19)
(123.4674881 -7.482183456 -2.483216787e-18)
(123.5386291 -27.85899078 -7.33376522e-19)
(123.8677576 -27.38989987 -7.228367968e-19)
(124.309571 -27.69944828 -1.460525339e-18)
(123.9495487 -28.19369673 -1.451525275e-18)
(129.8885536 -25.9881239 -2.168362347e-19)
(129.3747804 -25.73613884 -2.169131233e-19)
(129.0697478 -26.30239617 -1.050496951e-18)
(129.4233176 -26.65728966 -1.612286201e-19)
(129.7002605 -26.51666863 7.849385917e-19)
(105.3434986 -32.59630618 6.874861355e-19)
(107.2014719 -32.90458063 1.110011151e-20)
(108.0885866 -32.91714745 3.49595926e-19)
(107.0090258 -32.87306542 9.717908354e-21)
(111.9204941 -28.03509149 1.118399135e-18)
(112.4170303 -27.76021298 8.635509597e-19)
(112.6029737 -28.17253251 3.557943671e-19)
(112.1882045 -28.46784431 1.528616933e-18)
(117.584157 -28.51915347 -5.188344707e-19)
(117.2229155 -28.14889695 4.98382708e-19)
(117.1918086 -28.90446232 -1.594006936e-18)
(116.8606542 -28.52225237 -4.84991736e-19)
(153.7290283 8.778700272 -4.723464055e-18)
(154.2888869 9.284788505 -3.520988039e-20)
(154.8294822 8.709753411 -4.817391344e-18)
(150.2105157 26.18346734 2.875815964e-18)
(151.5714409 27.01418866 3.581024628e-18)
(151.1736171 26.0390292 1.119511403e-18)
(135.8631142 18.28535457 2.404930533e-18)
(135.4610031 16.15285408 -2.012849284e-18)
(137.6164411 15.70334831 -8.248660841e-19)
(138.7266882 17.50032153 4.649826166e-18)
(138.0940305 18.47751018 6.942410656e-20)
(148.3622055 26.33192524 -7.358287551e-19)
(150.609554 25.26735696 -1.879577763e-18)
(149.5512042 23.89278483 -3.73572263e-19)
(147.7597397 24.46806202 -3.7322404e-19)
(153.1637455 8.297373076 -2.347053105e-18)
(152.635565 8.82847355 -2.331281082e-18)
(153.215272 9.321657931 -1.488058453e-20)
(144.3977137 -15.57842929 2.091526973e-18)
(144.87011 -15.52833834 2.097485485e-18)
(144.9332367 -16.06749987 4.298186037e-18)
(150.3189557 -6.106747663 -1.083891206e-18)
(151.2607392 -6.48195612 -1.135695611e-18)
(150.5980299 -6.679269006 -2.996621572e-20)
(139.5323529 -2.513802024 -1.144671835e-18)
(138.822965 -3.058797438 -1.790230217e-18)
(140.1700464 -3.212391392 1.143658657e-18)
(139.3985403 -3.609633561 -3.659055039e-20)
(150.0359462 -5.5532076 -3.186850153e-18)
(149.726546 -6.28674873 -3.011562517e-20)
(149.5330878 -5.756392689 -1.032040775e-18)
(143.9319052 -15.60606288 1.993399315e-18)
(143.9368874 -15.11737464 2.975844631e-18)
(144.3651723 -15.07767736 1.005319004e-18)
(153.1081826 7.29300996 0)
(152.6002417 7.798177488 2.359074418e-18)
(149.8235362 -5.022868328 -4.219772261e-18)
(150.3267373 -4.806159793 5.671553827e-21)
(139.1046167 -1.699608403 -9.56642369e-19)
(139.8486706 -1.408892965 -1.332119832e-21)
(140.4217457 -2.041759361 3.437274989e-20)
(130.1868159 -25.4112518 0)
(130.713515 -25.65011453 -2.292064494e-19)
(130.2533968 -26.3454459 -9.45259384e-19)
(130.5326592 -26.19493327 -9.722023235e-19)
(136.3531616 -22.37630374 1.988676933e-18)
(136.6249471 -22.84158892 -8.621936415e-19)
(136.3033157 -22.73646587 2.5266638e-18)
(132.1787588 -16.3972488 4.527021706e-20)
(130.8564003 -16.32448842 0)
(130.885109 -17.49434374 -2.492924121e-19)
(131.9460156 -17.92819551 1.224969132e-18)
(132.4128393 -17.47753349 2.49865857e-18)
(136.4674457 -21.70376589 7.572395139e-19)
(136.0390441 -22.60398274 3.086437872e-18)
(135.5624218 -22.25673441 1.264518982e-18)
(135.7837451 -21.54771393 1.288887701e-18)
(129.6755787 -25.15617906 0)
(129.9233227 -24.56830933 0)
(130.4825568 -24.82112695 -8.812664255e-19)
(143.4966491 -16.11947807 2.032110402e-18)
(143.5084725 -15.63752474 1.382604923e-20)
(137.2866261 -21.81085104 3.075683405e-18)
(136.677496 -20.97669749 -1.558162758e-18)
(137.475 -21.28903145 7.759063528e-19)
(137.294166 -20.93193663 -1.508530097e-18)
(132.0782656 -15.18309429 1.027587262e-18)
(133.4505237 -15.1678217 -2.355221654e-18)
(133.3018065 -16.78729653 -1.221989744e-18)
(133.7650603 -16.28543959 -1.245136809e-18)
(117.9414667 -28.13531688 -1.040547234e-18)
(118.3122424 -28.49822168 -2.184586002e-18)
(117.9247555 -28.8952173 1.745356694e-20)
(123.1064259 -27.54540167 -6.938246487e-19)
(123.1751884 -28.34328859 5.053653957e-19)
(122.7728307 -28.00053167 -6.890387229e-19)
(103.9370966 -32.39216818 6.848608926e-19)
(105.7056256 -32.68828162 1.759589618e-20)
(101.7402647 -31.95268649 1.07252917e-18)
(103.1154357 -32.20190359 1.607573872e-20)
(100.9591677 -31.61623889 2.94048392e-19)
(111.498142 -28.29513989 -7.445989309e-19)
(108.0403183 -32.89161315 -6.34114492e-19)
(156.7834949 51.35984471 4.659241994e-17)
(155.6237094 52.98808046 1.491213019e-18)
(155.3531404 54.42119613 8.925425656e-20)
(156.6968071 55.15801032 2.05971011e-19)
(130.1469503 65.62090782 7.341182319e-19)
(127.6528547 67.69955525 -3.617225116e-19)
(130.1591741 71.0650888 -3.873730169e-18)
(132.8916 67.99060979 -9.159432137e-19)
(121.280104 -29.16071388 -2.897722633e-18)
(123.1267931 -29.36665535 -1.287532381e-18)
(121.285966 -29.01730573 2.025836887e-18)
(113.5682681 -27.3596198 8.189560181e-18)
(116.8325634 -21.29767159 5.679828648e-19)
(117.6028111 -21.79839742 -1.829071152e-18)
(113.8353162 -15.37455463 2.553595722e-18)
(114.0967789 -14.40601921 1.021378718e-18)
(115.3588234 -14.87506705 1.047319491e-18)
(115.0963495 -16.05436827 1.574764206e-18)
(119.9723991 -13.61901962 -6.94919313e-19)
(118.3745296 -13.2851629 -6.941240989e-19)
(102.0708514 -31.08278856 -9.340591759e-19)
(104.7158254 -31.69451385 2.043457324e-18)
(101.8576491 -30.92337419 -2.46574284e-18)
(93.98622123 -28.68929416 1.203917594e-18)
(114.0344829 -31.50002144 -9.260810887e-19)
(114.5373016 -31.12420648 -2.220936508e-20)
(114.7929853 -31.56219921 -1.297088618e-19)
(114.1077359 -31.8688731 -5.212341526e-19)
(114.3504443 -31.93321601 0)
(117.1510276 -31.46634763 4.442867142e-19)
(116.9582658 -31.2664922 1.574616794e-18)
(116.8916391 -31.62851173 4.4890625e-19)
(116.8008355 -31.46697158 9.019217311e-19)
(128.2196313 40.61517599 0)
(131.5744679 40.00171606 -3.161890681e-18)
(129.5600682 38.83670066 8.869750147e-19)
(148.7789037 28.76406486 1.272182374e-18)
(146.4472613 26.7734337 -3.615874442e-19)
(146.907282 28.75175765 -3.616653443e-19)