/*--------------------------------*- C++ -*----------------------------------*\
| =========                 |                                                 |
| \\      /  F ield         | OpenFOAM: The Open Source CFD Toolbox           |
|  \\    /   O peration     | Version:  v2012                                 |
|   \\  /    A nd           | Website:  www.openfoam.com                      |
|    \\/     M anipulation  |                                                 |
\*---------------------------------------------------------------------------*/
FoamFile
{
    version     2.0;
    format      ascii;
    class       volScalarField;
    location    "2.02";
    object      omega;
}
// * * * * * * * * * * * * * * * * * * * * * * * * * * * * * * * * * * * * * //

dimensions      [0 0 -1 0 0 0 0];


internalField   nonuniform List<scalar> 
3019
(
826.4131882
151.0510522
72.23521311
46.21173053
36.83271764
33.32469603
31.72482996
31.1090544
30.72844001
30.57946084
30.49827773
30.45554159
512.8244151
141.1107562
70.47543378
45.67274216
36.75715892
33.36426187
31.72063094
31.07175425
30.66176165
30.50035864
30.41002708
30.36247078
367.0783794
130.5729942
66.98139444
44.6564996
36.4982044
33.33598501
31.69018239
31.02555249
30.59541263
30.42365857
30.32502969
30.2738016
304.243202
116.1671223
62.18750645
43.24106782
36.15104256
33.24413371
31.63386813
30.969024
30.52449097
30.34511398
30.24032891
30.18536474
222.3777921
98.01679323
56.74663046
41.76586901
35.84158801
33.12268574
31.55879879
30.9026599
30.44988349
30.26529587
30.15483841
30.09724783
166.4986691
82.47887489
52.42738374
40.75450964
35.5758296
32.98542239
31.46830297
30.8238018
30.36678334
30.178518
30.06501645
30.00507941
137.0123951
73.92099504
50.36705293
40.19235781
35.3174756
32.83979299
31.36783611
30.73563834
30.27798838
30.08786578
29.97220275
29.91097141
126.3177958
71.14958986
49.2337554
39.70216595
35.0777208
32.6929152
31.26077866
30.63959295
30.18131857
29.989759
29.87277611
29.81085666
118.7233295
68.84188714
48.29589724
39.27980062
34.85991816
32.54825043
31.14920823
30.53702072
30.08034299
29.88882534
29.77130504
29.70912562
112.0902938
66.82431118
47.54291147
38.92697175
34.66453408
32.40721825
31.03440441
30.42920407
29.97242715
29.78056489
29.6628687
29.60088346
106.5985884
65.18990571
46.9849848
38.65350649
34.4916995
32.27059798
30.91756701
30.31733798
29.86286799
29.67205805
29.55468611
29.49311251
102.5667824
64.05362394
46.62459365
38.45382636
34.33915273
32.13906625
30.79984744
30.20259621
29.74729739
29.55629635
29.43920875
29.37826706
99.94713443
63.35654448
46.40466311
38.30459302
34.20359043
32.01313731
30.68219743
30.08595289
29.63318384
29.44365271
29.3272169
29.26694532
98.14139123
62.88787407
46.2536342
38.18668861
34.08239106
31.89295214
30.56530544
29.96830168
29.51288144
29.32266293
29.206545
29.1470146
96.68109371
62.51268674
46.1360924
38.09035721
33.97352063
31.77837086
30.44966755
29.85025796
29.39766166
29.20911044
29.09368481
29.03485248
95.40466582
62.18856178
46.04032992
38.01033404
33.87520387
31.66908121
30.33560011
29.73244025
29.2742149
29.08409464
28.96882785
28.9106991
94.26074882
61.90256215
45.96160975
37.9431732
33.78589543
31.56472
30.22331492
29.61510587
29.16086115
28.97261521
28.85794252
28.80043546
93.22063306
61.64652109
45.89646043
37.88635718
33.70430588
31.46491706
30.11294478
29.49873203
29.03431385
28.84341114
28.72868194
28.67177377
92.25834278
61.41263611
45.84158947
37.83790535
33.6293913
31.369342
30.00459079
29.38330102
28.92603224
28.73722002
28.62289367
28.56646745
91.3532117
61.19380399
45.7939285
37.79613793
33.56027212
31.2776861
29.89833855
29.26935597
28.79456382
28.60209793
28.48753197
28.43156733
90.48865082
60.98395898
45.75080066
37.75960415
33.49617485
31.18965353
29.79431665
29.15665497
28.69592542
28.50537274
28.39091289
28.33526225
89.64975542
60.77843121
45.71004926
37.72707073
33.43642287
31.10500909
29.69282457
29.04623432
28.55479765
28.36058438
28.2457758
28.19045202
88.82790772
60.57408705
45.66998339
37.69746284
33.38038521
31.02346651
29.59462901
28.93815029
28.47347449
28.27912091
28.16406337
28.10886416
88.02563424
60.37061606
45.62956867
37.66995062
33.32764612
30.94493927
29.5017477
28.83580542
28.29245076
28.09387852
27.97804056
27.92302662
1011.953412
862.6158097
183.5178101
632.5632657
991.1383857
535.3944704
179.0596948
181.5421844
479.4193857
623.2380941
352.4170283
724.9247041
744.5194323
655.0051838
312.2513103
340.364861
1430.710529
875.5954163
1578.942171
1191.588579
619.1910283
832.9418184
384.0006205
164.2696733
175.4788255
539.9888237
595.3853565
1117.918584
286.3104453
303.0950718
637.3979656
578.4715783
6234.964857
2403.151277
1376.80032
671.2005285
4876.738479
3602.948073
1200.586912
5019.599973
6111.547142
3561.638943
4789.792724
6484.842677
2376.607619
3216.72355
1653.838964
2131.733648
5832.116521
6445.857643
2128.315439
6179.232543
5401.47973
166.2012415
85.395306
1142.846492
3283.30832
2421.427113
4638.486271
3030.200951
1546.492284
883.5457742
6261.708114
6592.245162
6731.02194
5613.669966
6427.580374
1261.123745
1507.848821
5973.16096
5485.777215
6044.169811
5604.619499
6360.983788
6312.699521
6177.476427
3976.11092
5489.717576
5041.113182
6129.077609
6333.403527
4377.617567
4663.464078
5093.378569
6388.14889
5270.089628
3912.187823
4220.161239
6004.353899
4660.773427
4902.384734
3821.305238
4253.665701
6179.841158
72.70855399
50.4670199
46.20864608
38.35723977
36.79805649
33.88549198
735.0400814
483.1593665
521.9272369
144.0247075
82.59367498
84.80418805
70.77652922
49.92480776
50.43276928
45.86507945
38.31284775
38.38497203
36.79825204
33.9460666
33.91203393
466.2632968
255.2779864
279.9705497
133.3581182
78.70347776
82.00328465
67.92426499
48.69428047
49.64648882
44.94191659
37.96674795
38.24099244
36.57927517
33.9222879
33.9452668
497.3524139
574.5064077
323.6103951
147.7589885
160.8034663
120.2950048
72.75900101
77.4426505
63.51676183
46.891555
48.30559436
43.62152135
37.48679442
37.86147759
36.24106785
33.8195208
33.89905707
338.3084618
460.5163217
241.3749101
124.2896477
142.385321
102.5758238
65.33335855
70.9641886
58.06641122
44.78750745
46.37304728
42.11333916
36.98155816
37.35252749
35.908439
33.67977566
33.78608386
219.8846743
301.6140189
177.5905941
101.33582
118.1112542
85.79976896
58.72893124
63.50827579
53.32451657
43.07561349
44.29353546
40.93514957
36.627509
36.8794754
35.642253
33.52440479
33.64220078
167.5103224
201.7579393
142.2457097
86.66335231
96.70391952
75.35730813
54.87541978
57.45801157
50.68550045
42.22662674
42.78658346
40.32590382
36.31293078
36.5469839
35.38059234
33.36021935
33.4835576
150.3529013
160.9655299
128.394801
81.47891885
84.5444589
71.77570462
53.3728183
54.4544551
49.49810084
41.60383782
42.06223732
39.81819417
36.02394459
36.23796815
35.1356367
33.19699859
33.31901967
140.7497494
147.8446708
120.5283131
78.26971687
80.63488402
69.39230899
52.16262468
53.04672397
48.51292052
41.0697437
41.4622028
39.37916177
35.76487567
35.95633702
34.9122862
33.03899932
33.15691874
132.1216792
138.5042976
113.6544514
75.45084888
77.52877663
67.29799029
51.17855006
51.89642481
47.71357442
40.62333255
40.94958465
39.00807287
35.53619238
35.70480791
34.71124027
32.88741962
33.00049465
124.6602649
130.1262958
107.8455504
73.09293783
74.81159819
65.55496212
50.41548378
50.96607297
47.10522386
40.2772566
40.52681423
38.71427503
35.33933423
35.48396871
34.53287589
32.74264561
32.85058059
118.8901346
123.0388622
103.4280284
71.35657475
72.59500177
64.28972496
49.89640652
50.26249995
46.69833175
40.03365893
40.20741633
38.4980366
35.17223096
35.29498513
34.37557554
32.60504991
32.70756733
115.0355788
117.7573941
100.4992425
70.25483046
71.02829701
63.50125924
49.58366264
49.80249356
46.45093465
39.86455408
39.98585211
38.33841235
35.02889607
35.13441387
34.23604616
32.47491693
32.57181855
112.4694919
114.3093419
98.54897654
69.53786918
70.05116003
62.99318655
49.38124991
49.52613735
46.2874651
39.73851778
39.82992061
38.21387332
34.9041835
34.99613623
34.11146144
32.35221821
32.44356056
110.4610521
111.9332151
97.02578212
68.9806634
69.38879775
62.60090466
49.22731732
49.33953995
46.16318124
39.63878885
39.71153165
38.11274956
34.79468839
34.87550186
33.99968392
32.2366251
32.32267816
108.7179058
110.0057432
95.71011014
68.50068434
68.85489127
62.26569407
49.10092347
49.19355281
46.062536
39.55772523
39.61699483
38.02902341
34.69784932
34.76939054
33.89888551
32.12761916
32.20878403
107.1530702
108.3121891
94.53602128
68.0748276
68.3897633
61.97096007
48.99529182
49.07279078
45.97989219
39.49106618
39.53986007
37.95890976
34.61155992
34.67536903
33.80745467
32.02461964
32.10133194
105.7273195
106.7853161
93.47243051
67.69183588
67.97558983
61.70817079
48.90625585
48.97168746
45.91166411
39.4358836
39.47631547
37.8997087
34.53412344
34.59143907
33.72404127
31.92707478
31.99974826
104.4060337
105.3890105
92.4928645
67.3415689
67.60172475
61.4694483
48.82980419
48.88617256
45.85452249
39.38986529
39.42362558
37.84933265
34.46419209
34.51599439
33.64754528
31.83448901
31.90348664
103.1611295
104.0890535
91.57494622
67.01461608
67.25812163
61.24746736
48.76212183
48.81225834
45.80532905
39.35102965
39.37957967
37.80603951
34.40065938
34.4477601
33.57705418
31.74642455
31.81206965
101.9729929
102.8605354
90.701372
66.70287303
66.93568438
61.03585994
48.69983208
48.74621857
45.76129015
39.3176444
39.34225913
37.76832046
34.34256562
34.38567219
33.51176759
31.66247595
31.72507028
100.8207188
101.6845034
89.85594584
66.39966181
66.62667604
60.82954871
48.64020856
48.68482563
45.72011796
39.288246
39.3099987
37.73489337
34.28908113
34.32880498
33.45099044
31.58230876
31.6420972
99.68650424
100.5414556
89.02542772
66.09980482
66.3249481
60.62466596
48.58112385
48.62552782
45.67998255
39.261582
39.28139582
37.70464192
34.23944803
34.27635296
33.39407642
31.50557013
31.56281925
98.55907844
99.42064
88.19943443
65.79828588
66.02649295
60.41749707
48.52065364
48.56640205
45.63923813
39.23649053
39.25525157
37.67651164
34.19289934
34.22757845
33.34035147
31.43184699
31.48688456
97.36090283
98.3271065
87.31895097
65.47146722
65.7313007
60.19122236
48.45291641
48.5064653
45.59357147
39.21028782
39.23064995
37.64778528
34.14597144
34.18195838
33.28602674
31.35639247
31.41416364
1057.701794
1267.631735
1204.837334
732.5927469
759.8232312
910.6638461
190.2949758
315.2057921
287.0921879
662.5992003
1201.364511
2168.594114
1593.839591
973.2180541
419.6458203
435.7316686
585.2000865
174.0050987
253.4373887
243.0734164
278.5713108
259.5988088
175.3510285
557.4260652
628.5307102
365.0004963
503.7825763
466.129215
521.6519579
348.899538
1875.102315
1325.255157
854.3593748
821.5324865
703.1431867
770.7998378
943.8954051
895.4693922
433.6190331
473.5239733
710.0748321
319.7300137
389.9268073
379.154945
448.5768496
406.3980694
330.4150619
2167.651359
1922.312875
1343.768385
3390.256587
3620.51098
5049.039343
912.5372596
1470.439733
1242.145974
1716.117019
2780.291085
2464.932249
865.2250908
911.757719
1429.297208
641.1599702
757.571492
728.9393177
791.3431295
667.7792095
1062.563132
985.910232
800.0071433
2873.431455
3097.860198
1217.73344
1214.54969
268.8950868
278.5005153
445.1482277
167.7067307
208.9200696
203.6425646
236.6433704
214.8301559
171.4809324
555.7527812
651.2957258
630.1465027
700.4863325
675.8620124
576.8071538
964.2350732
792.7287212
827.8851688
289.7496173
348.6196278
342.4441623
366.436772
358.2925761
297.9329315
602.3623291
442.0852776
462.016216
600.2740928
846.0976839
810.3966789
2717.479631
4252.780357
3807.631652
1063.58474
1111.061772
956.6577694
988.2495379
1457.823852
690.4066625
789.2983445
770.9195534
4436.594045
3030.619251
3392.654567
2408.952601
2698.901823
3962.733546
1254.723342
1715.362579
1562.835018
2608.318774
3706.754779
3391.798429
4531.365455
4120.494817
2904.042048
1772.878675
2607.680551
2417.356997
3081.205341
2842.581034
1969.304361
3406.880107
3104.685702
1912.326908
123.5980248
124.7480876
168.0230761
85.80981047
102.0290794
101.3238974
1448.385682
1351.291065
1093.733605
3007.129935
1957.337291
2158.691717
1601.318367
1746.075046
2694.008398
1177.835913
1234.563202
1697.686359
927.337141
1023.182285
1018.397088
1080.179677
943.6123734
2440.964457
2617.13655
1331.332206
1841.749151
1703.523089
2201.013692
2016.501583
1433.544714
33.30518383
32.24000781
31.7160203
31.36415851
31.12971628
30.96351687
791.3314429
683.2491912
705.8373913
148.7797438
120.36639
121.5952842
71.88111488
62.71362562
62.90157715
46.05977612
42.85737852
42.93086112
36.84018297
35.62636633
35.61531
33.36382383
32.27959681
32.26576227
31.72441733
31.35141765
31.3587902
31.09574962
30.9143659
30.9405878
497.027573
392.2905826
405.420552
138.4593049
113.6955461
115.4942464
69.50312967
61.01649236
61.63607082
45.51387393
42.40054705
42.57533469
36.70393953
35.55925573
35.59152774
33.35039045
32.27023443
32.27766467
31.71067246
31.32136848
31.33759571
31.05424324
30.86167134
30.88951853
354.1322914
253.9077643
260.6429988
127.5034053
105.4110727
107.7902459
65.93344413
58.30050005
59.08650321
44.33696301
41.58272267
41.81442399
36.41761876
35.37036964
35.42428412
33.2709916
32.22269325
32.25055269
31.66718001
31.27476077
31.2990771
31.00260646
30.80355935
30.83377222
283.2601542
213.811244
225.6037943
111.7710943
93.53872494
96.80731253
60.816661
54.53473243
55.5434354
42.86134878
40.51875464
40.79301552
36.06289376
35.13858443
35.19603591
33.15503336
32.1415222
32.18485849
31.59902551
31.21388517
31.2440421
30.94150491
30.73854424
30.77209033
205.4041709
166.4417308
177.5957627
93.63526374
80.27497156
83.46428244
55.50095842
50.66560206
51.56618117
41.44860546
39.54372955
39.75862123
35.77540293
34.92471335
34.97884174
33.02149077
32.04505574
32.09522769
31.51507051
31.13773164
31.17683189
30.86725858
30.66464898
30.70285085
156.9863993
130.684829
138.1020401
79.62043005
70.0522772
72.15270547
51.68519432
47.95987083
48.4795168
40.6060721
38.97158099
39.09016188
35.50991912
34.7034432
34.75887043
32.87687572
31.93558688
31.99158545
31.41909512
31.05029135
31.09482852
30.78301899
30.58158615
30.62398092
132.9697378
112.3295201
115.1945124
73.10835729
65.34354433
65.96387025
50.06452823
46.8037208
47.04751673
40.06321509
38.5284174
38.63430905
35.25555293
34.48673885
34.53988151
32.72972594
31.81857001
31.87773993
31.31498482
30.95390222
31.00274441
30.69023104
30.49062741
30.5368639
124.3194233
106.0981048
107.5606103
70.54485811
63.25354364
63.73662831
48.98156948
45.92549105
46.13089652
39.59033513
38.13821745
38.23081555
35.02118415
34.2832336
34.33267648
32.58423188
31.69778133
31.75849119
31.20547735
30.85063883
30.90277391
30.59034119
30.39247057
30.44225241
116.9743188
100.661931
101.9623633
68.30835174
61.51385165
61.92301646
48.09020169
45.19500293
45.36393967
39.18468707
37.80010793
37.87975052
34.80893842
34.09532521
34.14082852
32.44217132
31.57525771
31.63665262
31.09214008
30.74215097
30.7967795
30.48465004
30.28833517
30.34099447
110.5964565
95.90664201
97.02038787
66.37424084
60.05176223
60.38918804
47.38436406
44.61611903
44.74575023
38.85091976
37.5171601
37.58229577
34.619254
33.92324396
33.96478609
32.30436116
31.45224438
31.51374551
30.97616833
30.62985155
30.68627219
30.3744043
30.17913069
30.23428136
105.4439592
92.07648189
92.93156669
64.85687103
58.92730831
59.17189458
46.87748546
44.20328031
44.29077647
38.59745999
37.29423234
37.3445747
34.45179828
33.76657922
33.80436605
32.17148071
31.32981721
31.39089299
30.85875409
30.51495454
30.5725667
30.26076933
30.06631586
30.12313623
101.7976419
89.39360976
89.95698228
63.84591368
58.19339147
58.3431114
46.55968917
43.94126489
43.99551917
38.41273424
37.12215178
37.16133293
34.3037903
33.62398256
33.65839641
32.04411082
31.20893202
31.2691334
30.74096604
30.39852174
30.45680639
30.14482352
29.95056293
30.00883795
99.44461718
87.67511445
88.04177949
63.22552507
57.74808406
57.84197599
46.36248957
43.77265968
43.80919308
38.27269274
36.98483757
37.01661081
34.17203471
33.4939907
33.52538115
31.92248369
31.09025128
31.14928849
30.62362192
30.28141328
30.3399593
30.02747848
29.83331404
29.89218674
97.75398056
86.44125547
86.72421961
62.78800799
57.43559208
57.50675315
46.22181575
43.65006145
43.67782794
38.16084448
36.87146007
36.89793318
34.05409483
33.37527961
33.40396926
31.80651971
30.97416229
31.03186668
30.50730671
30.16431722
30.22279308
29.90948769
29.71464867
29.77426927
96.34774605
85.41390076
85.65759791
62.4276304
57.18059349
57.24054184
46.11036843
43.55332145
43.57558816
38.06898893
36.77610802
36.79848651
33.9480215
33.26658189
33.29288694
31.69593825
30.86085807
30.91715777
30.39241899
30.04774568
30.10591576
29.7914434
29.59608303
29.65546944
95.1077074
84.50814861
84.72505891
62.11388716
56.96143524
57.01335513
46.01921855
43.4749942
43.49308257
37.99245947
36.69496412
36.71408321
33.85209229
33.16665921
33.19088086
31.59037519
30.75040352
30.8052773
30.27921608
29.93208332
29.98977044
29.67378655
29.4768768
29.53671641
93.9922118
83.69478122
83.89052984
61.83611849
56.7701646
56.81570614
45.94420689
43.41123624
43.42598028
37.92809438
36.62525069
36.64173194
33.7648235
33.07439081
33.09679633
31.48946369
30.6427946
30.69625455
30.16786055
29.81758508
29.87467635
29.55685507
29.35899217
29.41791289
92.973839
82.95406646
83.13347232
61.58632725
56.6005002
56.64122999
45.88192902
43.35902918
43.37115296
37.87353991
36.56486787
36.57918645
33.68499132
32.98881779
33.00963084
31.39286182
30.53797435
30.59006324
30.05844498
29.70444848
29.76087346
29.44086559
29.24052865
29.30002966
92.02746744
82.2675906
82.43501208
61.35684085
56.44634645
56.48374028
45.82913806
43.31562382
43.32579239
37.82690917
36.51215485
36.5246956
33.61160553
32.90914974
32.92855315
31.30025518
30.43588757
30.48665716
29.95102156
29.59277948
29.64853627
29.3260155
29.12458753
29.18245776
91.13379043
81.61996961
81.77902553
61.14077057
56.30219868
56.33756329
45.78284213
43.27851118
43.28732412
37.78657746
36.46569711
36.47679514
33.54381051
32.8346912
32.85285261
31.21133699
30.33645733
30.38602346
29.84555891
29.48263329
29.5378433
29.21232483
29.00733722
29.06654018
90.27621589
80.99812736
81.15208173
60.9323593
56.16345902
56.19784755
45.74049029
43.24553951
43.25349628
37.75115249
36.42428216
36.43422292
33.48086069
32.76483194
32.78189579
31.12587181
30.23947329
30.28819204
29.74190498
29.3738511
29.42895842
29.09976808
28.89405568
28.95100816
89.43958329
80.39117084
80.54316168
60.72718841
56.02662611
56.06086206
45.70004314
43.21495234
43.22246187
37.71944508
36.38686317
36.3958972
33.42209431
32.69902765
32.71512849
31.04357483
30.14440721
30.19327458
29.63957949
29.26602726
29.32227304
28.98781376
28.77712526
28.83825099
88.61281526
79.79074187
79.94569989
60.52174551
55.88892097
55.92401639
45.65982744
43.18527614
43.19272206
37.69039529
36.35249056
36.3608591
33.36687533
32.63674112
32.65202231
30.96409119
30.04977143
30.10190774
29.53725707
29.15777494
29.21857421
28.87519313
28.66494625
28.72652271
87.78246188
79.18523421
79.36101242
60.31052259
55.74617502
55.78667911
45.61778823
43.15476644
43.1632498
37.66271237
36.31994048
36.32837561
33.31413121
32.57694676
32.5922664
30.88240097
29.94877021
30.01654367
29.42721434
29.04081252
29.12007502
28.75279021
28.53356415
28.62190693
185.4619663
209.9266974
207.0905704
648.5626444
740.7947642
726.4627864
1130.418812
1111.796742
935.5858557
203.8130261
201.490412
179.2274836
414.274821
368.9535839
576.4961093
589.6220126
669.8347813
1004.186723
1047.429981
1252.165413
1772.995973
1887.310851
1101.16795
932.0903352
983.7388523
625.813186
552.2085274
564.2230972
1526.940611
1634.003598
63.19616986
63.2186512
72.83038202
50.42661713
55.98192444
55.99989321
42.91288114
42.90171033
46.17659023
38.33801232
40.3344541
40.35674221
35.57967403
35.56184341
36.78149764
33.8584606
34.60344608
34.62994451
641.9720356
660.6569985
760.7264142
495.6130069
571.5922141
557.0916102
608.677359
590.517117
508.1721753
117.5031134
118.3641465
145.5664274
83.55085323
98.51450886
97.64456524
100.3655728
99.58241165
84.17486902
61.96806442
62.40122302
71.46748874
50.1618266
55.45989007
55.20453097
55.8784853
55.69774862
50.23424051
42.71212587
42.78725187
46.016847
38.3289346
40.28200083
40.24159297
40.37318065
40.35438514
38.38195774
35.60806952
35.61450896
36.80754983
33.94367994
34.6803638
34.67422093
34.65644182
34.67888775
33.93109946
370.3604395
381.7038925
476.0994397
331.0518994
325.4197435
273.3607618
109.9481714
111.8893766
135.9664388
79.83800544
93.73652113
92.28376215
96.40948864
95.08340246
80.85786311
59.79294634
60.41338124
68.76434504
49.03521812
53.99641422
53.53657137
54.81754939
54.5421014
49.49704582
42.02199754
42.27023099
45.22329812
38.11471682
39.94416303
39.7467317
40.13910702
40.01601014
38.15517147
35.4866208
35.51637152
36.66073647
33.92990334
34.63044721
34.61488899
34.66953552
34.65252155
33.93869259
527.9533743
550.2361226
236.4658732
245.9693425
340.4638131
152.6270752
188.9895991
182.6971397
199.1332402
194.441274
156.9640869
99.9058205
102.7831087
124.0848177
74.45499071
86.78133323
84.57967755
90.65032562
88.80805608
76.02998633
56.52550756
57.4457847
64.77989476
47.39561915
51.7798563
51.1018334
53.00919043
52.42177347
47.86947086
41.06528885
41.33127223
43.98907554
37.61892405
39.25236903
39.06324097
39.59787433
39.43229522
37.74512403
35.25378019
35.31348892
36.33135158
33.84843458
34.50565662
34.46607484
34.57675521
34.5426739
33.8765183
378.4436637
419.8410618
189.3987829
201.587674
261.9166242
130.5054657
159.7179921
151.3866925
175.6067753
167.8742058
136.5911382
86.78742525
90.17361303
107.2035899
67.21164829
77.24231413
74.71616113
82.22748018
79.76532129
69.10270374
52.52438425
53.52117965
59.43310922
45.30797199
48.91003249
48.18608131
50.38981888
49.65017753
45.84340879
39.99784787
40.25508201
42.48302929
37.0947783
38.49238556
38.31968861
38.86979356
38.67787324
37.22095315
35.03201025
35.08488901
35.98218759
33.71616685
34.34226501
34.29817645
34.42618432
34.38503333
33.75267642
242.4011109
269.506969
146.6065725
156.0626748
190.4927825
106.4981423
127.5382499
120.6032137
143.1048447
135.1023283
112.1359691
74.56793296
77.29593646
89.5387897
60.17367841
67.67872909
65.67175226
72.24498659
69.8824595
61.77827519
49.10708063
49.8416431
54.35283434
43.42813138
46.26300243
45.74940773
47.49398949
46.848857
43.83722179
39.21331453
39.36066506
41.16931188
36.70877616
37.90456906
37.80346556
38.15888064
38.02072125
36.79100554
34.8144172
34.86980342
35.70890082
33.56440522
34.16287236
34.11610603
34.254102
34.20897137
33.60396946
176.3300844
187.4611779
119.2050431
124.3538515
148.9515283
89.3185637
104.3817336
100.7364669
114.3637643
108.9764465
92.71654981
66.93895165
68.32645422
77.22540238
55.51900327
61.15048134
60.16505509
63.90328242
62.37899387
56.38910778
47.30160306
47.57610332
51.08562123
42.39675261
44.73206207
44.51999847
45.31556087
44.97421273
42.57434084
38.74352781
38.85597998
40.4638297
36.38950739
37.51376491
37.42137079
37.70500525
37.60836838
36.46758912
34.59379233
34.64836018
35.4447874
33.40135747
33.97430418
33.92721361
34.06891798
34.02159497
33.44264897
152.9512166
155.8837807
109.0715419
110.6379021
130.5656628
82.35616424
94.75805115
93.61511279
97.84946362
95.96604642
83.28366284
64.2437537
64.77816647
72.42652094
53.7156194
58.61978313
58.19426583
59.54608208
59.06854462
54.07590217
46.34560076
46.56980034
49.7749745
41.75096174
43.9321406
43.75096586
44.31650776
44.1206166
41.90374754
38.32668523
38.42587242
39.93852281
36.09343189
37.15868013
37.07612156
37.33133441
37.24376075
36.1647912
34.38308561
34.43445716
35.19492613
33.23738086
33.78837706
33.74315014
33.880468
33.8341556
33.27811766
143.0512554
145.4147333
103.3015138
104.6794794
122.3924932
79.0332356
90.38727209
89.36975967
92.50774802
91.43278468
79.82107168
62.34869477
62.79166114
69.95977457
52.44254326
57.04249212
56.69438936
57.79070106
57.40741338
52.73702041
45.54205018
45.72923119
48.74142682
41.19524231
43.2501154
43.09701206
43.57700471
43.41010551
41.3260638
37.96268435
38.04884456
39.48268632
35.82681974
36.8435928
36.77104201
36.99610697
36.91860963
35.89063863
34.18730805
34.23478121
34.96604285
33.07791794
33.61131862
33.56866444
33.69856945
33.65460331
33.11722763
134.1872246
136.3169465
98.18726283
99.40249472
115.2842646
76.11811996
86.48742521
85.58877445
88.38007152
87.41876706
76.81147732
60.74615347
61.12136139
67.79334451
51.40452064
55.74221567
55.45459757
56.3620574
56.04475713
51.64384739
44.88564133
45.03548564
47.89608752
40.72614797
42.68045343
42.55661113
42.95091942
42.81198378
40.83498955
37.65124112
37.72389127
39.09405094
35.59042963
36.56852059
36.50627079
36.70098434
36.63344976
35.64664497
34.00730658
34.0508227
34.75937789
32.92469754
33.444729
33.40473005
33.52670089
33.48536981
32.96238208
126.387425
128.2126342
93.85772045
94.85084377
109.1800972
73.63009083
83.12693389
82.39626118
84.72673375
83.90498269
74.20397653
59.44159734
59.73535557
65.95046184
50.58404551
54.68846639
54.46821303
55.18259323
54.92693113
50.76777731
44.38858021
44.49700664
47.23839148
40.35370161
42.2345034
42.14422315
42.44083139
42.33339523
40.43689316
37.39838555
37.4558701
38.78003029
35.38557284
36.3362428
36.28512785
36.4467877
36.3901109
35.43376662
33.84305424
33.88267562
34.57537922
32.77818587
33.28873889
33.25137818
33.36541354
33.32673855
32.81415879
120.1485554
121.5330213
90.58940854
91.29529189
104.3865725
71.72628414
80.52339615
80.01147886
81.71699083
81.0920814
72.13912556
58.51392566
58.70813174
64.55693449
50.0035915
53.9244611
53.78186393
54.26723698
54.08601606
50.12534399
44.05656543
44.125478
46.78223232
40.08613134
41.92285453
41.86373417
42.06246687
41.98886401
40.14386386
37.20289123
37.24709454
38.54576947
35.21153312
36.14707085
36.10560056
36.23666446
36.19070166
35.25241715
33.6936166
33.72967037
34.41310509
32.63875992
33.14317924
33.10837873
33.214678
33.1786057
32.67293082
115.8425066
116.7449889
88.44466171
88.89226499
101.1120877
70.4822262
78.79038858
78.47035306
79.55490945
79.14971932
70.73833131
57.94574139
58.06191887
63.66309364
49.64785788
53.4514924
53.36663381
53.6568678
53.5474788
49.72022077
43.84899375
43.89274232
46.50223088
39.90181186
41.71957755
41.68003933
41.81069425
41.76289691
39.94207935
37.04998367
37.08510573
38.37436851
35.06282102
35.99239263
35.95791182
36.06610341
36.02841351
35.09796713
33.55749567
33.59035775
34.26943392
32.50674931
33.00770666
32.97536186
33.07420993
33.04064817
32.5390453
113.0384951
113.6478437
87.02167587
87.33710579
98.98121349
69.69628084
77.68080739
77.45631961
78.18288212
77.92149581
69.86625442
57.58190387
57.66194692
63.10515799
49.42584579
53.15903592
53.10053748
53.29077596
53.22205845
49.47385838
43.70734275
43.7388525
46.32361002
39.7671347
41.57865528
41.54932799
41.64367621
41.61000237
39.7975257
36.92559724
36.95453807
38.24250191
34.93382659
35.86262928
35.83331821
35.92485076
35.89311437
34.9644588
33.4333032
33.46330752
34.14133552
32.38221522
32.88184516
32.85180408
32.94361358
32.91243972
32.41265628
110.9326769
111.4220717
85.90941557
86.17023863
97.38276254
69.1111942
76.85013954
76.66450623
77.24459869
77.04307923
69.24689876
57.3028625
57.3677828
62.6925274
49.26281092
52.9445049
52.89751501
53.04566436
52.99378143
49.30013233
43.59907022
43.62386064
46.19171396
39.6617613
41.47125551
41.44806042
41.52176672
41.49578364
39.68597241
36.82180051
36.84610654
38.1362225
34.8207866
35.75177955
35.72655868
35.80511126
35.77794642
34.84771052
33.31975836
33.34721747
34.02653392
32.26488639
32.76492365
32.736999
32.82231564
32.79335552
32.29356532
109.1351048
109.5637833
84.94810358
85.17758412
96.02418038
68.61510765
76.1432501
75.97992932
76.48518877
76.31153955
68.73304586
57.06712696
57.12284131
62.34532559
49.13040726
52.76801799
52.72832071
52.8525289
52.80938474
49.1612468
43.51213311
43.53219634
46.08586354
39.57650979
41.38542846
41.36666124
41.42607217
41.40521036
39.5962436
36.73395453
36.7546156
38.04855951
34.72099634
35.65605191
35.63414253
35.70222398
35.67873214
34.74483178
33.21559904
33.24082699
33.92315028
32.1542866
32.65613667
32.63011177
32.70956948
32.68261623
32.18133642
107.5301248
107.9160482
84.09115972
84.29695504
94.81814237
68.17691439
75.5163883
75.3701069
75.82114028
75.6666535
68.28179506
56.86270493
56.91125785
62.0413572
49.01999936
52.61810528
52.58415257
52.69013933
52.65340714
49.04580198
43.44149197
43.4578182
45.99908063
39.50655876
41.31576558
41.30047896
41.34882098
41.33186396
39.52280662
36.65882403
36.67655872
37.97532822
34.63224424
35.57261283
35.55341062
35.61295099
35.59244919
34.65350466
33.11963312
33.14291677
33.82951494
32.04983869
32.55462516
32.53029114
32.60452438
32.57936424
32.07540503
106.0728037
106.4249591
83.31653056
83.5035571
93.72943648
67.78416207
74.95244237
74.81973772
75.22747693
75.08827337
67.87864789
56.68302227
56.72597696
61.77132526
48.92719193
52.48931593
52.45986895
52.55140873
52.51980137
48.94897167
43.38386767
43.39721839
45.92756578
39.4487415
41.2589246
41.24641389
41.28593046
41.27208346
39.46220491
36.59400595
36.6093538
37.91361351
34.55273325
35.49926596
35.48230514
35.53479977
35.5167561
34.57183112
33.03082152
33.05240504
33.74420982
31.95097938
32.45959157
32.43676382
32.50634766
32.48278191
31.9752004
104.7286309
105.0557203
82.60506757
82.77804342
92.73126181
67.42664324
74.43762225
74.31508615
74.68982207
74.5624518
67.51326246
56.5218447
56.56074474
61.52730562
48.84796416
52.37667634
52.35050102
52.43131767
52.40358797
48.86672308
43.33639151
43.34746139
45.86795661
39.40062788
41.21225292
41.20191152
41.23448237
41.22309728
39.41186836
36.53764734
36.55103261
37.86120479
34.48103634
35.43430882
35.41922272
35.46583638
35.44983924
34.49829681
32.94829204
32.96837759
33.66607549
31.857195
32.37033695
32.34885904
32.4142844
32.39214118
31.88019139
103.4668134
103.775331
81.93975611
82.10263153
91.79974769
67.09467888
73.95887966
73.84352605
74.19455197
74.07580831
67.1757557
56.37333183
56.40957818
61.30178075
48.77842809
52.27538262
52.25134611
52.32492525
52.29988585
48.79511278
43.29642654
43.30585265