/*--------------------------------*- C++ -*----------------------------------*\
| =========                 |                                                 |
| \\      /  F ield         | OpenFOAM: The Open Source CFD Toolbox           |
|  \\    /   O peration     | Version:  v2012                                 |
|   \\  /    A nd           | Website:  www.openfoam.com                      |
|    \\/     M anipulation  |                                                 |
\*---------------------------------------------------------------------------*/
FoamFile
{
    version     2.0;
    format      ascii;
    class       volScalarField;
    location    "0.4";
    object      omega;
}
// * * * * * * * * * * * * * * * * * * * * * * * * * * * * * * * * * * * * * //

dimensions      [0 0 -1 0 0 0 0];


internalField   nonuniform List<scalar> 
3259
(
31.98552697
31.98616029
31.98344816
31.97899743
31.97465706
31.97089438
31.96917597
31.96775126
31.93418747
31.93305868
31.9320022
31.93100708
31.94189832
31.94613697
31.93504273
31.91393582
31.89249788
31.87583999
31.84903057
31.84157423
31.80484915
31.80134995
31.79816995
31.79525297
31.92919472
31.93681333
31.91264677
31.86636574
31.81838847
31.77979238
31.73679212
31.72036745
31.67863377
31.67264482
31.66714881
31.66225782
32.02598197
32.03257199
31.96860849
31.87778464
31.78491831
31.7092694
31.63963198
31.60813753
31.55726018
31.54709697
31.53887953
31.53203058
32.47542561
32.44858856
32.24180377
32.01698443
31.82441425
31.68122798
31.56645694
31.50811775
31.44082791
31.42502818
31.41322427
31.40377964
34.30974908
33.99115824
33.0834458
32.43319871
32.000839
31.71381617
31.52171542
31.42347408
31.33158088
31.3054948
31.2890436
31.27694251
44.40600523
41.31648069
35.43856967
33.38002409
32.39124502
31.84085342
31.51047356
31.35691453
31.2288265
31.18932298
31.16648913
31.15118267
65.99036947
40.99507128
35.12954711
33.05842821
32.08069825
31.53273653
31.30609917
31.1334604
31.07600618
31.04503715
31.02607046
121.050307
49.37526304
37.60886163
33.97497597
32.41860987
31.59407743
31.26906635
31.04570652
30.96737279
30.9263576
30.90306841
152.0021441
56.89628214
40.2206658
35.00252003
32.81314748
31.68070032
31.24326799
30.96534326
30.86382091
30.81156167
30.78351655
153.5421743
61.47456115
42.40719081
35.95877201
33.20484164
31.77499004
31.22628268
30.89257869
30.76802795
30.70351825
30.67005545
143.3883059
63.41512045
43.9071406
36.71651326
33.53970767
31.85999122
31.2135151
30.82652245
30.67863397
30.60230092
30.56335892
141.1466055
73.69038179
181.3359762
146.5066244
181.2734253
183.1436338
165.5779687
179.4288043
163.265802
43.58706958
67.89453281
41.21258987
384.1002437
141.597012
114.7971752
53.2851014
44.17394286
1264.96561
884.6778244
150.1187624
64.45135466
56.39833142
762.0329897
1018.110346
154.380285
70.87584784
66.55381204
451.5660746
585.3258121
1697.319289
299.5570892
347.1216298
859.6471521
403.2339868
111.236493
330.3383008
613.2878552
1028.003269
1267.844056
166.319539
901.9481238
805.2478179
633.8145814
897.9473695
163.9348166
609.6749784
746.8484982
184.3391372
579.0891375
465.2913496
798.0574807
597.9150064
184.7333211
357.0346741
436.3278273
2517.253985
2924.383857
294.5916687
1498.817195
2101.758484
368.4018646
4794.907971
145.0355606
73.09429177
71.77393297
5209.85286
651.9939045
721.5249976
119.9411451
293.7956947
103.0572483
737.1107087
931.0280905
171.58509
361.668563
309.6964512
451.0874816
371.2418105
173.8396451
66.58211489
125.064275
64.37528017
67.96813986
2799.180395
271.8401547
1996.263869
286.348154
1477.901409
245.6219606
1028.571537
1014.375762
866.6144712
884.446769
1730.223877
3964.516301
502.2418107
2061.856739
1152.723348
4463.603058
2439.772557
521.7664432
550.1731179
622.3262317
4608.347777
607.477479
577.2300679
1077.820055
1087.090123
844.2929466
302.9583312
294.6269096
306.0305995
304.5775862
839.4581319
755.7942575
268.2181761
246.0686308
290.5575481
274.8318092
770.9072632
643.2754176
4636.619724
654.5232464
1091.166677
810.5486354
397.7322994
983.6393156
1607.311735
5446.16417
528.583489
2489.822646
1637.923649
2219.80166
882.7937861
2589.384906
3749.198279
123.3285604
301.6769285
111.9696385
128.525864
1188.23404
2761.543743
2898.583045
949.1864726
808.1599862
2206.453894
1634.240371
3644.702305
3628.959928
976.9978313
745.2963938
2485.709123
2746.09665
434.9052921
199.1514146
168.4805175
237.157052
209.6424805
453.6487503
1051.650284
3561.08026
3645.987356
1213.05203
1549.134414
1431.617785
707.58068
527.35515
279.9076718
289.1453936
722.6595992
301.8567345
305.6567151
292.3449206
299.662621
710.8572456
385.9183581
782.5481206
635.6386407
4490.901419
1250.318652
1489.392574
1124.250073
4745.539808
4821.483124
1127.615168
1460.813014
5420.358505
1030.367454
420.0936316
1029.551783
3674.867722
2456.056989
827.0991245
4412.019358
5173.866414
2859.915649
856.1361034
539.7422461
1374.978611
939.3890285
489.4732544
315.2039337
840.2023485
3058.146919
3877.406864
1131.368932
964.8876828
2932.287803
3064.274573
2406.277897
2288.626289
825.9360562
4018.143719
3927.815757
2876.618505
3919.05005
3885.473039
953.1970725
3767.583956
2473.100686
2572.670619
2917.469717
1561.388304
744.8641913
801.9118267
3278.85605
929.2085211
1046.885079
825.1450995
895.3939478
3062.647992
3230.097761
887.0279586
1041.493053
1797.926622
1881.516371
707.0290239
2629.246368
2647.424651
3329.622733
1829.450109
1525.485211
2560.344744
1811.158596
491.5700719
1296.483397
1717.871646
3414.671374
3506.591814
1058.718134
1167.803638
3511.640888
3386.391388
1356.15184
1576.995488
1088.4623
1264.253069
4879.942254
2468.537787
2686.985764
1680.846243
2367.30261
5244.556674
1162.023767
5087.736273
4345.842233
5067.375978
1241.472885
5396.909835
61.54275848
41.62398449
36.28585049
5280.440652
5255.520038
73.23788336
5501.673443
302.2241715
255.0025242
157.5250944
259.3125104
190.227201
372.7134885
1308.746933
256.0493118
280.9451793
51.70366134
60.04960454
110.1159104
336.1420564
622.5872246
901.1569704
765.459474
847.9632962
2747.81821
607.6615406
536.6269743
324.9076762
977.5358858
1246.154361
465.1983026
4156.728754
3439.078647
5401.751745
4781.94136
746.4903257
2221.956334
4622.672313
3167.355503
3595.542631
5138.200061
1346.66742
1092.150597
659.252183
157.5271114
126.0864003
212.9259014
800.2611744
2086.326172
1485.25868
86.73905979
107.5551342
247.0700075
2298.741599
1512.432644
1173.535977
2970.706932
2357.1736
1891.87204
3527.818209
3208.895034
5131.541153
4840.022767
3412.01114
678.3288663
728.1386662
1440.236623
4622.522641
2358.049418
2638.876179
3971.009596
2259.350417
2675.394729
4495.152813
4441.687993
2765.036391
2930.745928
4605.720229
4485.790249
4678.871478
694.7078351
1382.515744
1160.089708
5395.75289
5185.728578
5098.580836
3882.701035
3584.20156
1992.765881
1072.424319
1042.493446
1232.881459
3022.059141
5182.648
4380.330464
5234.313532
5002.366257
3473.444876
171.9341073
232.7127144
694.52065
2990.748331
2914.671265
3078.226942
3051.924008
2827.489084
1860.340754
1840.983305
1881.987657
1864.364031
2837.296345
3691.36537
2102.300255
2115.876907
2022.902831
2080.156377
3755.38034
2597.037506
1685.479235
1524.790918
1826.374976
1776.497308
2667.529804
3552.510891
2144.987347
2157.568387
2129.646499
2136.132816
3596.580526
3166.77113
3102.796171
3237.007585
3110.124988
5569.313147
5762.98736
5343.174721
3941.392028
5626.787699
1910.249356
2705.425894
1882.39361
2494.493032
1875.202228
740.7804591
2646.29154
1871.423513
4797.583853
5003.782355
5363.950321
3920.345251
4556.330645
862.8519905
5023.414679
5309.575839
4938.472348
2164.328029
1565.850548
2201.278958
1172.79694
1688.22324
2245.307327
2462.972386
2271.962678
3189.467837
2030.889014
1922.232091
2753.025827
2007.001642
2993.015905
2978.339353
1904.225532
1885.964673
1931.474817
1904.571991
2997.05948
2368.728494
1433.861263
1455.845642
3969.844209
3957.449045
3370.840501
4395.531078
4231.426747
4056.888107
3941.148765
4126.494206
3104.333423
1699.977986
1891.935686
1491.646004
1562.809734
2649.719544
4879.043444
4080.266302
2158.531976
5228.715606
4991.50523
4973.200536
3088.480552
4859.149515
4700.022398
1797.849374
2019.07229
3876.210348
1800.488608
1249.666017
1228.351202
1374.444271
1329.854084
1901.914636
2776.008246
2609.829771
1711.377216
2500.440389
2617.970673
2352.873212
2474.784324
1679.839871
2505.839404
2468.620209
3135.52081
2350.270067
3469.545084
2186.993227
2198.073767
2163.677782
2173.734484
3465.861379
3383.762234
2404.988869
2762.997881
2222.288899
2274.752178
3389.879119
4466.741698
4322.872004
4691.714782
3140.299502
3716.684442
2538.436103
4234.118551
4292.254301
4221.399554
4231.803565
2596.209813
1868.410817
3573.343045
3014.442326
4161.506733
4304.650992
2151.188964
4887.363825
3081.844599
3306.901183
2268.526346
2746.547831
4979.631332
4982.954607
4817.908452
3619.421215
4196.96272
5332.880119
5181.058678
31.92019293
31.93768085
31.92646776
31.9342039
31.94659817
31.93365696
31.91944865
31.93965835
31.91209844
31.88442956
31.9202262
31.87479594
31.84305864
31.89815204
31.83400018
31.80834262
31.87981196
31.96750117
31.92242079
31.97805973
31.99465918
31.93779964
31.98601234
31.95924447
31.92087527
31.94301447
31.8868399
31.87725121
31.86763062
31.80688453
31.82942643
31.78779135
31.73794858
31.78750701
32.25128607
32.01268104
32.27571263
32.30916089
32.03044845
32.26594788
32.18944306
31.98611957
32.14395193
32.0125381
31.90116306
31.96773785
31.84180193
31.80826779
31.80427288
31.71060065
31.72587052
33.42090321
32.44331985
33.51319975
33.52022701
32.44290502
33.30515208
32.94113327
32.2891614
32.78713033
32.4121349
32.07238868
32.30091705
32.01815859
31.8685417
31.93983759
31.75148739
31.71297228
41.5924829
34.21276517
41.58857196
39.45331632
34.06437248
37.65856308
35.23918201
33.26626678
34.62336087
33.38669432
32.57362992
33.09356919
32.43479089
32.09288052
32.26995283
31.89546266
31.7754835
58.56161315
56.6997958
44.19639731
46.62404538
41.45645818
39.10388601
39.23296169
35.3723699
33.75224425
34.64050491
33.18672161
32.58556149
32.86267147
32.17345729
31.95071551
86.73336154
62.91993855
53.09103489
47.20851865
38.46452083
36.02555665
36.9985715
34.29661123
33.43155699
33.7339952
32.58468199
32.26411448
136.9302183
86.44880337
77.94670616
55.24719661
41.89331166
39.2858491
39.65561156
35.58301562
34.59812813
34.75068045
33.0801221
32.70224413
155.0809904
99.68990043
96.11898097
60.5803554
44.74546773
42.63503801
41.95743314
36.80868898
35.89034413
35.73780611
33.58488513
33.20766072
150.5192005
102.3690993
102.2543316
63.06676121
46.69245475
45.28804774
43.61910857
37.78528974
37.06804543
36.55029424
34.0272651
33.70233609
139.2733938
105.2776781
106.217457
47.00287526
37.9857369
34.11879371
130.0902497
173.7472769
195.5700192
82.93810526
96.75827473
82.78820273
178.8050442
251.2154173
254.0617587
202.348296
220.212493
156.4857791
182.2660935
239.145962
237.5354017
254.1889663
253.199616
184.2686686
167.4072244
195.1864392
191.833009
218.0887368
214.1806161
177.783463
188.2398606
185.1735472
161.4579181
1092.676884
1211.219638
1211.563476
58.23128119
1446.222652
1002.157899
60.65130148
65.16289286
75.05037813
43.04684655
55.18066803
49.16124225
366.4146096
416.100418
443.5067935
175.7597202
205.0386893
170.8140987
75.43851542
65.23241106
93.58060806
50.13442293
58.2867242
62.91722684
49.37468663
53.69476279
47.04798166
1254.37747
1908.539587
1916.938196
1252.808998
1277.70873
909.3153238
94.62113441
88.58450827
140.9206239
62.04891567
75.14959151
78.27286368
67.38322
71.49025902
59.33181988
777.5298521
946.4312416
919.015404
1371.702513
1360.668644
1007.892098
102.0357594
100.4717412
155.2737285
69.7521296
84.49513343
85.58600547
80.87671042
82.92154318
68.29673201
467.0161875
596.6635885
571.363739
848.5391586
787.132125
563.3206888
1140.261095
1236.811585
1953.194454
318.0421402
515.0359346
461.0296133
408.4280247
396.5474814
340.2787011
826.1064825
1182.743264
1227.25469
484.1281707
513.3349326
421.5287863
141.5152493
165.7168532
123.0714876
349.4196301
270.2521409
248.8411809
383.374041
365.9316728
540.9138965
1036.138356
1388.955913
1382.273499
1914.326276
1908.107259
1263.495858
241.7836145
249.6143499
168.3646486
888.5825904
461.7010803
471.3482356
498.8884816
502.270441
822.5165002
691.0121805
414.4427529
398.7913074
470.3855752
467.6233409
855.8095138
157.8288959
225.2762535
238.4822624
634.3728198
957.0676412
871.931776
895.6684853
876.5912406
733.516865
246.7666863
241.6025698
183.6621644
561.9156263
424.4668005
433.3307822
266.381861
276.0732385
510.2994031
771.7585886
489.1168972
494.9652381
442.3664081
451.2904305
667.6727331
184.8372678
252.1584772
248.5925288
365.2544096
436.114018
422.1413671
548.5640857
526.6708908
422.8036731
444.5558746
1051.313642
490.0620456
956.9436183
580.2297167
107.3573749
102.1968912
149.0697411
72.84366907
86.85524011
86.74223465
86.31985946
86.70064171
72.38844672
682.0233261
1023.457133
877.0522352
809.6012521
792.6181887
701.5495611
181.1945232
115.7579183
92.15126505
228.6308345
208.9202513
272.578048
91.24461306
108.5198402
132.7383328
757.2244627
873.2657206
843.3557854
1240.356654
1153.57202
894.1793775
202.8332542
199.1138465
169.7458181
337.1398077
244.6288679
238.9991032
231.4877849
237.4420425
329.2758334
413.3571705
253.6533228
263.1467505
241.1660174
250.7701749
401.5605501
175.6324022
210.4407237
206.4111272
96.86968818
108.0741165
121.8999468
139.2060464
65.43519689
89.46315927
77.40368293
100.5534434
96.63761622
66.78031977
384.5560111
573.0282595
326.7806653
683.9284144
289.790877
218.0093957
1015.305705
868.1462972
1425.625725
194.4985932
273.8572576
354.7855849
1376.504569
1427.207707
1053.00418
996.3903435
1348.382708
1374.251196
1083.564261
1064.882121
853.8254237
903.3571629
1144.443599
1108.612191
650.7433408
622.6905117
484.4172083
1819.629074
1199.922113
1289.7421
898.0449603
928.8500132
1223.149321
1399.544762
1501.88309
2751.563512
540.9365699
765.1793199
733.0662989
572.5391184
692.6944257
660.9738159
835.5504928
773.4329126
597.4869446
837.1216106
874.8154709
638.7681144
546.7275863
742.832245
785.9275014
1418.708159
1414.826133
1071.539436
1101.659817
1451.189536
1428.062115
504.8028592
503.9648311
874.2716956
300.7840295
378.3350311
380.1715108
371.2404676
375.1314717
298.0208091
306.1354867
381.6379028
380.838974
381.647101
381.9405524
305.6135652
827.6197804
503.9249538
504.6371729
442.083963
428.0406651
707.8638265
261.5441345
326.1405724
333.9222665
305.0601483
314.6950919
253.7235072
285.8802174
359.2477688
365.6181768
344.2612813
350.1824037
280.5554522
831.9500523
467.4492188
453.9457017
1107.792068
995.6949295
588.8627162
668.3930999
785.032629
768.8963975
936.7907919
666.4789425
667.6508288
609.7458951
636.7770469
898.013897
409.4121796
505.7759727
486.582525
1037.422305
1493.766322
1356.25419
3017.057305
2671.245259
1476.901284
630.5624919
1818.702022
3369.734505
3014.396448
110.8095965
150.725399
200.5193049
140.6227379
102.3828357
289.9660768
161.6305751
235.0917335
271.5874865
365.3657042
122.3900529
177.3478253
150.5681347
209.4998889
195.8587127
127.5549988
1778.424444
1870.692745
1230.841975
928.1963602
1292.341543
1313.079609
1004.567704
976.2899925
794.0348081
2029.791124
1290.828743
1350.33437
1158.7952
1219.746308
1793.20783
994.0952383
1341.496657
1311.9052
1042.911001
1122.864361
788.7878019
310.9618547
287.7680222
388.6029306
189.4359338
226.7785601
240.4054304
198.0951825
212.6356883
178.584964
228.6367308
281.1217861
292.4586446
254.7882683
267.4360751
218.8175391
517.3191919
348.6406406
329.8353352
1401.974222
1396.125522
1044.433139
1247.975092
1870.451253
1777.099747
1502.630616
1085.483081
1115.341604
1035.750648
1059.414334
1466.617795
720.2888498
858.5264775
841.8990716
406.633171
415.4460058
544.1996838
282.8124333
337.9320028
332.8102892
348.2192447
343.2666382
286.3444066
474.7768539
482.7730866
759.1933248
303.3799299
373.8918361
370.4553129
379.1987239
376.8739363
304.8731879
294.8365536
357.9015755
353.2746176
366.5484484
362.4871877
297.614098
683.5414071
459.0794169
467.5250892
468.465297
451.9347397
376.0164312
739.0823397
559.4581185
583.2864012
515.0463319
536.6649391
664.4357684
715.3555826
1123.620027
1981.685461
1210.243554
1904.194288
1698.053505
2525.681728
2157.315544
1322.550404
489.1111342
3342.05799
1750.619818
1956.3533
1417.792283
1575.033377
2932.363053
853.0427548
1077.571811
1012.741024
714.3700441
1049.191253
1297.484329
767.0621518
955.4060022
649.8759286
1439.959427
1681.956676
1100.749013
407.2354448
553.03099
683.6101081
395.3630719
478.6206566
369.2539181
1042.187178
675.9305605
580.2949159
1085.657292
1467.249511
1611.774868
1323.038796
1342.91981
983.6327219
1387.783605
1413.14437
2334.997307
838.0269836
1046.709378
1027.738631
1258.567946
1197.272362
928.4056923
1077.559411
1130.609509
1669.802602
762.4309471
887.1616192
859.986746
960.5723278
921.2484091
782.1838453
963.1386683
1285.085163
1203.674664
1478.038598
1386.333432
1007.240638
844.6839224
1050.306106
1006.007762
1141.214611
1095.674994
873.2250652
2882.02147
1585.195243
1672.014288
1751.303548
1987.856866
3697.717407
923.4906086
1239.153804
1142.219415
1501.408981
1355.287718
986.6197862
669.5411827
923.6244353
977.4586058
643.1507234
682.5122268
515.3914279
1444.281001
984.7149552
923.9687224
1149.370707
1094.618077
1635.190398
1064.87859
1410.604745
1406.7895
1623.52306
1506.347393
1128.143403
1440.625127
2547.740657
2280.621111
2816.097731
2664.349503
1507.224687
1130.79989
1634.718987
1555.639461
1962.421103
1753.364297
1187.526553
1767.084248
1634.734726
1099.701024
1346.465164
2225.712762
1942.134044
51.31535602
46.4067144
48.67328849
39.46280693
41.82196973
45.4278817
37.33582209
39.49474333
37.71049976
86.52126161
86.10056159
73.20923003
291.352897
219.7530442
224.9467368
209.2369767
214.2157483
263.1763308
233.1724994
332.5839155
385.6640316
221.2490115
287.2131112
202.5254135
889.9537459
355.165796
315.3300686
587.1920272
1023.265075
2032.348476
273.8694171
405.3957797
346.821103
443.2376752
441.2704006
282.4661835
71.29361028
64.7093042
57.52779972
85.93877057
73.14157837
78.29390789
360.0776414
385.1417577
350.8484864
723.9663957
517.0090331
459.2555468
620.169005
555.0332593
780.0841573
790.5112574
933.7953261
889.7063786
1059.402367
991.2373439
817.99132
2304.69524
1371.1233
1538.212125
583.1673574
476.5211549
494.955384
443.3314418
458.8513927
558.7664073
1100.697259
737.1830752
674.5532571
847.2342401
795.6118775
1141.261065
444.005673
559.5323344
589.8081072
846.2199724
1250.507531
940.5031047
980.7472467
862.2193579
891.9557377
1168.579304
690.3979182
757.7595724
759.5121754
147.1480939
169.5286615
184.0497227
234.3181571
187.2353038
170.636696
957.3473714
913.7712062
777.7151367
1856.007597
1194.506561
1288.166633
1045.110795
1110.048986
1653.318587
91.95963422
101.8484808
96.04932903
125.8517272
117.4336853
97.24479734
178.2806737
136.6561384
171.7803465
696.513638
784.125683
770.1477587
831.9175927
810.2860345
710.6929964
1324.128052
976.7546575
1022.714006
823.3420371
805.6884743
681.2777888
1312.873517
975.4547967
1006.639545
911.4823324
939.5413145
1228.762051
181.1513611
226.201482
204.5482178
293.3031183
262.9448024
203.3260263
480.5290671
333.9881432
418.7243023
31.95917392
31.96133664
31.98638729
31.96091503
31.95777374
31.98505029
31.95223134
31.94562371
31.98133919
31.93854013
31.93154152
31.97673398
31.92519117
31.91985925
31.9727832
31.91625733
31.91171623
31.97008881
31.9087442
31.90651549
31.96847312
31.93353203
31.93704262
31.94426763
31.93892504
31.93729007
31.94502806
31.92508185
31.91887689
31.93102692
31.89881646
31.89133821
31.90903805
31.87143915
31.86518501
31.88834099
31.80265732
31.79939702
31.85377904
31.79185711
31.785707
31.84502564
31.78143216
31.77936356
31.83885977
31.93694379
31.94219873
31.93395237
31.94498549
31.94072782
31.93338173
31.91618707
31.90400166
31.90168653
31.86193256
31.84636778
31.85396285
31.80536657
31.7920048
31.80688102
31.72478205
31.70250433
31.74798934
31.68600107
31.67339679
31.72783307
31.66439067
31.65917168
31.71482127
32.07612395
32.09617734
32.0296238
32.08002076
32.06722274
32.02263009
32.01114727
31.98388492
31.94760178
31.89839079
31.86884061
31.85429577
31.78647198
31.76119276
31.76257344
31.68355301
31.63200632
31.66277177
31.59962368
31.5753827
31.62222257
31.55787113
31.54666508
31.59771528
32.67247219
32.73678787
32.46317575
32.62143194
32.56655657
32.41170482
32.37967676
32.30448274
32.18692261
32.09343479
32.02763834
31.96456704
31.85308014
31.80398003
31.78339176
31.70087432
31.59520401
31.60897904
31.54010097
31.4964778
31.53333708
31.46492417
31.44387185
31.4900323
35.44557558
35.56020713
34.27646106
34.68394741
34.34157305
33.78638742
33.47986621
33.22472492
32.90097587
32.62119597
32.46076945
32.30800019
32.07472999
31.97475172
31.9173667
31.8045693
31.60791712
31.59737415
31.50944277
31.4407412
31.46578486
31.38877268
31.35166244
31.39366384
47.27344604
47.57199572
44.9061799
36.45886315
35.53177861
34.75538769
33.76138296
33.36950781
33.07088738
32.53042822
32.33184353
32.22357237
32.01490136
31.67361029
31.63138519
31.51731381
31.40937576
31.42191144
31.33022109
31.27215308
31.30851349
72.7686359
66.1499764
61.40530128
42.95793175
40.18561699
38.78957602
35.74332911
34.90585331
34.43492774
33.27084587
32.91245903
32.74760809
32.32827573
31.80368874
31.72976268
31.5601148
31.39956694
31.40002336
31.28626017
31.20443182
31.23619342
126.6116319
106.9256072
102.419907
51.45431566
46.27493129
44.74390244
38.33013822
36.90664349
36.34728647
34.23303336
33.66820722
33.46637799
32.71304486
31.982373
31.88707509
31.63596514
31.40743471
31.40154151
31.25566979
31.14733529
31.17509952
153.4539738
129.4772427
127.9096566
58.31098665
51.56503018
50.41651958
40.88452402
38.93070147
38.40288072
35.25460936
34.48081786
34.28102336
33.11249631
32.17901253
32.07860656
31.72876062
31.43092945
31.41665723
31.23544844
31.0989512
31.12373212
152.737513
131.7391691
132.0982805
62.12898968
54.92418897
54.28061404
42.89054501
40.58852789
40.18552929
36.16884936
35.22307528
35.05276417
33.4677183
32.36208387
32.27210142
31.82047976
31.45971783
31.44351772
31.22209621
31.05770561
31.07963881
142.1231471
125.4459812
126.5027015
63.55362754
56.51863761
56.30751008
44.18688439
41.72569949
41.47786525
36.87776459
35.8144186
35.67735714
32.43868906
31.47069271
31.04063826
47.5690063
97.62777948
92.56125066
108.0317035
126.0922863
123.833455
147.7243835
132.3508984
132.4545598
154.8976834
305.7625434
346.5252263
339.4147026
493.1617072
478.5609628
590.048132
902.9563438
681.7773898
678.7322111
655.8480164
659.7511832
811.3102688
654.1497554
518.0623985
503.8744381
674.5821121
668.0560623
889.2520201
372.8269004
380.7468377
479.8383085
790.7573998
646.8908661
651.7248556
330.4563923
127.3023573
128.2472837
146.3106637
139.6507863
119.4278235
110.787704
353.2214219
302.9731687
307.8977807
272.5088244
277.3247881
315.2303648
437.955286
356.9617974
364.4431073
315.2159299
320.6402982
380.4744444
63.96929727
71.78234244
73.09333611
74.05497349
74.30636883
68.2111275
393.6896073
291.6997057
246.5640762
673.515009
674.4712294
850.4155266
836.0375686
671.7971697
672.5604942
588.0152589
575.5950751
740.194993
788.17023
610.718491
598.2370505
748.54002
737.2729525
629.0870884
1035.122952
838.5657369
861.5246766
714.4365484
732.562225
835.0099389
402.2825228
393.0902034
415.9984513
474.0021328
421.7490893
409.1141453
607.0516756
614.289374
733.3754968
702.5012564
592.999824
600.240172
767.2436993
681.1215812
699.918256
57.39486054
53.46507122
55.90703934
298.1275464
263.2725671
268.4358843
159.247582
181.9739132
179.2064393
53.85486454
60.41169611
57.07341934
98.39066148
91.16806433
94.93266918
331.0902092
384.8118114
374.4163486
142.0542755
155.5948683
136.274671
222.0408228
190.4532522
201.5294111
31.92166166
31.92916809
31.930983
31.93087648
31.92652741
31.93369779
31.93248913
31.93282944
31.94620856
31.93867101
31.93928736
31.93075825
31.93075142
31.93333753
31.92258139
31.92778538
31.92645409
31.94235519
31.93457863
31.9301122
31.90272328
31.90989549
31.91742543
31.89334209
31.90264872
31.89464357
31.92512916
31.91276912
31.90558312
31.86343526
31.87612815
31.88552662
31.85913262
31.86821054
31.85382892
31.90284012
31.88464068
31.87761267
31.82429349
31.84372927
31.85182577
31.83036628
31.83728021
31.81637173
31.88347498
31.85980991
31.85453577
31.94548357
31.92938366
31.98926506
31.95878023
31.95432402
31.96298722
31.96194063
31.99520331
31.93630041
31.94571772
31.94703565
31.97887295
31.95709401
31.96284041
31.93672964
31.94731986
31.97233894
31.92852423
31.93474206
31.92592354
31.92508558
31.91069649
31.92486188
31.87955314
31.89598773
31.90667843
31.89032707
31.891423
31.87688615
31.84748501
31.84510859
31.86304582
31.81050835
31.82722862
31.82780186
31.84212377
31.83310221
31.81875958
31.77039697
31.77963795
31.7953242
31.75201032
31.76554264
31.75352433
31.79713641
31.78019568
31.76911531
32.15662118
32.06014189
32.31128545
32.17589184
32.17690486
32.16969498
32.17471284
32.31958016
32.03098169
32.10369046
32.10027088
32.24082126
32.15665111
32.17516514
32.09147013
32.12068937
32.22589526
32.00381905
32.0583604
32.03762776
32.10006996
32.03114099
32.06392422
31.96052669
31.9961901
32.0568713
31.9250119
31.95633756
31.92749432
31.92360032
31.89008854
31.92508347
31.82265085
31.85592928
31.88168239
31.83147357
31.84012789
31.81273015
31.77003873
31.76351942
31.79211854
31.71058678
31.73685661
31.73938819
31.74407315
31.73703926
31.71733982
33.01208366
32.63225458
33.61205663
33.03840824
33.06571656
32.97711741
33.0219801
33.59939659
32.45831759
32.74243095
32.71568575
33.17521585
32.8848345
32.96900355
32.640708
32.73960744
33.09050882
32.34092593
32.5333052
32.46144832
32.6527177
32.45215586
32.55043139
32.26407519
32.35541498
32.52974321
32.12954952
32.23267748
32.16213077
32.19907412
32.09757202
32.17749001
31.9545626
32.02388768
32.10532616
31.91555768
31.96597859
31.90705104
31.86979251
31.83276982
31.89114195
31.73194543
31.77978229
31.80725163
31.74609556
31.75955095
31.71949683
37.12095324
35.21025449
41.69176357
37.27457763
37.37043525
36.47726496
36.97052741
40.40825228
34.20497678
35.45933153
35.20643187
36.67501289
35.52478869
36.11492619
34.37248662
34.81640426
36.00966068
33.4696647
34.10970056
33.77881016
34.13376873
33.6238715
33.97953115
33.04881689
33.31484991
33.72961368
32.7290498
33.00178326
32.80157156
32.84205487
32.62178781
32.81978082
32.29824707
32.44945587
32.62444928
32.19523055
32.31770881
32.1887652
32.12744003
32.04574435
32.1646948
31.84721885
31.94041859
32.00342212
31.84241816
31.88669399
31.80872822
58.78685508
52.82695656
52.7472014
51.19879169
52.10037052
58.35079993
44.5357039
47.54662879
47.20729818
37.54882378
36.45327008
37.72739917
34.73707269
35.48645683
36.30928641
34.20270943
34.81047116
34.23310881
34.05402805
33.66992983
34.14338018
32.96026271
33.28257169
33.57683537
32.8095524
33.04052894
32.76466341
32.59259285
32.45639851
32.68738486
32.08959249
32.25856954
32.36562193
32.07763465
32.16204333
32.01622512
76.5882615
71.17315687
78.73987954
58.84481737
63.67744524
67.95826497
43.19387785
41.65276172
45.05813167
37.57670674
39.28126973
40.43639936
37.19874694
38.23400282
36.81638247
35.87373447
35.33838239
36.30473155
33.98017897
34.58383785
34.99404935
33.8817807
34.24062859
33.70669921
33.27542726
33.08484103
33.48882263
32.47004616
32.74925975
32.89739606
32.48519771
32.61393735
32.36443927
114.8767716
111.0116547
132.0093059
83.62097748
95.02883363
98.21925132
88.06884552
91.73451362
81.24870983
49.13922594
47.74809479
53.4444782
41.00635478
43.81497018
44.91842333
41.5583858
42.72691815
40.19712451
37.94861181
37.38760894
38.9398894
35.24382414
36.18980282
36.62417951
35.37168976
35.80109592
34.93039229
34.07815094
33.86996369
34.48598977
32.95070968
33.36526136
33.52932587
33.04759673
33.20565043
32.82568001
131.5526063
130.5997729
154.4355995
98.66646141
112.2623869
113.3639879
109.578737
111.1455825
97.52029018
53.484255
52.60470846
59.57182004
44.08552885
47.67074981
48.44745094
45.8923099
46.8451282
43.42973374
39.81634626
39.35577203
41.404432
36.5068709
37.76356317
38.14126064
36.9995532
37.40932248
36.21239584
34.87131483
34.68013924
35.49977943
33.46083234
34.00963882
34.16332054
33.69097224
33.84963864
33.33430851
130.5623201
131.0418583
151.5216561
55.89893812
55.48263939
62.70353222
46.24602712
50.19564679
50.65952022
49.10238577
49.73146753
45.85591713
41.21071787
40.90693904
43.24173412
37.57238434
39.05689185
39.3091805
38.44689622
38.78148173
37.33584482
35.53954346
35.39046774
36.37110125
33.92455213
34.58554376
34.70860819
34.31068716
34.44841627
33.81495842
51.01304164
51.30147237
47.30511757
39.54643647
39.75871397
38.1712149
34.82229262
34.93629277
34.21179488
181.1607629
158.2474712
151.3945751
169.0006251
162.9404154
188.6181802
252.609977
215.095248
213.4185082
217.3729638
216.2779565
253.4031656
208.6715693
179.0066569
173.5810265
187.9597432
183.3602776
214.6586027
237.6988878
211.5624512
212.9718055
254.0840636
218.6366498
218.0854425
218.996929
218.9304973
253.6968715
51.24617471
46.58471011
45.86123873
42.68929931
52.98050314
48.28835952
49.34476486
45.44280748
46.39202139
50.71154575
71.72549244
80.28399348
84.33225689
71.9968053
76.27649005
69.23317956
101.2692163
87.33014661
81.91375146
92.76530098
105.8326659
107.9374333
100.9749116
103.625246
90.92701842
144.7992095
121.2980854
118.2506586
101.6399808
114.9348519
115.2362098
113.9916527
114.6758366
101.1662217
155.1760352
132.4651751
132.0331191
827.801506
717.0511484
732.7053013
685.887507
701.8140804
804.7759123
364.3115799
355.5192346
311.6327428
496.0515768
414.9211917
427.8911076
391.0055142
401.461716
477.0450155
149.4825217
134.7374238
126.7306428
146.6711116
139.333216
157.9339316
566.2025516
467.7093728
453.2045008
244.9003813
207.6724439
205.0040558
211.7391331
209.6225628
247.3057221
680.5153019
681.8433278
898.3613562
473.2847457
526.1261642
543.6718201
515.9549115
522.8638035
472.6712352
817.3775757
663.0246071
665.9241469
542.2616765
528.4794827
672.4090638
469.0556466
501.8251779
510.1842449
483.5917809
493.7744477
468.1758057
875.8573937