/*--------------------------------*- C++ -*----------------------------------*\
| =========                 |                                                 |
| \\      /  F ield         | OpenFOAM: The Open Source CFD Toolbox           |
|  \\    /   O peration     | Version:  v2012                                 |
|   \\  /    A nd           | Website:  www.openfoam.com                      |
|    \\/     M anipulation  |                                                 |
\*---------------------------------------------------------------------------*/
FoamFile
{
    version     2.0;
    format      ascii;
    class       volScalarField;
    location    "1.82";
    object      nut;
}
// * * * * * * * * * * * * * * * * * * * * * * * * * * * * * * * * * * * * * //

dimensions      [0 2 -1 0 0 0 0];


internalField   nonuniform List<scalar> 
3259
(
1.156651045
1.156653531
1.156535849
1.156403269
1.156258935
1.156161309
1.156085361
1.156053051
1.15582452
1.155830787
1.155852924
1.155880895
1.096375466
1.077077453
1.140384532
1.157232485
1.156511034
1.155946243
1.155490121
1.155274202
1.15494994
1.154976062
1.155040496
1.155118131
0.8619221701
0.8508321195
0.9129120282
1.050966852
1.157414796
1.156139045
1.155141462
1.154633812
1.15417306
1.154137343
1.154219521
1.154351471
0.5807740049
0.5883420884
0.6512967211
0.7690723985
0.9627773675
1.15719856
1.15527085
1.154253928
1.153437573
1.153349048
1.153419365
1.153579327
0.3485054323
0.3638085012
0.4340699303
0.5446934312
0.7104452311
0.9742864389
1.156136184
1.154245085
1.152933364
1.152604937
1.152619023
1.152801464
0.172955634
0.2008071244
0.2782140006
0.387054004
0.5363099944
0.7606250451
1.115887031
1.154699569
1.152580344
1.151931582
1.151834486
1.152002146
0.06293321311
0.09873933909
0.1810990484
0.2861949835
0.4229680687
0.616366534
0.9498279162
1.15571904
1.152407724
1.151311468
1.151038338
1.151167174
0.05521436611
0.1352801309
0.2322492156
0.357427451
0.5319993535
0.8340528956
1.157121229
1.152471433
1.150797765
1.150273425
1.150328635
0.06541079173
0.1305409876
0.2152746119
0.3290689831
0.4880366172
0.7670652821
1.134247021
1.152750851
1.150393631
1.149561303
1.149521058
0.09055482232
0.1465659705
0.2233489337
0.3289872288
0.4756848998
0.7356404145
1.072623265
1.153278933
1.150199784
1.149004657
1.148838706
0.1229327378
0.1755817852
0.2490384473
0.3499083216
0.4894610593
0.7352629273
1.03987603
1.154007083
1.150197513
1.148638234
1.148342075
0.1599529167
0.2165092451
0.2919884568
0.3916328011
0.5275649005
0.7618318225
1.040004583
1.154974229
1.150471759
1.14854283
1.148104177
0.05813139158
0.04797275034
0.08258065015
0.06097840451
0.1158807266
0.08650441759
0.1466236721
0.1208176846
0.1504928414
0.06358453419
0.049673275
0.09350452915
0.02964045745
0.02048794294
0.06300692817
0.1108246694
0.1151725264
0.03871140914
0.04985708261
0.08722454633
0.1254697829
0.112881136
0.0658057669
0.04783001863
0.11878895
0.1530388028
0.1313954378
0.1169202189
0.08791460492
0.02199457414
0.1377726762
0.1326298806
0.04840438576
0.03088649476
0.05048323864
0.0327325717
0.04656416887
0.04737926359
0.0385266154
0.07225737281
0.05566032417
0.06264880277
0.04780661708
0.0559186043
0.07081491948
0.08401340841
0.06732236477
0.1033356908
0.08959306821
0.1131759186
0.06323974471
0.08654964211
0.09892156509
0.1317294375
0.1213681532
0.01518736371
0.01337892977
0.1393993975
0.02489019646
0.01779732535
0.00874363019
0.009258622592
0.1528859023
0.1893414657
0.1613378884
0.01005594567
0.07240393574
0.06323448924
0.02349290829
0.03105102951
0.04907340094
0.06132969121
0.04437424929
0.1354300562
0.1256008785
0.133744503
0.1145971664
0.1243954412
0.1322022661
0.02504368224
0.02076685638
0.03253610472
0.02385425207
0.01753019942
0.02379434043
0.02160128647
0.01049074649
0.01727411798
0.02252158768
0.04868625968
0.0494324349
0.05699937842
0.0557385618
0.02201481229
0.01051440727
0.1040983793
0.0185595532
0.03452743913
0.009680363906
0.0157088414
0.09985504068
0.09100481649
0.07717018935
0.01024255008
0.03878250911
0.03827818739
0.04541887802
0.045072872
0.05964081937
0.06918010081
0.06460627749
0.07564263341
0.07078618088
0.05999568987
0.05794096504
0.05704099176
0.05200992623
0.06294279719
0.05842699775
0.05941770551
0.07951179327
0.009449545739
0.07800721488
0.03691200429
0.05456355561
0.129511552
0.04129793185
0.02374013487
0.006681205091
0.09578604663
0.003509559182
0.02283910323
0.01697049093
0.006216977596
0.01475380183
0.01107466971
0.01026859826
0.009050181248
0.0135655043
0.009552495649
0.04164866707
0.01817156031
0.017019726
0.0527988041
0.06156402977
0.01856348204
0.02538604772
0.01177908499
0.01176128958
0.04992648926
0.0447631767
0.02057996109
0.01833103966
0.03800978458
0.04419729137
0.04004198462
0.05044075242
0.04565099961
0.03925336258
0.04638498849
0.01223664236
0.01184202733
0.04020718556
0.0269524241
0.02946647786
0.07152539424
0.09904377378
0.1034230561
0.09560346442
0.07046218184
0.08330943093
0.07753861053
0.09275348274
0.08558993306
0.07174695722
0.1308601956
0.05729585196
0.07647513994
0.01067169051
0.01245628234
0.00637981684
0.01232335839
0.009382304749
0.009238540562
0.0336585552
0.02564832444
0.006603135264
0.01130133821
0.007711009412
0.01178285619
0.01118832744
0.0154894325
0.05210911306
0.01008336932
0.009381943515
0.01955660269
0.02192990586
0.01883888545
0.03049556731
0.02334487936
0.01843823567
0.01656575431
0.01288811622
0.01563330475
0.0122333553
0.04396477072
0.05198357089
0.01671520478
0.01572998881
0.01729897664
0.01794834274
0.06009789661
0.0106200035
0.01088340649
0.01430694297
0.01085585852
0.01099788953
0.05129770799
0.01132346138
0.01691908586
0.01487118108
0.01329537207
0.0246531773
0.06422619264
0.05851025154
0.0121695986
0.04840789122
0.04157842215
0.05641672748
0.05078571299
0.01280288301
0.01232343495
0.04476693623
0.03685266235
0.02849888151
0.02707528335
0.04345540489
0.01967117419
0.01979184105
0.01568262801
0.02828918005
0.0319646766
0.02057593469
0.02853874062
0.03475458067
0.03704998714
0.02984949809
0.01287070774
0.01241248547
0.04611060866
0.04186137245
0.01261502124
0.01303610814
0.03036958878
0.02563576785
0.03959048697
0.03295722101
0.008267006453
0.0162413537
0.01517768237
0.02392172707
0.01682542811
0.006536108284
0.03372776875
0.009346919683
0.01005295982
0.009334938802
0.03123474723
0.009929623514
0.05694427477
0.1214928929
0.1579604464
0.009722691022
0.009692022552
0.2004690768
0.006561656823
0.1380731523
0.1438229936
0.1608399237
0.005047136465
0.007988626458
0.005937923853
0.00496408041
0.006086285744
0.004776450608
0.06111726462
0.0384152632
0.02394407071
0.02657463017
0.02351283022
0.02729518441
0.05502480058
0.04756139013
0.01404365931
0.08107330082
0.09477497345
0.135218868
0.02890632858
0.03453278081
0.03340535604
0.01077747052
0.01192341345
0.01015987795
0.01027292723
0.05713971759
0.01495186382
0.009559643954
0.01245568692
0.01137975072
0.01006134551
0.02806381376
0.0351763164
0.07186124713
0.03873672723
0.03538177531
0.02606018189
0.05457003955
0.01815023586
0.02538161513
0.02485650932
0.0156797641
0.01063431191
0.02226754026
0.02000850241
0.01837042779
0.01892705029
0.02284574895
0.02013728863
0.01141500424
0.01229150873
0.007061625045
0.009306945591
0.01172377994
0.07218448256
0.06612628642
0.02684574163
0.009415469635
0.01638669122
0.01468880633
0.01093561757
0.01664648224
0.01433913375
0.009656696503
0.009730179775
0.01417314171
0.01344783209
0.009488491242
0.009641014104
0.009153904677
0.07300280477
0.0306664322
0.037733701
0.009997040814
0.009883931812
0.009928895482
0.0108791643
0.01142266796
0.01883449204
0.006727355491
0.004390422889
0.008124360012
0.01290303294
0.009555015659
0.01034295428
0.009503908143
0.009765071079
0.01155373692
0.01069467851
0.007081066639
0.005415273525
0.01559288218
0.01607557916
0.01504694647
0.01521327942
0.01764841463
0.02680000717
0.0271772008
0.02629391574
0.02663081322
0.01748264832
0.01161250973
0.02057592317
0.0205268722
0.02125444803
0.0207161091
0.01139512467
0.0195735469
0.02998374929
0.03322067129
0.02749649649
0.02836664588
0.0189785774
0.01218230839
0.02053419265
0.0205120021
0.02048563168
0.02051887398
0.01199955005
0.01446928695
0.01479851288
0.01391416654
0.01464754227
0.01018638722
0.006884922087
0.01011970874
0.01105360491
0.006809391771
0.009568744194
0.008644254659
0.01513049205
0.004063386988
0.009289716709
0.007249297852
0.00528720697
0.006610548512
0.009348950595
0.007540226714
0.009836656721
0.01088045351
0.01018395557
0.008627173154
0.009624012649
0.006513382798
0.009665965702
0.02434133719
0.02170338006
0.02411527562
0.02722344044
0.02986561164
0.02368066999
0.02197163606
0.02349931681
0.01488574872
0.02374496061
0.02520816876
0.01723924779
0.02385159306
0.01579374192
0.01637210499
0.02578473826
0.02611659432
0.02521102787
0.02565859979
0.01615447832
0.01749623411
0.03067314776
0.03016375261
0.01075785637
0.01082543619
0.01235058888
0.009812111938
0.01013326863
0.01046725965
0.01089173267
0.01047756481
0.01360099468
0.02540752407
0.0227238261
0.02935990427
0.0278602335
0.01585318687
0.009263273813
0.01036014131
0.01766351992
0.006769326413
0.009302832496
0.009291354248
0.01269128168
0.009313340445
0.00953479266
0.02156047883
0.01914433796
0.01063688163
0.02842159888
0.04035069521
0.04094954972
0.03679563625
0.03801742752
0.02682954631
0.01870737741
0.02003085777
0.03010094978
0.02156878922
0.02058306763
0.02282083207
0.02175267999
0.03055295701
0.0210769344
0.02175359737
0.01744834232
0.02252271081
0.01267818809
0.0205549579
0.02056355545
0.02055872664
0.02057281839
0.01261463957
0.01313117921
0.01903851684
0.01653001033
0.02044929897
0.02007310103
0.01309310209
0.009614332786
0.009908420455
0.009352321912
0.01272935356
0.01103866634
0.01585286012
0.01011988152
0.01001984091
0.01015704659
0.01014581294
0.01562455593
0.02139678512
0.01152876086
0.01341240795
0.01023623873
0.009920759165
0.01852075531
0.009592736325
0.01268038284
0.01201183055
0.01674031738
0.01396010063
0.009523578961
0.009293934696
0.009533656527
0.01126478151
0.01026391561
0.006585261214
0.01019926226
0.9333119701
1.105763319
0.9284576231
0.9081922305
1.076531317
0.9136896903
0.957300455
1.128172056
0.9767768319
1.083750378
1.157416572
1.120207201
1.157397161
1.156672508
1.157083383
1.156242637
1.156067744
0.6606515069
0.8670813187
0.6477519301
0.6458274916
0.8450857095
0.6523400022
0.6938774494
0.8920313272
0.7144428087
0.7994840743
1.011171936
0.8360026718
0.9798371446
1.157828427
1.040746968
1.157288651
1.156404416
0.4092306527
0.5949420474
0.4021134023
0.4051294758
0.5811156271
0.4143600213
0.4606641948
0.6307578281
0.4816042645
0.5618015097
0.7339149549
0.5937753901
0.7170607993
0.9068435353
0.766737136
0.948079388
1.157719566
0.2158057515
0.3535089611
0.2105481065
0.2236049922
0.3536154439
0.2355306945
0.2892065535
0.4127049716
0.311058363
0.3903577929
0.511736771
0.4208731997
0.5301032633
0.6630952087
0.5732701108
0.7327712644
0.8857595711
0.07618635281
0.1782648128
0.07564523533
0.104989873
0.1875351118
0.1187464778
0.1774772978
0.2558298939
0.2003859339
0.2776337975
0.3567504763
0.3067461785
0.4067928076
0.4940567857
0.4459934524
0.5890970302
0.69179669
0.03085025974
0.03991394686
0.06757671779
0.07560101759
0.1001560627
0.1173600304
0.1423093709
0.2149097309
0.2576581782
0.2419835466
0.3345225134
0.3847226152
0.3701888373
0.4981132539
0.56109251
0.05554224659
0.07911628915
0.08254715513
0.1292705331
0.1924778278
0.2058653866
0.2167824924
0.3007643848
0.3225899233
0.3333267256
0.4503169093
0.4816693498
0.07454433814
0.09188364701
0.08579552362
0.1411911266
0.1973707824
0.1916625699
0.2190005098
0.2968733183
0.2972089412
0.3271970024
0.4364763676
0.4429549123
0.102197792
0.1179109778
0.1075160793
0.1672742367
0.2204894533
0.2017472351
0.2411813576
0.3140962964
0.2993250566
0.3426014518
0.4443202747
0.4351660089
0.1353590349
0.152390565
0.1390559335
0.2048525382
0.258655249
0.2284283001
0.279333911
0.3511905459
0.321660783
0.37917106
0.476721077
0.4506555896
0.1675239011
0.1849851599
0.17348777
0.2711871857
0.363860029
0.4889944098
0.05521116396
0.04870191292
0.05305547368
0.03997571124
0.03989164481
0.04740925967
0.07923386974
0.07412896042
0.07932794587
0.05462318362
0.06018185866
0.06323982
0.1118764026
0.1091838279
0.1137451616
0.08148815376
0.08639039776
0.09045321249
0.1435238936
0.1396603317
0.142031432
0.117623141
0.1218083024
0.1249753535
0.1442760464
0.1466793548
0.1530988596
0.003117529162
0.00376576486
0.003408977112
0.03284209432
0.003139334474
0.002860060768
0.05219702032
0.04423150951
0.04093051762
0.07215653845
0.04491526529
0.06725652797
0.02886126927
0.02812373704
0.02884789658
0.0175958055
0.01768443908
0.02067487016
0.08309110131
0.08038477222
0.05676781063
0.1102552046
0.093512248
0.09497286588
0.09615074571
0.09386913136
0.1115131676
0.03914449678
0.02477711125
0.02456409172
0.04010682635
0.03929526724
0.05134659146
0.103560925
0.0952819648
0.0763999525
0.1203900875
0.1070359519
0.1126718151
0.09794797269
0.1020405803
0.1161445144
0.06431372699
0.05078724127
0.05254528752
0.03377843251
0.03400306626
0.04831713578
0.1344889426
0.1223245552
0.1063019142
0.1452986753
0.1336545894
0.1416657345
0.1189959311
0.1260334287
0.1380361346
0.1127012507
0.08516874233
0.08954648457
0.05554926517
0.06095301249
0.09174610713
0.03299612632
0.03029713916
0.0191513836
0.1361175799
0.09964249842
0.1138299225
0.1305371136
0.1316020748
0.132186636
0.04714184182
0.04247959249
0.04095157684
0.0298581682
0.0306160298
0.03150925085
0.04319943787
0.04708931784
0.05276897172
0.03444089537
0.03614071463
0.03440989873
0.04677138713
0.04516516794
0.04359084343
0.04702437925
0.03347159378
0.03356983476
0.02448183309
0.02446017516
0.03859434459
0.06739537033
0.07138483013
0.08029716065
0.05650298864
0.06570072966
0.06070286419
0.07502363099
0.0731827099
0.06126413274
0.05188192679
0.0502649326
0.0484696899
0.06004160585
0.05667010024
0.05877476682
0.06364807015
0.06096465296
0.06549436563
0.08035010654
0.04781846681
0.05371758037
0.05410353394
0.05544563494
0.0687060572
0.09890893852
0.1050957931
0.1077782416
0.09253747737
0.09714661006
0.09452218671
0.1113467999
0.106181348
0.1025845356
0.06556066345
0.07876082871
0.0768942581
0.09179862474
0.08806348074
0.07684068034
0.09458023573
0.08921831101
0.09524734331
0.1320033339
0.1213700087
0.1258641802
0.09378418505
0.09821690197
0.1255991071
0.1187431913
0.03603356496
0.007526518826
0.00958181993
0.009176051888
0.1629857662
0.1601842225
0.1392584754
0.1792927518
0.1677360831
0.1774753719
0.1500445776
0.158436413
0.17016204
0.06796840851
0.03794211002
0.04600965785
0.05277905824
0.05442794533
0.06576099211
0.02500820059
0.03414319083
0.03431456381
0.0327958452
0.03143175317
0.02935834188
0.0476954115
0.04017127496
0.04150869947
0.0590283387
0.04750758001
0.04984900005
0.03094917811
0.0335744102
0.04679619696
0.1334035542
0.1369802303
0.1391667467
0.1303259394
0.1314387632
0.1324582502
0.1385024894
0.135223045
0.1341669774
0.1186962872
0.1199896346
0.1153300469
0.1283221621
0.1222405809
0.1201046242
0.1286520221
0.1258877594
0.1294254477
0.01325337605
0.02172936454
0.01848488715
0.01772605555
0.0291468742
0.0181709672
0.0278818654
0.01281045512
0.01608795743
0.02609352274
0.02053157217
0.0227508767
0.0253161948
0.01138527537
0.0159717687
0.01429760691
0.01674988108
0.01526107639
0.01586290436
0.02125150374
0.01877805615
0.01984109941
0.0358716267
0.03451118196
0.04752274235
0.05032904032
0.03684883065
0.03608648037
0.04369691545
0.04452137978
0.05794463993
0.05444230571
0.04111657299
0.04262191502
0.07694945409
0.08105094028
0.1082916007
0.02105749716
0.03350953011
0.03080845458
0.04843073963
0.04630005512
0.03219284428
0.02809138972
0.02602188692
0.01399093169
0.0959447618
0.06310096521
0.06641893889
0.08632139762
0.06489909282
0.06955225162
0.04910833916
0.05471312005
0.08157212417
0.03890586687
0.04079347839
0.04028408162
0.03766806455
0.03630979408
0.03736210443
0.03313366931
0.03316923511
0.04564723039
0.04448501275
0.0324238706
0.03295055935
0.06749860292
0.06567254034
0.0574898675
0.06784552322
0.06593155551
0.06754923795
0.06233771979
0.06301818433
0.06622882133
0.07403534459
0.07213476028
0.07378357506
0.06896350595
0.07051615793
0.07237847388
0.06087466509
0.07134251719
0.06949226362
0.05391461816
0.05205995204
0.05333456051
0.05536213007
0.0534027128
0.05508825683
0.05001182127
0.05171070599
0.05370102545
0.06149897468
0.0606948024
0.06142717073
0.05660746223
0.05871380371
0.05995158558
0.06047777797
0.05689078114
0.05579344264
0.03992954499
0.04553015251
0.08772329595
0.07620407155
0.0628435262
0.06436680587
0.04483584563
0.07340858015
0.07365313168
0.08196010204
0.07771549155
0.04742897521
0.1287989966
0.1028139152
0.1073951133
0.03865976805
0.02540619084
0.02809443239
0.01286992855
0.01434815791
0.02590771435
0.0743703471
0.02059343418
0.01183405042
0.01292513763
0.01186332594
0.009008223522
0.006144261603
0.01032131332
0.01429262604
0.007618272975
0.009390259737
0.009429465372
0.007997019242
0.007581358582
0.01165258197
0.008250782367
0.01141345117
0.00600791115
0.007074386298
0.01028705244
0.02696302755
0.02544095362
0.04003824874
0.05276909192
0.0387956043
0.03812927383
0.04744521591
0.04901847554
0.06279895572
0.02020356111
0.03449522204
0.03275865994
0.03916463476
0.03684907725
0.02297732944
0.04901243497
0.03447040151
0.03527736574
0.04711087594
0.04468750204
0.04603231784
0.04037290065
0.03788697713
0.03622251352
0.04275782465
0.03992246039
0.0415427399
0.03683085943
0.03835795515
0.04145360994
0.04884197728
0.04668285595
0.04835631155
0.04315388261
0.04494208159
0.0472999083
0.04253098146
0.04356383301
0.04210602587
0.03328341914
0.03335872126
0.04667831715
0.03903378422
0.02488093878
0.02617263309
0.02789879632
0.04230247303
0.04097941887
0.04466015659
0.04350935428
0.02867436855
0.07011374149
0.05675471195
0.05802598551
0.1021944909
0.09970845181
0.09577091552
0.1010152669
0.09853791397
0.1012896453
0.09295470021
0.09574354124
0.09811867504
0.08226123575
0.08054569626
0.06674958338
0.081392133
0.07912384205
0.08101084239
0.07551612427
0.07730076893
0.07934300076
0.09035047408
0.087601835
0.09022784289
0.08303680569
0.0852917684
0.08776181612
0.07489150673
0.08604650917
0.08409785649
0.1120601748
0.1166619457
0.1309248257
0.06203779364
0.09087311194
0.08651465901
0.1001679917
0.09545219271
0.07213965614
0.01070951002
0.01061349918
0.01277344956
0.03118540136
0.01969530961
0.02203161003
0.01503141465
0.01744190233
0.02840818309
0.007751835088
0.0118963001
0.02157384393
0.01935194671
0.02671886228
0.02399841078
0.01326596944
0.0499205761
0.03637001517
0.03920819443
0.02057501158
0.02065562087
0.0235755224
0.01755603674
0.01915471526
0.0197596201
0.02538767071
0.02779825052
0.0251677903
0.01749400656
0.01569595833
0.0167299332
0.01498163187
0.01516617608
0.01679422611
0.01435027252
0.01383237589
0.01322582303
0.04596834727
0.03331510398
0.03010051423
0.03775397483
0.03712193529
0.05101156545
0.03177867014
0.03115172975
0.01765688561
0.05913942056
0.04534861454
0.04626353788
0.03692413524
0.03905652424
0.05281589327
0.03823159764
0.03603333278
0.02299891521
0.06238878849
0.05028308223
0.05239418857
0.04530580626
0.04784439104
0.06037267847
0.04621823637
0.03159219368
0.03413459316
0.02698167365
0.0289591398
0.04365827407
0.05473914292
0.04041668693
0.04269640688
0.03643377191
0.03832668554
0.05245885208
0.01351382393
0.02457892914
0.02324571341
0.02132747749
0.01882455943
0.01122746605
0.04259278777
0.03031959843
0.033035104
0.02491712324
0.02764353092
0.03922325058
0.04192992068
0.04291977557
0.045286084
0.03394054737
0.03530497037
0.03552361267
0.03521818907
0.03623836956
0.03450158994
0.0398136937
0.03787908604
0.03129250707
0.04588318905
0.03320964277
0.03323195642
0.02877671095
0.03115914861
0.04341367582
0.02835419073
0.01545457784
0.01722177594
0.01418679837
0.0149138683
0.02695401448
0.03774834548
0.02421998296
0.02552518879
0.02003412571
0.02250042284
0.03553445055
0.02141255356
0.02315897322
0.03598383985
0.02857344281
0.01704402691
0.01949733273
0.08486384829
0.09028988843
0.07067818174
0.1302114291
0.1097655156
0.09978154521
0.136424089
0.1210835831
0.1424928351
0.1869334772
0.1969960297
0.2125418754
0.134383305
0.1444881202
0.1411922778
0.1487419116
0.1466772456
0.1406530023
0.005839573403
0.004193429852
0.003885745066
0.007098593573
0.005870881088
0.006565459352
0.004401898274
0.004608075376
0.006738609092
0.004280210588
0.003834324691
0.003255620295
0.00530746539
0.004058025087
0.005230996009
0.003735057518
0.003765455664
0.004818731783
0.03276316255
0.04007979999
0.04511095298
0.03481149161
0.03542249802
0.03018262592
0.02643713483
0.02714394147
0.02721694847
0.02448279976
0.02629485089
0.02560245811
0.02771092956
0.02673617836
0.02574073229
0.05249423572
0.04159772666
0.04418741265
0.03589578057
0.03871676974
0.04997507692
0.01633874175
0.02726140417
0.02426815877
0.08541062726
0.1096490357
0.1049149717
0.119139997
0.1145075086
0.0901142128
0.03053240927
0.02983555593
0.02869212308
0.03274605279
0.03107344301
0.03228684468
0.03275335323
0.03165894909
0.03270077268
0.04717732284
0.03031945988
0.04248293702
0.04035503243
0.04765801647
0.04557911868
0.0326302009
0.06728628411
0.05804208579
0.05780112292
0.03744762166
0.03411906277
0.03541178181
0.02732402855
0.03008305185
0.02900383302
0.04208154901
0.04471646016
0.05683212283
0.02032584658
0.03202152916
0.02952956297
0.03729043911
0.0348202993
0.02278773412
0.02156533129
0.01964800092
0.02318906694
0.01389476675
0.01670305503
0.01846825086
0.01456540476
0.01558656464
0.01235921258
0.06990463435
0.05921871136
0.060646295
0.05475204524
0.05669793407
0.06811877335
0.02940353331
0.04333738827
0.04086018282
0.05950691901
0.0610037056
0.07460822222
0.03255029569
0.04792978289
0.04617505803
0.05199358291
0.05013456161
0.03519558772
0.009919581744
0.00876579884
0.01038548006
0.006230431612
0.007389562771
0.008274248134
0.006411008834
0.006737750395
0.005452378631
1.14502991
1.129016713
1.156654684
1.136462666
1.157484676
1.156613496
1.157284516
1.157022449
1.156473267
1.156762152
1.156527174
1.156327871
1.156315279
1.156134837
1.156201042
1.15597898
1.155867643
1.156114187
1.155767725
1.155698034
1.156064521
1.046968308
1.029256228
1.076020841
1.026200186
1.04353824
1.088664997
1.089403484
1.14410194
1.15785575
1.157569516
1.157301074
1.157037864
1.156650128
1.156432396
1.156347392
1.156028445
1.155526431
1.155630605
1.155264399
1.155075268
1.155363438
1.154933509
1.154856735
1.155222332
0.7906810573
0.7821913613
0.8527933478
0.7846925846
0.7946385003
0.8606087705
0.8466371104
0.8733249521
0.9413964553
0.9786076984
1.026406221
1.102317026
1.157846416
1.157406068
1.157036845
1.156787561
1.155694698
1.155544307
1.155126317
1.154719563
1.154847865
1.154416856
1.154236343
1.154491784
0.5183710859
0.5117632072
0.5743450228
0.5269435309
0.5383889904
0.5993028399
0.5911792143
0.6149896549
0.6753795905
0.7061883505
0.7450969268
0.8093624824
0.8918471034
0.9540650455
1.025991628
1.02217219
1.156697601
1.156061043
1.155607471
1.154805161
1.154682276
1.154215653
1.153829765
1.153956088
0.2986018835
0.2972373471
0.3462530718
0.3173342459
0.3313429275
0.3771811918
0.3886982703
0.4126420421
0.4581275676
0.5005975117
0.534531387
0.5811146445
0.6598932774
0.7107422186
0.7628430518
0.7924841647
1.029698522
1.146630042
1.156974708
1.155499871
1.155032199
1.154435256
1.153673003
1.153710954
0.1392219821
0.1399527052
0.1731662513
0.1697267664
0.1863642988
0.2172562988
0.2491012886
0.2734500873
0.3029758045
0.3570759591
0.3891066447
0.4196252314
0.5028421924
0.5480371141
0.5825557579
0.6372647073
0.8442020178
0.9274851253
1.029360462
1.156911593
1.156038339
1.155153098
1.153887429
1.153682129
0.0509151349
0.05112328935
0.06271055171
0.1650294918
0.1888893224
0.2052686933
0.2687317196
0.298695101
0.3163267244
0.4026262978
0.4432255805
0.4645509486
0.5447470361
0.7244835361
0.7789958533
0.8842442964
1.072980413
1.133885649
1.156331717
1.154493859
1.154094016
0.05484284644
0.0631259396
0.06389737319
0.1311635211
0.152534207
0.1574649576
0.2249295891
0.252312879
0.2603354989
0.3470057498
0.3839579234
0.3951915369
0.4949583472
0.6466335476
0.6794435528
0.7958391847
0.9763401756
1.019904942
1.157869432
1.155440592
1.154872429
0.06856631519
0.07428581958
0.07167736766
0.1330607295
0.1512527581
0.149336964
0.2155721206
0.2404058759
0.2406190129
0.3266902455
0.3607424947
0.3638460345
0.4780587249
0.6110000913
0.6238693522
0.7471172384
0.9131864331
0.9405099878
1.099218534
1.156641999
1.15596505
0.09422660984
0.09850394831
0.0950475177
0.1527458196
0.1695416573
0.163558278
0.2285138059
0.2515380642
0.2467850175
0.331933778
0.3637065605
0.3613705603
0.4823920496
0.6068599549
0.6056990164
0.7318873767
0.8815260095
0.8937364916
1.048634537
1.157997674
1.157256301
0.1271426967
0.1319662616
0.1277495709
0.1845797113
0.2011259626
0.1920364666
0.2581887815
0.2803798382
0.2713789121
0.3581585901
0.3887387367
0.3806562014
0.5113401758
0.6291879267
0.6149787969
0.7453140414
0.8793327056
0.8775071384
1.026204407
1.159443847
1.158656161
0.1595952364
0.1673423279
0.1624505441
0.2290879467
0.24646271
0.233457371
0.3059479394
0.3285518911
0.3143342513
0.4058848453
0.4357546355
0.4215828394
0.6485094924
0.8892669041
1.160111792
0.05247048708
0.06954326886
0.06748890127
0.06061546421
0.09193235208
0.08897454889
0.08363567522
0.1232321182
0.119096486
0.1147321976
0.1366373685
0.1363095257
0.1330615922
0.04568564652
0.04506791691
0.04548386233
0.05557427655
0.06799784086
0.06722792523
0.07699305693
0.07711512415
0.0621476251
0.04916718052
0.04771414258
0.04692618359
0.06620956798
0.06542205495
0.05650053918
0.11056278
0.1085847672
0.1095403265
0.06387092115
0.07893684448
0.07869182297
0.136977293
0.1586748209
0.1544812153
0.1522140429
0.02370848805
0.02726344964
0.02740071863
0.1275274855
0.1277637366
0.1264796181
0.1382368805
0.1361592751
0.136036013
0.115997438
0.114633354
0.1129610797
0.1247111772
0.1236984654
0.1229565117
0.02654255939
0.02274232065
0.0204760065
0.02018536219
0.02003936614
0.02381498413
0.01022399595
0.01179387941
0.01202158969
0.07085726128
0.07078334135
0.05919134387
0.06024907752
0.07227439072
0.0726010776
0.05464291138
0.05367964459
0.05645835459
0.0609841875
0.05734088315
0.05628596666
0.06636772894
0.06752625074
0.08149325118
0.03942357844
0.0531400741
0.05120993086
0.06589525966
0.06375885344
0.05236150765
0.03784092686
0.03675137072
0.03679344396
0.04033705622
0.0406076186
0.03989073843
0.08410174932
0.0839605889
0.06932956662
0.0726842519
0.085959998
0.08611134755
0.05891305254
0.07019128047
0.06776807454
0.06585346127
0.06787840943
0.05967808102
0.1358475361
0.1416418489
0.1395380696
0.1572151144
0.1502774596
0.1544804954
0.05252406153
0.04781641646
0.05623616629
0.02774233993
0.0282731505
0.02499472222
0.1334000782
0.1318216959
0.1328198716
0.0321232652
0.03304832048
0.03665507134
0.01228400501
0.01264387711
0.01156479758
0.9955777451
1.052600624
0.9215903428
0.981415067
0.9892613723
0.9691526779
0.9813151328
0.9122832892
1.076819056
1.035727236
1.026534064
0.9248729684
0.9869024213
0.9715558699
1.022128688
0.9942473348
0.936168599
1.094724582
1.04660219
1.081869514
1.009589295
1.079114707
1.036238197
1.157391813
1.099347688
1.037989318
1.157634044
1.155740129
1.157820829
1.158099677
1.157674735
1.157997621
1.157087377
1.157376432
1.15777665
1.15685775
1.157092921
1.156846984
1.156775666
1.156573176
1.156837881
1.15613436
1.156353879
1.156499938
1.156206902
1.156259547
1.156075158
0.7287276328
0.7983302644
0.6409631958
0.7110558945
0.718630901
0.7117975785
0.7087763934
0.6415232492
0.8434208922
0.7765714633
0.7787359059
0.6628159436
0.7282803363
0.7180245543
0.7592383307
0.7416671053
0.6764927242
0.8731901404
0.8077179542
0.8257657088
0.739065191
0.8054231159
0.7799252153
0.8682228167
0.8341763583
0.7670350618
0.9714799704
0.9029070814
0.9391475985
0.878283238
0.95104438
0.9061377393
1.056905729
1.000248212
0.9255189154
1.151749142
1.077179255
1.135291093
1.10628289
1.157834881
1.116104977
1.156905537
1.15736298
1.157779466
1.156707364
1.15698219
1.156624
0.4688788469
0.5310466394
0.3977738638
0.4527567704
0.4589035203
0.4601940364
0.455257439
0.3995698725
0.5763427535
0.5142976108
0.5190484731
0.4268369831
0.4808812521
0.4688435181
0.5137651121
0.4958234556
0.4423202018
0.6133415169
0.5528903084
0.5705447311
0.5052687903
0.5582687992
0.5345634873
0.614986109
0.5849181977
0.5319629241
0.7027274235
0.6418646336
0.6721384033
0.6299146374
0.6874771288
0.6498999033
0.7735373965
0.7272328163
0.6708331565
0.8547932947
0.7892429512
0.8370449068
0.8209272778
0.8851598937
0.8277841293
1.021557737
0.9478880965
0.8815483781
1.094754965
1.019842471
1.092779836
0.2575562572
0.303359859
0.210479717
0.2518198464
0.2524496113
0.2629312995
0.2548954283
0.215007232
0.3472739021
0.299019475
0.3065103514
0.2506722836
0.2891836847
0.2746465462
0.3260208156
0.3063447314
0.2688637153
0.3935502656
0.3479240518
0.3670161733
0.3353046562
0.3716030536
0.3479432161
0.4271169146
0.3978051969
0.362064893
0.4842339958
0.4383579347
0.4673749087
0.4536786127
0.4918392819
0.4588755133
0.5700052468
0.5286473189
0.4899414206
0.6186123452
0.5713693702
0.614233037
0.6212570036
0.663662555
0.6143677771
0.7779557891
0.7181999694
0.6746224631
0.8213227895
0.7673524368
0.8279693513
0.1144286042
0.1426066847
0.08043620235
0.1102393992
0.1087309835
0.1270435379
0.1173978962
0.09253071338
0.1783398199
0.1455695239
0.1559999723
0.1347794816
0.1594940983
0.1416867418
0.2000597127
0.1786535147
0.1555596356
0.2356568637
0.2052146585
0.2261057735
0.2246520031
0.2472292558
0.2230558266
0.3008032374
0.2730687798
0.2503990574
0.3290424485
0.2991700794
0.3269919036
0.3378264523
0.3616269541
0.3303477327
0.4330822638
0.3958477586
0.3711120487
0.4550585108
0.4237843095
0.4614666061
0.4889310745
0.5161250771
0.4729627199
0.6203399041
0.5650680325
0.536359319
0.6341202871
0.5982653417
0.6537262527
0.03227319853
0.04123939972
0.04053876251
0.04763509582
0.04329094028
0.03538779486
0.0646243524
0.05322460241
0.05779233906
0.1650771817
0.1755283302
0.1521529885
0.2264171661
0.2003917001
0.1894438653
0.2307634077
0.2140184286
0.2403737933
0.2707441936