/*--------------------------------*- C++ -*----------------------------------*\
| =========                 |                                                 |
| \\      /  F ield         | OpenFOAM: The Open Source CFD Toolbox           |
|  \\    /   O peration     | Version:  v2012                                 |
|   \\  /    A nd           | Website:  www.openfoam.com                      |
|    \\/     M anipulation  |                                                 |
\*---------------------------------------------------------------------------*/
FoamFile
{
    version     2.0;
    format      ascii;
    class       volScalarField;
    location    "0.36";
    object      p;
}
// * * * * * * * * * * * * * * * * * * * * * * * * * * * * * * * * * * * * * //

dimensions      [0 2 -2 0 0 0 0];


internalField   nonuniform List<scalar> 
3019
(
796.7617466
795.9202768
793.8107507
789.3673843
782.8439727
768.9033062
745.8400293
708.717713
652.6348392
571.4478815
460.2639641
318.0863053
797.2913941
796.7818278
795.3352798
792.1242597
785.6359346
773.8632004
753.5590169
723.5936877
673.465663
598.610047
492.4916634
351.8210103
798.5158352
798.7430482
798.8495513
798.19601
793.9355611
786.9503875
773.2709523
747.8506304
706.5170444
639.8041976
535.0219201
382.384394
799.849487
801.1180663
803.4673332
806.3416753
805.9185671
805.7943582
802.1742717
786.8297849
761.3092049
708.0146682
605.8514513
435.0708347
800.2309507
802.6871737
807.6077755
814.751341
818.6436035
827.6600935
836.7039224
837.3687387
834.518626
808.857104
729.6669555
541.9690198
798.4849564
802.1227831
809.5639595
821.0361936
830.4081199
848.8769045
872.2924084
891.6636352
922.6375599
951.2271723
944.3003706
790.4326172
793.4898767
798.1567576
807.7529583
823.0196498
838.0392361
865.1188776
901.8212972
940.739012
1009.716173
1111.312019
1256.869352
1392.938497
784.2783697
789.6894953
800.8317725
818.7573814
838.8135521
872.1981774
918.3179651
973.6052563
1071.574223
1227.702277
1495.218188
2031.187282
770.1213708
775.8943917
787.7708815
806.9377607
830.704044
867.2105349
917.5746738
981.7486781
1089.650606
1249.532827
1474.786544
1739.064804
750.625202
756.3392569
768.0590256
786.9229535
812.8287985
849.0428031
898.2901103
963.4854646
1064.450894
1199.861938
1354.220784
1485.789471
725.7835292
731.0491047
741.7794719
758.8486407
785.4391964
818.3507083
862.2255431
922.5954896
1008.791414
1115.818355
1227.065389
1321.714686
695.9476032
700.4385744
709.5734533
723.3431992
750.0746652
776.9112822
812.4790472
864.1167255
932.1523299
1013.298486
1099.573134
1196.775346
1784.251828
1510.508054
1338.933617
1212.643327
1998.903186
1386.215071
1497.254335
1708.228322
1258.523987
1328.80135
1473.290353
1416.933213
1445.957962
1535.171984
1132.249958
1199.11209
1311.298331
1273.921601
1308.747221
1357.7938
1182.922832
1138.553804
1196.064407
1252.404572
2223.75628
1835.144976
2752.634814
2303.874995
1546.981379
1632.821013
1593.669982
1635.031516
1550.041488
1801.340595
1649.54873
1366.060122
1434.123518
1395.870452
1440.244813
1367.307475
1543.887019
1446.810952
1256.379698
1305.994514
1258.713473
1309.081284
1260.372832
1362.89952
1311.586153
1192.083361
1129.051566
1197.145453
1256.285586
1201.17545
1496.651557
1746.562457
1920.022642
1978.340588
2263.456621
2607.763067
1625.397174
1647.875605
1804.310713
1837.766519
2194.690369
1932.911959
1917.371115
3631.608056
3063.938209
1991.356238
2722.652441
1222.358965
1194.857394
1169.903674
2235.504538
1950.599059
2020.281794
1961.437328
2259.326949
1779.362103
1931.165257
1965.68959
2642.557092
3007.449577
3476.323741
2321.608764
2907.852416
2561.604813
2944.152709
2308.305688
1594.07362
1640.189674
1588.150244
1721.60258
1691.804293
1768.883505
1643.359241
1684.116123
1700.806905
1402.788047
1397.518966
1499.373535
1492.199723
1287.173543
1283.634666
1335.573597
1332.21169
1161.088544
1229.355463
1226.239194
2718.182271
3598.140184
1330.165947
1312.999134
1291.452878
1344.540177
1320.546634
1333.84589
1226.248981
1202.812405
1225.749331
1392.417213
1379.985406
1353.00746
1372.828529
1383.800896
1379.435221
1280.35831
1256.095081
1233.897084
1284.469318
1263.332694
1283.855942
1300.991425
1313.867677
1318.384521
1272.067229
1289.004893
1271.756661
1350.838121
1355.189457
1368.674612
1319.502367
1324.904131
1319.553433
1243.667689
1250.754466
1268.607645
1230.225698
1211.992669
1851.861287
1830.526353
3512.468168
3416.827435
2091.556453
2053.081812
2065.346695
2098.876132
1994.543022
2275.105732
2138.606075
2106.775623
1837.198087
1865.236761
1808.579602
1964.358798
1887.22286
1859.255443
2539.788385
2501.699461
2330.234711
2632.84844
2536.531477
1613.755568
1615.212151
1600.786628
1639.871201
1621.322637
1621.575636
1581.007073
1568.30562
1597.413402
1584.972619
1719.513816
1739.183962
1707.59875
1792.892165
1751.28248
1729.443881
1662.207744
1666.884758
1646.036152
1698.41
1674.411568
1669.981214
1421.987183
1407.362932
1445.548389
1426.094142
1384.809846
1374.939489
1401.695241
1387.917506
1534.518653
1511.620082
1563.077738
1542.104312
1473.170454
1451.26832
1503.963835
1481.027954
1296.619237
1310.388471
1297.830565
1315.65062
1298.701434
1321.122566
1319.710454
1295.688628
1274.377313
1289.507873
1292.992597
1341.702629
1350.852949
1346.55856
1353.603156
1344.139933
1370.685085
1357.197172
1325.598245
1321.407742
1337.759961
1327.820182
1322.482371
1327.341314
1337.513988
1238.064236
1246.292148
1239.687635
1216.002026
1234.777972
1236.783574
1484.085226
1465.573645
1431.304925
1513.349155
1477.3945
1497.141203
1420.350969
1389.585267
1402.083076
1423.454904
1426.148812
1444.649814
1450.66341
1471.523384
1465.453164
1889.21179
2178.861006
2240.41159
1983.953597
1993.527817
2007.78523
1975.379055
1791.323296
1806.605072
1791.011162
1945.149461
1917.456537
1903.708178
2762.463679
2567.71998
2626.206024
2832.162067
2834.662786
2980.813119
2300.124483
2362.380674
2376.054232
1602.774408
1602.010743
1604.345978
1639.5767
1634.224734
1635.305263
1583.451687
1580.969239
1602.732837
1597.81372
1702.084958
1706.936672
1697.494278
1777.020432
1763.209646
1756.196126
1646.916113
1649.209837
1644.182684
1689.354658
1682.98372
1679.726811
1406.333451
1421.197594
1417.624863
1384.079341
1387.483913
1401.149289
1508.590803
1530.561332
1518.870694
1525.297953
1517.08187
1577.23972
1569.690094
1457.982094
1508.94731
1500.895016
1472.568867
1478.972193
1501.189539
1315.940847
1311.527492
1309.026904
1275.987345
1272.845273
1268.541296
1281.749672
1277.826977
1282.116643
1203.879119
1198.89332
1256.641151
1254.401557
1249.322824
1264.49748
1259.767457
1263.307411
1213.386331
1210.935092
1223.214618
1207.959599
1214.385773
1869.624295
1804.749974
3961.84838
3830.792376
3282.85216
3139.609526
3662.408323
3453.13258
3577.797147
2133.262021
2017.814259
1847.572323
1825.057659
1809.583915
1880.506791
1892.730567
1869.900969
2617.703979
2713.872197
2733.078715
3002.636087
2874.929354
2450.970009
2436.410431
2524.373764
1614.735752
1609.643757
1608.453983
1629.054591
1628.059031
1621.423698
1587.905187
1585.589222
1593.463534
1590.433279
1726.157037
1716.443514
1711.186931
1742.076709
1749.544246
1737.025712
1663.317581
1655.74407
1653.472717
1675.625037
1677.128552
1670.68093
1417.703653
1418.977624
1422.292134
1408.488311
1414.406851
1412.813775
1438.138596
1436.137922
1445.662999
1424.841851
1428.797935
1431.247244
1381.862222
1383.500515
1385.579392
1377.464052
1380.87449
1378.631964
1396.36049
1396.067043
1401.986369
1387.748555
1391.150322
1391.704986
1541.918398
1533.672462
1526.946287
1530.573753
1538.469967
1514.584052
1522.566473
1519.297834
1559.559285
1550.158034
1477.3656
1470.256093
1465.413671
1467.775083
1475.226299
1451.999396
1453.456927
1456.517665
1496.324581
1498.810479
1506.671359
1483.26284
1491.020117
1488.692477
1493.056197
1485.294364
1300.634944
1297.486179
1293.461757
1305.776024
1301.766323
1305.549948
1308.911595
1302.768967
1321.140152
1320.81253
1294.064988
1285.346019
1281.067888
1281.633541
1282.234536
1289.560776
1286.323074
1290.886684
1342.321487
1345.93642
1356.159275
1346.524963
1366.091979
1367.863168
1372.908381
1359.460328
1363.435497
1361.676436
1323.626699
1322.191149
1332.94063
1330.074842
1240.239373
1238.495378
1235.879262
1245.064889
1241.544884
1242.977199
1236.290387
1230.235831
1227.148516
1233.764933
1232.043791
1236.468409
740.2013111
709.2673505
688.6587171
696.0230574
647.0193791
620.7093737
626.5590177
552.2930584
522.7969889
521.888803
414.8728452
390.2791569
373.1856883
775.8585182
755.122403
718.9380141
745.7253509
706.3858346
659.5613408
688.4208139
615.7477844
565.6908753
584.3782376
466.2500049
425.1259264
418.6682261
824.014903
818.5019236
769.5155553
814.5343494
792.2312445
725.0844485
779.9487078
721.1107964
637.1713899
691.8376158
564.4628566
484.826018
506.7658811
878.2096162
894.75953
836.7171306
900.001031
911.234593
818.6816842
912.0608334
895.6629486
757.1359358
879.9971005
772.2712042
602.4699484
706.3800211
929.548079
972.4040801
914.6239401
989.3172493
1049.220568
945.3103282
1072.463472
1149.419651
953.079756
1174.861309
1217.083476
855.0638629
1192.535508
967.5255793
1032.866333
989.8233106
1059.937138
1162.945247
1082.190757
1206.662467
1380.686363
1216.404505
1459.196742
1892.435747
1375.232687
1662.985275
1749.830298
1267.698579
982.196283
1057.992122
1042.833118
1089.152426
1205.114815
1181.172841
1252.565565
1427.149992
1412.217068
1511.210002
1608.118927
1592.887721
2034.96394
2159.21317
2163.939305
970.3545884
1044.529991
1058.493996
1073.980542
1177.397632
1203.60967
1216.585599
1343.387994
1412.787223
1447.715082
1504.084487
1540.664765
1697.682481
1716.913072
1763.557609
934.6795353
999.9441064
1035.949616
1024.999268
1108.829418
1163.101431
1138.882382
1229.765792
1316.015123
1322.137804
1354.835913
1390.900067
1462.019997
1470.773392
1506.727911
880.1409385
933.0948033
984.9992297
952.9319426
1017.644027
1087.739734
1040.400338
1109.477175
1200.298494
1195.690536
1220.037325
1252.630467
1305.230732
1315.314322
1339.513818
913.6776626
992.1995313
1077.852945
1065.932845
1084.191593
1121.769378
1180.537539
1195.208485
1218.904692
1816.483153
1875.809021
1832.850428
1519.114976
1557.799443
1536.63554
1348.024581
1374.996375
1356.987663
1226.658435
1249.183181
1228.202252
2581.230513
1957.921179
1761.634639
1192.038957
1734.276676
1427.96073
1465.898577
1417.671345
1576.520357
1511.308885
1448.304339
1602.2581
1536.32363
1606.197092
1285.795568
1319.810593
1290.205238
1385.999098
1348.924554
1296.819875
1426.128116
1368.924251
1406.626975
1425.577859
1459.042659
1439.055109
1458.327832
1453.608956
1441.729038
1527.784431
1515.593825
1522.861378
1155.074559
1187.66593
1164.180471
1246.415625
1212.490507
1164.569053
1278.515263
1229.973091
1262.159388
1285.499601
1307.617628
1289.356082
1317.26008
1309.468647
1303.082679
1353.786143
1345.64542
1349.658232
1146.791748
1094.785806
1131.801815
1161.649149
1187.088755
1163.838695
1207.7347
1195.119289
1182.533063
1241.048245
1233.308165
1240.330121
2149.166922
2139.873597
2269.63555
1814.715608
1872.206226
1873.729572
2746.692729
2908.977419
2924.323335
2334.684249
2436.463455
2388.374241
1581.28086
1563.16269
1525.527045
1621.159462
1576.318478
1593.00714
1564.361289
1571.904197
1605.718953
1621.520559
1620.907509
1639.919141
1563.015788
1577.200789
1566.266487
1771.556705
1756.060584
1798.644828
1646.392464
1668.147851
1665.239835
1374.47338
1370.723335
1362.13913
1430.24676
1419.218989
1422.857368
1375.932957
1384.545878
1414.807886
1434.819609
1435.925258
1441.912484
1368.981095
1373.036293
1371.132769
1525.754561
1537.755426
1557.550912
1448.047251
1454.400859
1452.534427
1267.430968
1255.991307
1248.6743
1296.801015
1290.444018
1297.385121
1243.52893
1256.586472
1278.257467
1306.5427
1309.966515
1312.189337
1264.588106
1269.00845
1264.5151
1359.048483
1360.673577
1364.862999
1314.373923
1316.635457
1314.132338
1178.152153
1152.803775
1192.483985
1196.516504
1201.350548
1252.140518
1255.957561
1260.356803
1206.112857
1208.062497
1204.062691
1573.624381
1598.563751
1510.13557
1863.537791
1678.932415
1627.183606
1671.443389
1691.932312
1895.236908
2071.558005
2127.248957
2014.60759
2471.61362
2234.058013
2127.77674
2335.695075
2259.036086
2531.855418
1639.018935
1675.752951
1659.918874
1701.327347
1695.324822
1639.85284
1792.498276
1719.251331
1723.121613
1962.560485
1922.300971
1823.757253
2083.050459
1961.794425
2013.568591
1883.322969
1939.99435
2006.28231
3623.668862
3817.646055
3809.49632
3120.210749
3260.752738
3187.649821
1770.181748
2415.639528
2330.405471
2446.58195
1846.729211
3339.886305
2691.549942
2449.11942
1210.630378
1203.011069
1211.662004
1186.780233
1194.803279
1202.698486
1178.197882
1186.639727
1178.47487
2000.578452
2101.837336
2081.220104
2272.699904
2217.452413
2204.25603
1917.035654
1894.078348
1971.275075
2763.325447
2850.100416
2707.299502
3301.067901
3017.070745
2823.732499
3130.526572
3105.843493
3376.085603
2388.076805
2393.632409
2331.231304
2860.503216
2777.049214
2812.984665
2475.235787
2546.129352
2658.718632
1599.330733
1614.896232
1608.885518
1572.080932
1581.663217
1595.097596
1710.932658
1743.758324
1745.079007
1682.22237
1675.860496
1701.453051
1403.896933
1408.884337
1407.363856
1393.151668
1394.216662
1398.981079
1502.269314
1509.176969
1505.62764
1485.940963
1488.39825
1495.339455
1290.356214
1294.164152
1290.788395
1280.336195
1283.385801
1286.661148
1337.686664
1340.85529
1339.202926
1328.884823
1330.801284
1334.339112
1169.712283
1232.741234
1235.697745
1232.58574
1223.114855
1227.419161
1230.034197
3046.729068
3248.780635
1323.136611
1316.139825
1320.315117
1305.670037
1311.015127
1318.164949
1297.322056
1304.076349
1298.490396
1336.31735
1341.132478
1349.305647
1325.554752
1333.197491
1328.309411
1341.828608
1337.756576
1330.219434
1218.506998
1225.922524
1233.628986
1210.459441
1218.181457
1210.680392
1236.431832
1225.625027
1218.095068
1388.911073
1379.629882
1383.212489
1370.70655
1375.34541
1384.637675
1357.718677
1366.376504
1361.709366
1376.682124
1374.845521
1370.874158
1382.543587
1378.700164
1380.293087
1375.56596
1377.050916
1381.0982
1270.014951
1263.027622
1270.560375
1248.799362
1255.877297
1263.036726
1241.229316
1248.631498
1241.399414
1277.503164
1283.941331
1290.641066
1270.139857
1277.115671
1270.460334
1294.192352
1283.85561
1277.00384
1304.828346
1307.55981
1303.872629
1315.299632
1313.53861
1317.32425
1268.482629
1273.394118
1276.59606
1352.291687
1356.469542
1354.630545
1359.830847
1358.144487
1353.776598
1366.744515
1362.473924
1364.287223
1320.906069
1318.929104
1317.039667
1323.46435
1321.066794
1322.714965
1316.780526
1319.051209
1321.640164
1246.739254
1251.299535
1247.882737
1207.495239
1209.431214
1216.402084
3653.698027
3757.400188
3582.330073
4021.647188
4034.439341
3307.545578
3395.626943
3528.904825
2080.211544
2042.597227
2027.939396
2061.678829
2053.676174
2091.563904
1985.934047
2018.570694
2027.017413
2225.643283
2224.78788
2276.632275
2132.498723
2176.781565
2180.899753
2153.115632
2166.749717
2121.253164
1844.674642
1836.629966
1857.398877
1800.64479
1817.536545
1825.743361
1936.474192
1927.702306
1955.596491
1879.138766
1902.371043
1910.895567
2533.779498
2461.141802
2459.695098
2444.618922
2453.207444
2520.053504
2331.431819
2390.348972
2382.328637
1609.624712
1609.474547
1615.243109
1601.834459
1603.963136
1604.689373
1633.733114
1633.996454
1639.777262
1621.536452
1627.855672
1627.5348
1577.034415
1581.389483
1584.625052
1574.221889
1578.029835
1572.86842
1593.47843
1595.836984
1599.724949
1587.902437
1591.563099
1589.146367
1727.967596
1722.903926
1733.532371
1703.368875
1712.889318
1717.484706
1778.210394
1771.354085
1785.512215
1745.128883
1757.812602
1764.331639
1659.520767
1658.114196
1665.382817
1645.398683
1651.376383
1652.542796
1689.950897
1686.965069
1694.659048
1672.709327
1679.835312
1682.057211
1556.875434
1562.932096
1569.45842
1546.43256
1554.806596
1549.704433
1294.396505
1298.025362
1301.651362
1278.238574
1280.186834
1277.167702
1343.563722
1342.413921
1339.81436
1349.659802
1345.510285
1344.968221
1343.009879
1344.388477
1348.285345
1324.415365
1327.442199
1325.598316
1329.987247
1329.019732
1326.091245
1336.345128
1332.466142
1333.225544
1236.007857
1238.964859
1242.611739
1220.759761
1224.54898
1219.787784
1478.198673
1465.802003
1471.097675
1453.961841
1460.020207
1472.001477
1436.706015
1448.225538
1442.513623
1501.311381
1508.468788
1520.562992
1484.129775
1496.3003
1489.295046
1510.120471
1503.199845
1490.701171
1409.749775
1414.695348
1425.504638
1394.282597
1404.284456
1399.485552
1412.19587
1408.668893
1398.584883
1424.42933
1430.042895
1428.5737
1431.757813
1431.160705
1425.503978
1443.348113
1437.214711
1438.17024
1457.051816
1455.965507
1449.478936
1469.736378
1462.796972
1464.274773
1459.446399
1461.004797
1467.718346
2699.627751
2736.115699
2809.355815
2590.17859
2663.341671
2630.597778
2719.000822
2693.65516
2611.553367
1411.474123
1410.251874
1405.213891
1420.276138
1415.257117
1416.420138
1412.853579
1413.942431
1419.08004
1385.272517
1389.631032
1388.167323
1391.611368
1390.802587
1386.531492
1400.216375
1395.377827
1396.183154
1515.974467
1512.58189
1505.45587
1526.640569
1519.652098
1523.307692
1512.706175
1516.020867
1522.799966
1474.570909
1481.4646
1478.754554
1486.382048
1483.976479
1476.840583
1498.299322
1491.136618
1493.788262
770.2764782
760.5433835
758.8179698
747.9856686
731.6334515
729.2610878
711.4834926
686.6523617
683.4364269
656.2994146
619.614683
615.5399997
575.8500127
524.3951852
519.7981911
464.8500972
397.1789258
392.8699615
321.8202207
239.7646849
236.9024895
789.041932
785.1584682
780.5921565
779.5611982
772.0719359
765.0091577
762.1222875
748.3589696
733.5392023
728.0747088
717.8849614
713.5735678
679.566358
663.7581704
658.0033644
606.0333863
582.7403028
575.9089669
500.3775183
468.0397536
460.9462643
358.1496274
316.3037781
311.264005
799.7348492
798.2529269
791.1076105
795.7941323
792.0893801
781.1804157
786.7807938
780.7910778
755.3146105
756.3328184
748.6793777
739.4613759
718.2655251
705.2728524
692.7053949
654.4767835
632.7858791
617.8877338
549.4031448
515.2220931
501.5465685
392.7413806
345.8332768
337.3134209
812.4535139
814.5270985
806.0897141
816.5697668
818.1131592
804.543338
819.0212115
824.5617433
790.7697297
798.5210837
794.9217041
782.0666507
777.9786973
769.3169683
751.3907234
729.6602958
710.6813669
687.9036309
630.5488775
594.6304736
570.1757301
454.5752411
397.0401883
381.0005445
825.3772619
831.5099423
823.0270075
838.626165
846.474976
832.2770162
854.6214585
872.6883756
836.3831357
850.9561115
853.0920264
837.8154721
855.7368177
854.549041
831.0484785
840.3872762
830.4648332
795.8350871
773.1590425
740.9618031
695.4388088
585.4077464
509.9508106
471.5904504
835.7208817
845.7821264
839.108756
857.8904852
872.0683042
860.0098276
888.3643122
917.8497763
884.4016495
904.8791637
914.033689
899.0354124
945.3041948
956.648842
930.5697159
991.4519189
1001.835699
955.1661558
1015.567148
1008.310048
927.2371519
896.1389439
804.3205128
700.3742455
840.3843407
853.7765375
850.6888454
870.0347998
889.2621364
882.0134638
912.0354083
950.1701179
927.3380128
950.9449353
967.4588891
955.5036403
1028.514053
1053.519026
1031.620752
1147.530486
1186.521701
1143.340559
1334.940956
1397.953842
1299.65971
836.9258152
852.4336889
854.2830905
871.3313596
893.7020307
893.2913888
920.2740894
962.0072873
955.1954681
978.0360552
999.5031007
994.2062474
1080.177563
1113.783156
1103.826646
1242.096158
1296.488551
1280.718778
823.9560568
840.1175168
847.6230624
859.7649282
882.8838121
890.2578726
910.1850905
950.0185333
961.0442091
979.5675658
1002.51059
1004.796735
1086.674788
1120.569063
1123.997464
1242.054868
1289.319109
1299.683278
801.1250156
816.5443767
829.6711113
835.163875
856.8504439
871.6854175
882.1785364
916.2594647
943.3464948
955.209497
976.7150217
985.552292
1052.984023
1082.406446
1095.19231
1181.131116
1216.509165
1238.014641
769.2923244
782.7044188
800.8287383
798.8265435
817.4077186
838.6536985
838.8454913
864.8394478
904.8140265
909.4217442
927.8337731
941.8836069
991.3020274
1015.023307
1033.963256
1091.672181
1118.164748
1144.231137
762.5286957
793.4773721
849.7446889
847.3399698
861.8021615
879.6131611
910.5131969
928.3442155
951.4805417
985.2522595
1004.994816
1034.689125
2129.099454
2055.699984
1939.275691
939.2497548
1071.334826
1522.30853
1505.919406
1482.039066
1674.576538
1643.237508
1671.936762
1347.064772
1336.856089
1318.77659
1459.071387
1436.926843
1450.254438
1215.01961
1203.031739
1186.833162
1301.258183
1284.252901
1294.455737
1311.499455
1308.661345
1306.025844
1170.393849
1153.679412
1166.398345
1199.683976
1195.461747
1191.160003
1248.419788
1244.842891
1248.406663
1558.445839
1551.64767
1539.769246
1629.342771
1614.815609
1618.773269
1553.922331
1559.411374
1555.312466
1538.257627
1542.223515
1548.225898
1260.298231
1256.126771
1252.654587
1302.784578
1300.170997
1303.241261
1187.079273
1182.89005
1187.677634
1136.729971
1786.350689
1738.908962
1706.695521
1829.27452
1835.128336
1927.07523
2334.511825
2277.842687
2218.909526
2483.712656
2493.516036
2608.828896
1664.111034
1662.068032
1645.006704
1804.06711
1774.72792
1774.280562
1875.021979
1871.756522
1836.272176
2160.334791
2103.995849
2129.9255
2890.525556
2804.332565
2657.713559
1218.271614
1215.07032
1218.968883
3110.475828
3037.888477
2946.737268
3306.44655
3314.747712
3462.745283
1595.842218
1601.798771
1598.391129
1583.036754
1585.296513
1590.406991
3755.823714
3646.709843
3498.148101
1328.156886
1324.893937
1326.806763
1338.013106
1334.307123
1331.739905
1229.170494
1225.403885
1222.185778
1276.793893
1273.718395
1276.998968
1287.355475
1283.740485
1280.6088
731.2035546
723.9402025
733.4724099
700.7924897
712.832572
720.7410392
701.1846155
706.4959141
693.7181822
681.5696095
671.8530745
686.8673176
636.1231472
654.6153324
665.0069813
639.5658409
646.3922566
627.0774475
604.4203685
592.571816
615.0514638
540.2048859
567.1680653
579.349055
549.7937066
557.6013574
529.9276881
489.3109872
478.0625906
509.9467336
405.5144862
442.6291059
453.1429766
426.4310643
433.8982035
396.7442331
329.8667561
323.0290081
364.8948378
278.0228767
283.5142581
269.2545814
273.6245878
770.0264125
758.8797473
765.6734166
741.8589777
750.9580269
763.1469484
729.7698866
739.8274973
729.7907444
734.7261473
719.3119855
731.3393176
689.2838481
705.3735651
721.6929856
676.976061
690.4325505
673.6870761
667.5372852
649.2662179
670.6303969
596.9677271
624.7252479
643.347128
593.0616352
608.0961598
580.4528849
549.1250509
530.9432471
565.687922
450.4126928
492.4489904
509.7214348
464.6397169
477.5596062
436.8310061
367.430437
355.7921941
404.7088946
303.4625902
312.5428195
289.4059166
295.8961128
822.9549182
808.5390291
810.9042599
801.2634182
805.4283079
821.2255657
776.3392394
790.4624167
784.9347817
809.084792
788.5330508
795.7299973
767.8650094
779.3660293
801.7981846
739.4102318
758.5979738
745.5196153
764.4381744
736.1193427
753.5863716
689.416445
714.9110505
745.051328
664.3774986
688.1297013
661.5896345
656.4696392
623.1448751
659.0105057
532.9907823
581.2579695
614.221364
529.8448612
553.4358808
506.7934356
441.031497
416.5937302
478.0911065
349.1963425
367.639141
323.1544682
335.0947801
883.7889627
868.4320003
864.5989913
875.038562
871.9441328
889.2947956
837.8881883
854.7513389
855.5822931
904.6991774
879.2474245
877.6405036
878.2961067
879.6139584
908.6232641
825.9016812
851.8443727
847.3028971
910.4244897
868.5389541
874.7691516
843.9530221
858.6218236
905.1642737
778.868974
816.6336351
797.9326533
856.0076637
794.0174944
823.0150315
704.3782476
755.3955645
821.0007483
653.386107
699.9708326
648.5083124
620.5036484
558.5022954
639.2675425
461.672204
513.3409965
391.4426316
422.0967571
942.4833203
928.6610445
917.5602367
953.7041277
940.7508646
956.8351496
906.6697464
923.8884833
934.3697518
1007.656541
982.5177658
967.6389248
1014.893286
998.3201143
1027.637438
938.2764187
968.3137876
980.0042967
1097.143317
1049.514718
1032.133322
1081.693016
1066.440924
1123.049302
955.9588184
1010.302881
1015.511725
1197.703261
1099.255314
1093.287767
1075.646125
1095.31394
1212.759245
898.8812186
990.1437872
955.3501732
1115.826692
940.0405652
1028.290812
794.4803992
1068.546957
581.5287881
672.8226096
986.9972423
978.0668788
959.9466505
1020.553119
998.1779606
1008.664761
971.863154
985.7666463
1006.021234
1090.289185
1073.381542
1045.496815
1139.843798
1104.675894
1124.441353
1055.714891
1081.403434
1112.614752
1256.562683
1224.726241
1179.587796
1335.471923
1276.148843
1313.853637
1178.382559
1230.22848
1279.567088
1552.955511
1485.092642
1404.048314
1706.203349
1584.564368
1674.194688
1341.278918
1468.888553
1542.728357
1567.23195
1580.791874
1735.132901
1004.811336
1003.203352
980.9929174
1055.522619
1027.939708
1029.981858
1017.16577
1023.440304
1050.203435
1123.792506
1120.696288
1086.309516
1202.189494
1159.171045
1162.370202
1140.154779
1151.558094
1194.076539
1305.118834
1304.475579
1250.402893
1433.535767
1365.253349
1363.191025
1341.561444
1358.430257
1429.301172
992.842849
998.4930071
975.721313
1051.143995
1023.570358
1017.522654
1030.302147
1027.866547
1055.845948
1105.953513
1114.451255
1081.385669
1189.232983
1150.413344
1140.458327
1161.805423
1157.669307
1198.153526
1257.700477
1275.03252
1230.840388
1369.297102
1321.354698
1300.178025
1354.105483
1339.695406
1392.877445
954.7836101
966.4272175
945.5771584
1013.505792
989.0547363
976.5309945
1009.672741
1000.139171
1025.55191
1051.613917
1067.819492
1039.78056
1128.561309
1097.48702
1079.634414
1128.123818
1113.718642
1146.728428
1169.395417
1193.549698
1160.721562
1258.941066
1226.49746
1199.875052
1276.959676
1252.273186
1287.752909
1482.566536
1476.317071
1465.677966
1500.627192
1489.625401
1494.648292
896.6580468
912.7124425
895.2322073
951.4493123
931.4579189
914.3171688
962.6833827
947.6301833
968.8034816
973.7310159
994.8950912
972.6288479
1042.049866
1018.099719
995.3574925
1060.355273
1039.810466
1065.449739
1063.423045
1091.229395
1066.513268
1140.29127
1115.919283
1086.513584
1172.548459
1144.571386
1170.509675
1323.162189
1317.434881
1310.166446
1333.888911
1326.232889
1331.249021
896.1460777
877.1805957
893.4301043
971.5430551
946.8202435
965.8269019
1056.241624
1024.981804
1045.26787
1203.17346
1195.331567
1188.042357
1211.240494
1204.16336
1211.123247
1356.746862
1351.16692
1343.084695
1369.379064
1360.909072
1365.760888
1234.23252
1226.759008
1219.859359
1241.94952
1235.198703
1241.791239
2371.241407
2196.729588
2293.579314
1898.816086
2057.447063
2168.507586
1858.194209
1950.869895
1828.727391
1344.376817
1235.325069
1086.273417
1650.629615
1419.361551
1521.360009
1242.345694
1466.632788
1556.956841
1530.841642
1548.672102
1465.380588
1487.834808
1467.604816
1637.934466
1613.076365
1584.340314
1374.878551
1355.563479
1366.149433
1332.043235
1343.931069
1362.696071
1307.910704
1325.66778
1312.972085
1407.632811
1422.447354
1443.545762
1382.04083
1401.924123
1386.599619
1428.048527
1415.536309
1394.867917
1436.488988
1430.359754
1420.526006
1452.815378
1442.651631
1447.701748
1235.130022
1219.110084
1230.758387
1197.385469
1208.047584
1224.269217
1175.380322
1191.779646
1179.895386
1262.948072
1273.644737
1290.580926
1240.562546
1256.987596
1245.181237
1278.118315
1267.609641
1251.27464
1292.737008
1286.511429
1279.801077
1301.693857
1294.755695
1300.1368
1314.733267
1311.942589
1314.339881
1131.123365
1141.928948
1158.801043
1106.724205
1124.662412
1113.369669
1149.372195
1136.525746
1118.791253
1170.422515
1162.759469
1153.50309
1178.994769
1171.640936
1178.926897
1203.27454
1199.64112
1203.610323
1187.008444
1192.119703
1185.295494
1244.346077
1240.563026
1236.975511
2181.031062
2179.596025
2140.838695
2259.859191
2223.92373
2224.519778
1832.437049
1837.187238
1819.648121
1876.800838
1856.777703
1851.431604
1575.618281
1563.556765
1569.799474
1550.409469
1557.015844
1569.453132
1532.633109
1544.747584
1537.832157
1607.241506
1610.195377
1625.29103
1582.206911
1595.701994
1590.694327
1605.517714
1601.090287
1588.046051
1627.157698
1626.540291
1620.504629
1639.670192
1633.19299
1633.444491
1568.015156
1563.557927
1558.276551
1573.496824
1568.60307
1572.701254
1561.189103
1564.703291
1569.899776
1769.445372
1772.685106
1759.335807
1802.61166
1787.311033
1783.455607
1653.341034
1653.677953
1646.499431
1668.944801
1660.990962
1660.466112
1394.303779
1388.523954
1379.674616
1408.823751
1399.47603
1404.435183
1529.454112
1535.968343
1531.720093
1544.808779
1540.244181
1533.529755
1552.668108
1546.658981
1551.484929
1263.287409
1260.176599
1264.06072
1300.369303
1296.831208
1294.071918
1263.839852
1256.887828
1250.236609
1271.660604
1265.05095
1271.101095
1174.189497
1178.238133
1182.446387
1144.614771
1797.891622
1770.038871
1826.149283
1917.52751
1831.385127
1819.216707
2384.761557
2333.910051
2404.871429
2206.726059
2265.644727
2304.297747
2172.289183
2220.83143
2165.606142
2342.571205
2373.902447
2266.456279
2580.237923
2470.346304
2430.936403
1701.059825
1680.713099
1681.784811
1677.004671
1678.641545
1699.206865
1641.786124
1659.399772
1655.999625
1767.678036
1771.638633
1799.888222
1721.594967
1745.536129
1740.368506
1747.351167
1747.915765
1723.398769
1953.474747
1910.726564
1916.464397
1888.323582
1900.626287
1939.993893
1830.734751
1864.322656
1853.01439
2044.192046
2074.181047
2122.623406
1981.967895
2026.910643
1999.677906
2069.457456
2050.402948
2000.036192
1952.08297
2160.480841
2223.497119
2242.727898
2429.088897
3169.129656
2973.219218
3089.9357
2625.606699
2811.670491
2942.800884
2563.105749
2680.139872
2536.655717
1215.419978
1211.019661
1207.579864
2032.489394
2034.799764
2003.91491
2102.195283
2067.688749
2065.699571
1917.970073
1922.514778
1899.320358
1974.878662
1948.069027
1943.335177
3193.644106
3125.5541
3210.406411
2886.11612
2964.756143
2869.381663
3426.653661
3290.701891
3258.327955
1604.003504
1602.796058
1597.487789
1614.078444
1608.69172
1609.262448
1575.03696
1580.173767
1577.106569
1586.20091
1583.192635
1578.339678
1592.720097
1588.017633
1590.755909
1721.289351
1723.771991
1713.231999