/*--------------------------------*- C++ -*----------------------------------*\
| =========                 |                                                 |
| \\      /  F ield         | OpenFOAM: The Open Source CFD Toolbox           |
|  \\    /   O peration     | Version:  v2012                                 |
|   \\  /    A nd           | Website:  www.openfoam.com                      |
|    \\/     M anipulation  |                                                 |
\*---------------------------------------------------------------------------*/
FoamFile
{
    version     2.0;
    format      ascii;
    class       surfaceScalarField;
    location    "0.36";
    object      phi;
}
// * * * * * * * * * * * * * * * * * * * * * * * * * * * * * * * * * * * * * //

dimensions      [0 3 -1 0 0 0 0];
oriented        oriented;


internalField   nonuniform List<scalar> 
5999
(
0.0004363800018
0.91621362
0.0005421993365
0.9165941807
0.000640218231
0.9165519811
0.0003131822305
0.9165738119
0.0004032240952
0.4583381619
0.0003250203513
0.4583042891
0.0004033919464
-0.0004076810945
-0.0005109592593
0.4582784016
0.0005825576161
-0.0006520142368
0.4582252138
0.0007618004281
-0.0008818568966
0.4581996159
0.001012240968
-0.001161356722
0.4581748872
0.001321469561
-0.001483176304
0.4581742567
0.001643919595
-0.001800211479
0.4582057013
0.0019260102
0.001199844485
0.9150137755
0.001905561605
0.9158884635
0.002179744812
0.9162777979
0.0006454306098
0.91705886
0.001049266152
0.4580560115
0.0007757790301
-0.4581863599
-0.4581651278
-0.0009568100637
0.4579375961
0.001184341748
-0.4580111759
-0.001466463104
0.4576709083
0.000848884288
0.0009578464118
-0.2289402513
-0.0010326935
0.2288503145
0.001122630338
-0.001507905434
-0.2288733097
0.2287539707
0.001627244359
-0.00211330051
-0.2288173552
0.228662378
0.002268277697
-0.002824456814
-0.2288079901
0.2286358852
0.002996561766
-0.003525051134
-0.2288686743
0.2287475294
0.003646265163
0.001518747337
0.9134950282
0.004072127437
0.9133350834
0.006902982723
0.9134469426
0.002851623577
0.9147934494
0.006316769661
-0.4579961699
0.4578008438
0.003046949767
-0.4577289142
-0.00305456754
0.4583461885
0.002437293218
-0.4572072272
-0.002559046314
0.456927516
0.001373693824
0.001465063707
-0.2284138487
-0.001708519091
0.2282241124
0.001898255355
-0.2281571698
-0.002580692697
0.2278917596
0.002846102941
-0.2279677678
-0.003215820688
0.2304401219
0.0007465521928
-0.2329087907
0.007715265023
0.2352005113
-0.009994937457
-0.2320951341
0.01485544922
0.2330504905
-0.01580252072
0.0005136027987
0.9129814254
0.00113288083
0.9127158054
0.002371315732
0.9122085077
0.0032082587
0.9117865973
0.00216990918
-0.4570282839
0.4565788855
0.003657657084
-0.4598558734
-0.004892977893
0.4567737729
0.007975078449
-0.4583481299
-0.009277447221
0.4598487305
0.002206453166
0.005570393492
-0.2275274908
-0.002224745983
0.2273048764
0.002447360368
-0.2284016996
-0.002353814849
0.2316266926
-0.0008643925833
-0.2394755552
0.009815041787
0.241992807
-0.01230239733
-0.2406712219
0.01767341088
0.2417614389
-0.01873317692
-0.2347194075
0.02005982196
0.2347227958
-0.02004838335
0.0001139117854
0.9128675136
0.0002923659988
0.9125373512
0.0006521098906
0.9118487638
0.001290960524
0.9106808729
0.0004668737973
-0.4562882896
0.4554649223
0.002114327917
-0.4553098028
-0.002569473539
0.4546409391
0.003238337244
-0.4536967192
-0.004153861754
0.4528571087
0.002640527776
0.002352944464
-0.227877706
-0.004519130756
0.2263436603
0.006053328356
-0.2409263908
-0.001521418493
0.2454083658
-0.002923875384
-0.247091072
0.01145561627
0.2479190265
-0.01223113438
-0.2419908067
0.01151526218
0.2409225864
-0.01040701644
-0.2323827926
0.005526912993
0.2306547014
-0.003783239587
-0.0001868393547
0.913054353
-0.0002640139906
0.9126145258
-7.514447512e-05
0.9116598943
0.0002140092521
0.9102089559
0.0001827632301
-0.454569989
0.4542362862
0.0005477120167
-0.454091867
-0.001538541269
0.4532878811
0.002342527138
-0.4519635986
-0.002944765448
0.4508752225
0.001993434883
0.00203970669
-0.2315149599
-0.0007773419448
0.2332073514
-0.0008968980893
-0.2462625207
0.004761733584
0.2470105757
-0.005453986086
-0.247957047
0.002995467431
0.2452867826
-0.0002657071642
-0.2345462935
-0.008941103056
0.2344178375
0.00910369527
-0.2223090499
-0.02103837101
0.2195571909
0.02379797538
-0.0006308748619
0.9136852278
-0.001120233317
0.9131038843
-0.001434190566
0.9119738516
-0.0001867763623
0.9099198939
-0.0009583521517
-0.4540982088
0.4537791792
0.0001322532375
-0.4522056936
-0.0003851634594
0.4518084155
0.0007824415378
-0.4504260903
-0.001796003967
0.4500594079
0.001092076585
0.001070340407
-0.2361845755
0.0006283558368
0.2369321628
-0.001344245433
-0.2491376812
0.002138206891
0.2466285691
0.0004407453269
-0.2399410094
-0.003020686189
0.2382739899
0.004748415768
-0.2197845901
-0.01352650589
0.2146847385
0.01864691856
-0.2089099051
-0.0370526187
0.106065567
0.1002973697
0.01763787639
0.02196171066
-0.001100594018
0.9147858218
-0.002138263898
0.9141415542
-0.002962359348
0.912797947
-0.001541611507
0.9106445788
-0.002145432787
-0.4537584246
0.4537658435
-0.001549030374
-0.4516255281
0.001604259066
0.4515222903
-0.001501021215
-0.4490377555
0.001319355162
0.4491667651
-0.0005161012298
-0.0009311185054
-0.2375540757
-6.183590031e-05
0.2372873776
0.0003685589765
-0.2449435587
-0.001957388605
0.2444253672
0.002545583321
-0.2334406047
-0.005313773927
0.2323366915
0.006473031844
-0.2061770431
-0.01023786191
0.204927507
0.01149391835
-0.09314104713
-0.007510337441
0.09307307079
0.00757831378
-0.001568370286
0.9163541921
-0.003058710387
0.9156318943
-0.004608323086
0.9143475597
-0.002693466331
0.9120233965
-0.00329367441
-0.4539975401
0.4542190755
-0.002915001729
-0.4516103346
0.003170234223
0.4518459641
-0.003405863711
-0.4492582551
0.003616858189
0.4496641715
-0.001897219855
-0.002121298773
-0.2371941475
0.002101347818
0.2370030169
-0.001878031514
-0.2422583297
0.000432661489
0.2416510009
0.0002281264927
-0.2297256144
-0.002223737304
0.2292444493
0.002745610826
-0.2044924028
-0.003222076507
0.2049560434
0.002760605941
-0.09672320326
0.0003572942487
0.09728878846
-0.000922879455
-0.002000493032
0.9183546852
-0.004108914868
0.9177403161
-0.006149587295
0.9163882322
-0.003845473976
0.9141753289
-0.004456045787
-0.4546707463
0.4551174768
-0.004292204485
-0.4521806007
0.004804064133
0.4527597867
-0.005383250138
-0.4502381682
0.005938599039
0.4511665055
-0.003227384905
-0.003635839802
-0.2365168562
0.003609287931
0.2364245894
-0.003495189555
-0.24019099
0.002567706623
0.2398111962
-0.002152773296
-0.2284497309
0.0010711882
0.2283058739
-0.0009012740997
-0.2068550061
0.001415747732
0.2075246854
-0.002084660698
-0.1000080948
0.002398640841
0.1002848938
-0.001322613557
-0.001352826246
-0.002515066087
0.9208697513
-0.005019595716
0.9202448458
-0.007665869804
0.9190345063
-0.00495954968
0.917022469
-0.005553460137
-0.4557792478
0.456437313
-0.005617614871
-0.4534273334
0.00641500052
0.4541741142
-0.00716178132
-0.4524632047
0.008025230211
0.4540252097
-0.00468127785
-0.004904250767
-0.2362923766
0.004971751877
0.2362862512
-0.004955234386
-0.238903725
0.004420644856
0.2386655289
-0.004165959111
-0.2281424443
0.003641454398
0.2281602503
-0.00364720267
-0.2095738759
0.00452338476
0.2102686611
-0.005218067476
-0.1018889727
0.003674952476
0.1020690428
-0.001912241407
-0.001942781174
-0.002982569845
-0.00598532401
-0.009118454691
-0.005967951403
-0.4572694299
-0.006787426705
-0.4551361895
0.007735943607
-0.008753572299
-0.4555980027
0.009864768528
-0.005722675268
-0.005614767415
-0.23635758
0.006140135755
0.2364161737
-0.006201414747
-0.2381058778
0.005938562154
0.2379637786
-0.005799381738
-0.2283871921
0.005615341558
0.2285070084
-0.005736492825
-0.2124699486
0.006916427217
0.213267263
-0.007713762811
-0.1032285384
0.004967588589
0.1033994625
-0.002549323643
-0.002589189054
-9.330740055e-05
-0.0005231833659
-0.09610671249
0.002213822199
-0.09971584219
-0.001239080078
-0.001266994777
0.00352850846
-0.1016956929
-0.001848644828
-0.001873143366
0.004792700594
-0.1030618649
-0.002461273653
-0.002498100421
-0.00918969159
0.009644948121
-0.09359630366
0.0004380857488
-0.001111529216
-0.2061805047
0.1003792074
-0.1000880277
0.001922642501
-0.09736594631
-0.0001264066875
0.09784964724
0.003831031981
-0.004517280341
-0.2088874216
0.10224904
-0.1020486465
0.003328114901
0.002127077433
0.1006507708
0.1010427965
0.00291748055
-0.1008070806
-0.001565897568
-0.001587298899
0.05019949799
-0.001069870774
-0.04996082757
0.001976047676
-0.001144847324
-0.04945407126
-0.0008540328763
0.001655868096
0.04949470865
-0.0008424726067
0.006356607963
-0.007130179822
-0.2116964114
0.1036707874
-0.1034927301
0.004614643283
0.003487133235
0.1024368593
0.1025797933
0.004128934817
-0.1024128026
-0.002131923421
-0.002164002028
0.02546676696
-0.001042626357
-0.02553457813
0.00111043752
-0.05017765664
-0.001019460777
0.002112239544
0.05018457301
-0.00109969514
0.00478164888
0.1038567271
0.0520438592
0.002776595859
-0.002832502963
-0.0519879521
0.0271477735
-0.002053856532
-0.02690309105
0.001809174075
-0.02638290203
-0.001042826954
0.001205869627
0.02621985936
-0.04457562711
0.001108420359
0.0451605233
-0.0008544439102
-0.0008388726349
0.0479714998
0.001624205493
-0.04760287151
-0.00106690107
-0.0009259327093
-0.004442837113
-0.04109141848
0.04112275757
0.004411498015
0.0008405544394
-0.001439807871
-0.04397637368
-0.0008194702086
-0.0494072598
0.001615688315
-0.000843029565
-0.001497580924
-0.04876177408
0.001419955056
0.04883939995
-0.09867234021
0.001567139989
0.09905290206
-0.00194770184
-0.04859342122
0.04862436403
-0.0007305441668
-0.0007979795667
0.02481022497
-0.0008250920158
-0.02480460316
0.001571087261
0.04817399548
-0.000967806735
-0.0008057762113
0.001470645141
-0.04856277191
-0.000732846853
-0.000768447597
-0.0010246508
-0.05021475507
0.002059904458
-0.0009981552289
-0.001130128192
0.001961866269
0.05033162392
-0.0009638640031
0.003074811252
0.1012764103
-0.001642199463
-0.001666225584
-0.02544621216
0.02550698647
-0.001190902492
0.02490090724
-0.0009637055404
-0.0249618525
0.02479215006
-0.0008359579652
-0.001279540107
-0.02523654283
-0.00108353261
-0.02651643787
0.001217068456
-0.001051733539
0.001127975267
0.02539052524
0.004287931347
0.1027421939
-0.002206910597
-0.002243421388
-0.02566154551
0.02551474994
-0.0009049379727
0.02699353233
-0.0008440101396
-0.0272330548
0.02487386202
-0.0009924155524
-0.0008972745766
-0.02580689729
-0.001490523547
0.001546175149
0.0270921219
-0.002878944493
-0.02766735892
0.0274714655
-0.001294630131
0.02672293885
-0.0007722334679
-0.002294426068
-0.02742678938
-0.004736646669
0.004505065705
-0.2042580722
-0.09685984125
-0.0005994124538
-0.09484234607
-0.007336606759
0.09466861538
0.09414882781
-0.003154243732
0.002572246213
-0.09356683029
0.04486451262
-0.04436228012
0.0003383219462
-0.04199801916
-0.004479622705
0.04203480475
0.001321461072
-0.001736410574
-0.09825739071
-0.04869418247
0.001403053533
-0.0477879242
0.001350368406
0.04800864305
-0.04750632951
0.001342610802
0.0006376534173
0.04533527956
-0.002078896944
0.09478450577
0.001443218986
-0.02079860503
-1.475322594e-05
0.02068447814
0.0001288801185
-0.00287110097
-0.01689885318
0.01675920181
0.003010752336
0.001610159198
0.01938941905
-0.001821462683
-0.01917811556
-0.02731201015
-0.09585176648
0.0469040947
0.0454687618
0.01537832181
0.01541259831
-0.005417799193
0.006168706612
-0.04184232589
-0.001164171621
-0.02500117188
0.001315728108
0.02484961539
-0.05125184643
0.002815248007
0.0512801492
-0.002843550773
0.05140939975
0.00296645763
-0.003008060099
-0.05136779728
0.005195877093
-0.02011741666
0.02841257374
-0.01349103417
-8.61155946e-05
-0.02088935283
0.0001768633881
0.0464556844
0.001462403866
-0.04608813181
-0.0009160484805
-0.0009139079765
0.02298046074
-0.0233080073
0.0002414309652
-0.02204910322
0.003510595698
0.02373438461
0.02324723205
-0.0253564407
0.002124011144
-1.480249434e-05
0.0003169351209
0.02264877239
0.001523692193
0.046793251
-0.0009198388459
-0.0009414199527
0.0421049682
-0.001430722881
0.0008493351219
-0.04152358044
0.01986466788
-0.01942747303
0.001172964354
-0.01804229068
-0.002426461278
0.01759765098
-0.003611695043
-0.02128971134
0.002852303168
-0.002273718553
0.00161658456
0.02052180187
-0.0005911501904
0.04273539099
-3.927259563e-05
0.01998176705
-0.002866066556
-0.003547562122
-0.02018154958
0.02473469825
0.000804516081
-0.0009007412846
-0.02463847304
-0.02132845417
8.98955332e-05
0.02125702972
-1.847107766e-05
0.0008399237478
0.02477475708
-0.0008799825805
0.04843102126
0.001483689069
-0.04836538328
-0.0008022082138
-0.0007471188416
0.02182735637
-0.02186784019
8.64391109e-05
-4.595529141e-05
0.0006925701475
0.02251935758
3.530431501e-05
-0.0213919959
9.115557352e-05
-2.761385052e-05
9.14797597e-05
0.02176384208
-2.796546661e-05
0.001472844373
0.04848738879
-0.0007812367789
-0.0007479751167
0.02535510483
0.0009292703592
-0.0009079057624
-0.02537646943
0.0009997307373
0.02527429821
-0.0009189241176
0.02473173648
0.0009112776979
-0.0009028389877
-0.02474017519
0.0009180053803
0.02472834656
-0.0009146154637
0.02476969495
0.001361770762
-0.001420858695
-0.02471060702
0.001613696935
0.02508217975
-0.001926181731
0.02647972174
0.001277997872
-0.001492070289
-0.02626564933
0.001169722662
0.02653069512
-0.001220696036
0.003009669897
-0.003042996289
0.02473207166
0.001110193074
-0.0008279636051
-0.02501430113
0.0244695228
-0.0009016227649
-0.04368594453
-0.01664325918
0.03984992142
-0.00401601445
0.004145726026
-0.01702856475
-0.02584303352
0.001136717782
0.0258760384
-0.05077922235
0.002126022762
0.05081497591
-0.002161776319
0.05090360974
0.002235026767
-0.002263890635
-0.05087474587
-0.05062108052
0.001998828611
0.05066284135
-0.002040589443
0.00209879601
-0.002136137487
-0.05074188088
-0.02572749345
0.001162457798
-0.05116861289
0.002616117546
0.05119115978
-0.002638664437
0.002758975205
-0.002778010229
-0.05123281141
-0.02516857394
0.001277595138
-0.05031041639
-0.0009507337387
0.0019812619
0.05027961896
-0.05044144404
0.001871543376
0.05049031862
-0.00192041796
0.001964287158
-0.002007497547
-0.05057787013
0.0240556085
-0.0003455487332
-0.02433371292
0.0006236531567
-0.0003338937995
-0.02512916408
0.0005961780074
0.02486687987
-0.02512627613
0.0009977070788
0.02506580417
-0.0009372351222
-0.02507820892
0.001417542518
0.02527436334
-0.05101952077
0.002462720782
0.05104503396
-0.002488233978
0.002572215751
-0.002599137554
-0.05114169108
0.002274121902
0.05093216326
-0.002302675423
0.002399838422
-0.002429620384
-0.0509897388
-0.0250198057
0.001303367534
0.02506441799
0.001075684576
-0.0009233695078
-0.02521673306
0.02451665411
-9.036829377e-05
-0.02479211343
0.0003658276108
-0.02552031336
-0.0001401710301
0.0003846952331
0.02527578916
0.0228627659
-0.02301528646
0.0001686651044
-1.614454447e-05
-0.02639164268
0.00226241849
0.0241117312
1.74929862e-05
-0.02712183153
0.001653061718
0.02741005708
-0.001941287263
0.02510979941
0.001282364545
-0.001468865184
-0.02492329877
0.02328110625
-0.002186317047
-0.02323570626
0.00214091706
-0.0004038189798
0.0006905081124
0.02376891936
-0.0001324630642
-0.02576640139
0.0003785510924
-0.0001168472857
-0.02650956009
0.0003677880183
0.02625861935
-0.02623593582
0.001024185135
0.02609489198
-0.0008831413005
0.02587263914
0.001042530121
-0.0007573657495
-0.02615780351
0.02236525356
-0.02248392867
0.0001049024596
1.37726502e-05
0.0001023314319
0.02271987422
4.056025318e-05
-0.01946791067
0.004437052502
0.01498490473
4.595344534e-05
-0.02443061082
0.002592561525
0.02531498318
-0.003476933893
0.01873945878
0.00129410852
-0.02013481954
0.0001012522368
0.004180544886
0.01446402702
9.488687438e-05
0.01746190775
-0.0004267464556
7.653050604e-05
-0.0171116918
0.0002258977211
0.01798362306
-0.0007476130304
0.02128807099
0.0005401993373
-0.02199161525
0.0001633449142
0.0001042321118
0.02106461463
0.0001192242536
-0.02438602788
0.0005143631637
0.02397589683
-0.02357999317
0.001047638534
0.02354557832
-0.001013223683
0.02324097731
0.0009777959658
-0.0008673134653
-0.02335145981
-0.02248970528
0.001308462447
0.02292342042
-0.00174217759
0.001123112882
-0.001189131962
-0.02351397409
-0.02482233401
0.0009765054706
-0.02103125789
0.004172395157
0.02103940762
-0.02350471158
0.001597307157
0.02411636191
-0.002208957481
0.02586308733
0.001339550072
-0.001669162176
-0.02553347522
0.0009945670927
0.02314950062
-0.0009030904018
0.00138169174
-0.001696286858
-0.02319011646
-0.02173003554
0.001992886166
-0.0007803879011
-0.02214677676
0.001088801879
0.02183836278
-0.02147011189
0.000897142752
0.02161174271
-0.001038773572
0.00119509198
-0.001621423074
-0.02206337419
0.0222388166
0.00144582669
-0.001319925233
-0.02236471805
0.02165072532
-0.0001922966271
-0.02051322547
0.001439910266
0.01907495508
-1.639877731e-06
-0.02310846582
0.001562089818
0.02350553145
-0.001959155454
0.02691045196
0.00216581785
-0.003192447314
-0.02588382249
-0.02345736109
0.0006410288827
0.02330053464
-0.000484202425
0.001074301223
-0.001120991609
-0.02306177543
-0.02098147019
0.0004286036533
3.964106601e-05
-0.02690117869
0.0005211347037
0.02668961662
-0.0003095726364
0.0260471302
0.0004962066701
-0.000277988623
-0.02626534825
0.00160617188
0.02730618435
-0.002001904274
0.0005811236005
-0.0003737757032
-0.02710852659
-0.02208144319
7.253378766e-05
0.02203131587
-2.240646506e-05
-0.02548678776
0.0006741196155
0.02530829328
-0.0004956251309
0.02478031989
0.0006471238079
-0.0004768822123
-0.02495056149
0.001060003382
0.02591459575
-0.001111511801
0.0006981700095
-0.0005244217782
-0.025660536
-0.02215093149
7.52819366e-05
-5.793642341e-06
-0.02158053776
4.123213567e-05
0.02149792464
4.138098016e-05
-0.02411283606
0.0006210708127
0.02394367521
-0.0004519099707
0.0006276144211
-0.0004678063288
-0.02361716919
0.0006438577164
0.02461345956
-0.0004769973822
0.0006248417514
-0.0004558651896
-0.02428181262
-0.02165705466
4.890967632e-05
2.760722983e-05
-0.0266922669
0.0003509747716
0.02645831498
-0.0001170228498
0.02577384126
0.0003003662887
-7.076841468e-05
-0.02600343913
-0.02756612486
0.002087181093
0.02765900574
-0.002180061971
0.0004238414002
-0.0001543009788
-0.02696180732
-0.02487058603
0.02464876972
-0.000112077492
0.02394322709
-9.385997107e-05
-0.02419491585
0.0003011716394
0.02554363244
-7.096282343e-05
0.0003298210275
-0.0001090342632
-0.02509137279
-0.02507677757
0.0005032352169
0.02482733868
-0.0002537963216
0.02406722023
0.0005298567201
-0.0002733234755
-0.02432375348
0.0004877128373
0.02580987737
-0.0002504600026
0.0004964457633
-0.0002496861095
-0.02532353723
-0.02303555147
0.002067201418
0.02309384333
-0.002125493276
0.003318609084
-0.004595979999
-0.02628875394
0.0005557485937
0.02380694311
-0.0002954714652
0.001225156786
-0.0009968089677
-0.02326389928
-0.0004981948857
0.02289194844
-0.02349465682
0.001100903267
-8.761797403e-05
0.0003760040337
0.02422826805
0.001091484343
0.02491675944
-0.0009438257942
-0.02203441034
0.02191578505
3.10073118e-05
0.02105157753
-0.02155588967
6.117259792e-06
-0.02244041746
0.02233783606
-3.758962488e-05
-0.02216048534
3.570670619e-05
0.001506932957
0.01955254729
-7.902718827e-06
0.001913959061
-0.002545279303
-0.02649051129
-0.03110205985
0.004729301307
-1.888413448e-05
0.00224924803
0.02214963337
-0.002235048324
0.02781747797
-0.02773691251
0.002154482865
-0.004500837689
0.003344304239
0.0244376397
0.001418175473
0.0254113392
-0.001719715266
-0.02201376062
0.02201822547
-0.00450530253
0.02416199023
-0.02639728514
2.465888496e-07
0.02365780204
-0.0001183939335
-0.001482176288
-0.02271790138
-0.02284678622
0.0227433685
-1.342956969e-05
-0.02254218749
-3.069303572e-05
0.0007801358528
0.02338596641
-4.112032336e-06
0.0001233180474
-0.02295830578
-1.179848e-05
0.001025441538
-0.0008939546034
-0.02636742275
-0.02677317888
0.0003869368435
0.00115886934
0.02743874448
0.02186409521
-0.02199771554
0.0001553038931
-2.168356326e-05
0.0001159584285
0.02224797425
1.320885462e-06
0.001053764555
0.02558608405
-0.0007672094639
0.002045441334
-0.002299408839
-0.02417664331
-0.02099210416
0.001453633944
7.055954449e-05
0.0001935876603
0.02170925131
-3.874376768e-05
-0.04962880884
-0.0009451383231
0.001809616716
0.04968233582
-0.04996615738
0.001615290304
0.05003056973
-0.001679702651
0.05022875054
0.001717513641
-0.001781846509
-0.05016441767
0.00145435052
-0.04969101775
0.04976275
-0.001526082765
0.001573651049
-0.001643588617
-0.04989621981
-0.0009047985966
-0.04958349621
0.001770763674
0.001750369377
0.05029085475
-0.001812473589
0.001845664013
-0.001892192235
-0.05039491582
-0.001003982198
-0.05033510117
0.001957937335
0.02556452642
0.0009091298037
-0.0009299347235
-0.0255437215
0.02724452543
-0.02749710585
0.000676421816
-0.02743844182
0.001735356725
0.02779026619
-0.0264390496
0.002319216865
-0.02375702864
0.001707221034
0.02411700902
-0.02478619581
0.00103973478
0.02489517706
-0.001148716026
0.0001558334396
0.02057488907
-4.624436707e-05
0.02407663178
0.004161781059
0.0001741608996
-0.01387132291
0.0003802887431
-9.237615468e-05
-0.02099528122
0.0001983045522
0.000243644292
-0.02364402775
0.02349666889
-0.02386994149
0.0006169168907
0.02312990485
0.0006081950126
0.004460369276
-0.02980683821
-9.971758325e-06
0.02640339215
-0.02515311533
0.003210092465
0.02651360935
0.002013793938
0.02277923431
0.0006676056533
-0.000514873233
0.02245439025
0.0008397173019
0.0222897326
-0.02036993136
0.0003863013939
0.02063836717
-0.0006547372102
0.0007360100022
-0.0009897471793
-0.02121637471
-0.02207582158
0.001374871517
-0.00419750211
0.02138461125
0.002794657914
-0.01840461962
0.0259135396
-0.01170642209
-0.002732322919
-0.01853836325
-0.01770191508
0.000283030046
0.0008959854966
-0.01891171979
0.0003138192128
-0.02094995944
0.00166439536
0.01474070073
-0.0146762695
-6.443122908e-05
0.03033683833
-0.02138602455
0.005789886952
0.02584593482
0.004499906506
-9.002998663e-06
0.02298718602
-0.02317365735
0.0002763668671
-0.0001052252449
0.02276781941
0.0003245918529
0.02117327758
-2.14731103e-05
0.02239785996
-0.02246165385
0.0001118794858
-4.808559834e-05
0.02235316011
0.0001022033084
-5.750346235e-05
0.02371252108
0.002148132791
-1.471904283e-05
0.02298959803
0.0007428745047
-1.995145386e-05
3.662344951e-05
-0.02195837079
5.390714613e-05
0.0247608002
-0.02496639399
0.0002422172365
0.02458589229
0.0002613470268
0.02616771493
0.001038464572
-0.000208832506
0.02583183957
0.0005447078646
0.02226855787
4.196720392e-05
9.462558112e-05
-0.02144398738
-4.263409384e-05
0.02334625403
-0.02351215944
0.0002605309884
0.0002637522525
0.02441097216
0.0002663998877
-9.445171447e-05
0.02423981391
0.0002656099614
0.0217079782
-3.85878335e-05
0.02619099531
-0.02645933883
0.0005687098064
0.0006090291711
0.02698647103
0.0010156685
0.02547238218
-0.00092352426
0.0009751446751
-0.0009301591724
-0.02517126163
-0.02539075763
0.0005914145789
0.0005701504523
0.0259220165
0.02426388693
-0.02446655899
0.0007325287806
-0.02507021406
0.0007029751006
0.02487047417
-0.02477298561
0.0008900068744
0.02475744269
-0.0008744639497
0.0218249495
-0.02189822224
5.256587615e-05
2.070686933e-05
0.02174598561
5.512966026e-05
2.383422954e-05
0.0222526095
3.821773773e-05
6.233287933e-05
0.02217985405
3.836920939e-05
3.438623944e-05
-0.01495855456
0.01492529939
3.325517451e-05
0.02166204934
6.528968972e-05
1.864657851e-05
9.234534944e-05
0.02155587932
1.382467063e-05
0.000999298284
-0.001044608
-0.0247408861
-0.02374683144
0.001214959588
0.0007548361442
0.02406479938
0.0003843251558
-0.000143049997
-0.02503338859
0.02505464153
0.0006776471368
-0.02534796351
0.02474503956
0.0006754295791
0.0003044128353
-0.02331131161
-8.387683385e-06
0.02700842787
-0.02741945022
0.0007154351869
0.02666962187
0.000507471105
0.02784681348
-0.02781969665
0.00223530166
-0.0007964210043
0.001223784261
3.998582427e-06
0.02306592721
-0.02389230495
0.0008226113821
3.766358708e-06
0.0003406180911
-1.875419651e-05
9.748642253e-05
-0.02260036849
1.895339642e-05
0.02574300014
-0.02604389612
0.0003983824071
0.02544302496
0.0004048776338
0.02634951002
0.0004224432805
-9.420605051e-05
0.0003998199535
2.529968102e-05
0.02618814085
-0.03092025971
0.004723353583
8.765272655e-06
0.002285736557
1.009934911e-05
0.02196335143
-0.02203346295
0.004507164016
-0.01495147788
0.005994569612
3.342684263e-05
0.000383064138
5.70053918e-05
0.01442846927
3.555775316e-05
0.01553141791
-0.0004730988674
-0.01490600664
0.01583539715
0.0003074635125
0.01876585019
-0.02228913812
0.002360648318
0.01638899969
0.001501221
0.0008756295
0.01593383698
0.00127213806
-0.008867141531
0.002511840394
0.001902589904
0.0001824266319
-5.105514703e-06
7.443891933e-05
0.02322241985
-0.0221719806
0.003121955914
-0.005661038679
0.003730343194
0.000942761201
0.02217565825
0.001221493198
0.00199656381
-0.02201616258
0.02003716733
0.000659070018
0.003435876707
0.0004615003097
0.002455769903
0.01280977204
0.0008469047387
0.001103349945
-0.0001159969949
0.0008167628749
-0.01935128658
0.0003235697929
0.000493584127
0.02130032418
-0.02192988104
0.002069467126
-0.004444512901
0.004358812528
-4.582732628e-05
0.0001538188632
3.798853571e-05
0.02244118991
0.0004804483595
0.0009399125284
0.02253611032
-0.02261985103
0.0001115935626
-2.78528442e-05
0.0001084088251
-3.395235457e-05
0.02273982124
0.0002640014577
-1.42246717e-05
0.0001405239834
-2.055377848e-05
0.02516780402
-0.02535990312
0.000264632893
-4.484327528e-05
0.0002462533007
2.810180655e-05
9.101531377e-05
2.661107148e-05
0.02557201213
0.0003508427509
0.0002873909464
0.02368497065
-0.02387808074
0.000234342228
-7.610363944e-05
0.0002489148479
-2.216638241e-05
8.438768186e-05
-3.346414546e-05
0.02406774437
0.0002564572259
0.0002385733056
-9.824426302e-05
0.0262346226
0.0003219366413
-0.02281846117
0.02273664848
-1.643156602e-05
-0.02291326388
-2.222014303e-05
-0.02264244599
0.02255586721
1.581036802e-05
7.355189386e-05
2.065059234e-05
0.0003047353639
-0.0007470614193
0.02729889784
0.001107169317
-0.02406446807
0.02330037312
1.703352194e-05
-0.02627676343
3.223339772e-05
-0.02304604808
-2.151677542e-05
0.0002830704123
-2.87453746e-05
0.0006201609265
-0.0001128388945
0.02442559901
0.0003360096049
-0.02212320786
0.02203924567
-2.887670504e-05
-0.02221107188
-2.421347302e-05
-0.02195025856
0.02184238668
1.401190388e-05
0.0001046547935
-1.566767953e-05
0.0003353379516
-7.635236212e-05
0.02531217317
0.000307811632
-0.02246984142
0.02237527785
1.821120767e-05
1.50629637e-05
-0.02229659013
-2.351601753e-05
0.0001009620245
-2.227430029e-05
0.000321762403
0.02196822922
4.515308436e-05
-0.02204078343
2.74011266e-05
5.11681576e-05
1.883881993e-05
-0.0002598040952
0.02457683284
0.0005103099313
-0.02458212665
0.02437349071
-0.02479076989
-0.02416101449
0.02394282068
0.0002650420989
0.000518121461
0.02211473311
4.448214894e-05
2.063879207e-05
4.094488994e-05
3.300478715e-05
0.01942719317
0.00144217924
-0.02088914747
1.977505835e-05
0.004447469612
2.116900048e-05
-0.00442353561
0.02425544556
0.003261933378
-0.02185831542
0.02188224942
-0.02254162945
-0.0308960659
2.332247122e-05
0.005911482901
0.003878174518
-0.0003566199792
0.02353841796
0.0006251451297
-0.0237126389
0.02344836427
-0.02308848489
-0.0004499535293
0.0005299267474
-0.0001700473648
0.0008044454188
0.02136118621
2.464574676e-05
2.208521025e-05
0.0006204432694
-0.02390767597
-0.0002074241222
0.02376449782
-0.0240964856
0.0009524310448
0.02347992093
0.001385480164
0.02442497613
0.0006960674681
-0.0004382020662
0.0007666925966
-0.0001176099868
0.02177875908
1.941599225e-05
1.544528257e-05
0.02224033417
0.0001457860318
-4.828414335e-05
-6.320116823e-05
0.01502438891
0.004535384718
-7.22634353e-06
0.0150694888
-4.509988644e-05
0.006080414037
-0.02211298508
0.02659407291
-0.02459643397
0.004082775099
0.003503677567
0.02348398028
0.002245188673
-0.004572033005
0.003459579315
-0.01503185805
0.03106206899
0.005988014523
-0.01502545609
-6.401951878e-06
-0.01954043493
9.676306725e-06
0.004665975547
-1.191695591e-06
-0.0002041316982
0.02328235791
0.0005795758308
-0.02171883642
0.02151266213
2.042592657e-06
5.156329304e-06
-0.02102704629
4.435076003e-06
0.0004864327326
-8.168956877e-07
0.001050889262
0.02264283037
0.0001194108636
-1.887273869e-05
0.0001270173177
-2.637443308e-05
0.02310647174
0.0002882254557
-8.73078997e-06
0.0001581981081
-1.003215054e-05
0.0001334512061
-0.02212595756
-5.209184918e-06
0.02453456394
-0.02484178594
0.0004406732022
0.02421891318
0.0004709546535
0.02514355213
0.0004154312654
-0.0001237367576
0.0004255029438
-1.720068349e-06
0.0005473631244
-0.02147769768
-6.176960912e-05
0.02282345238
-0.02343977544
0.001163686184
0.002243623376
0.02387224942
0.000540251422
-0.0002814916654
0.0007139656489
-4.993802599e-05
-0.001548332023
0.001720448286
-0.228585965
0.002331298369
0.228237219
-0.2284602538
-0.002108263569
-0.2289680791
-0.001356896301
0.22881707
0.002563736666
-0.2283896081
0.003364204405
0.2279910694
-0.2282826242
-0.003072649571
-0.228910175
-0.001937336633
0.2287342112
0.003605338089
-0.2282088403
-0.002810582441
0.232192738
-0.22954926
0.0001724622171
-0.2288845313
-0.002627385658
0.2286874601
-0.005202367144
-0.2305100603
-0.01043805246
0.232808609
-0.2313935002
0.009030098884
-0.2289095808
-0.003353035864
0.2287375655
-0.01150779729
-0.2310193908
-0.002075316824
0.002325170808
-0.2277773448
0.003234512495
0.2270840587
-0.2274103964
-0.002908174818
-0.002335752034
0.2279922783
0.002109856761
-0.2272756384
-0.007463371209
0.2376244198
-0.2345700075
0.00442789896
-0.003431339222
0.2282072681
-0.01026450997
-0.2366513346
-0.01677377379
0.2412458733
-0.239395839
0.01495119561
0.005138711804
0.2347802958
-0.01825661895
-0.2391619411
-0.02075398714
0.2366131052
-0.2360593733
0.02021809735
0.01357889645
0.2340953651
-0.02104679168
-0.2344129202
-0.009360150398
0.01060575901
-0.2291233146
-0.002496938568
0.239041328
-0.234058738
-0.002465242405
-0.003052730679
0.2277838551
-0.005769214454
-0.237624811
-0.01218190753
0.2466652494
-0.2449854751
0.01054804931
0.00703996242
0.2404257016
-0.01337375189
-0.2458515189
-0.0142984464
0.2440747396
-0.2441602149
0.01442687687
0.01624748653
0.2427040508
-0.01378693262