/*--------------------------------*- C++ -*----------------------------------*\
| =========                 |                                                 |
| \\      /  F ield         | OpenFOAM: The Open Source CFD Toolbox           |
|  \\    /   O peration     | Version:  v2012                                 |
|   \\  /    A nd           | Website:  www.openfoam.com                      |
|    \\/     M anipulation  |                                                 |
\*---------------------------------------------------------------------------*/
FoamFile
{
    version     2.0;
    format      ascii;
    class       volVectorField;
    location    "1.25";
    object      U;
}
// * * * * * * * * * * * * * * * * * * * * * * * * * * * * * * * * * * * * * //

dimensions      [0 1 -1 0 0 0 0];


internalField   nonuniform List<vector> 
3019
(
(99.99945019 0.001384232762 -3.849250518e-21)
(99.99907832 0.005090279813 -2.428706892e-25)
(99.9982118 0.01198194662 -3.848917591e-21)
(99.99659709 0.02452515584 -3.83524765e-21)
(99.99968257 0.02048287403 3.717612659e-21)
(99.99819301 0.03558008758 0)
(99.99713572 0.0599378191 0)
(99.99670445 0.09462682503 -6.735860973e-21)
(99.99554466 0.1424031298 7.974761517e-22)
(99.99449662 0.2041762992 -5.422355973e-21)
(99.99408739 0.2758273432 5.746271699e-22)
(99.99509523 0.345849941 0)
(99.9950335 0.003317947132 1.539702259e-20)
(99.99121716 0.0127563182 3.852067243e-21)
(99.98307581 0.03098502922 2.695322848e-20)
(99.96905071 0.06589995882 -1.154575801e-20)
(99.96959433 0.09563363318 3.741853182e-21)
(99.94694033 0.1687108413 -3.157201224e-23)
(99.91663295 0.284875108 0)
(99.899026 0.3953532779 -6.703067928e-21)
(99.8602618 0.6022458122 -6.318678305e-21)
(99.82224799 0.8752421248 -1.133872254e-20)
(99.79817118 1.201855089 -4.869183857e-21)
(99.81073507 1.535311761 -3.304642123e-21)
(99.98760848 0.00290484433 -1.53627294e-20)
(99.97695493 0.01312680346 -3.081592739e-20)
(99.95438834 0.03674524507 -6.930981033e-20)
(99.91716919 0.08286991078 9.227857426e-20)
(99.89282786 0.144185468 -7.62922262e-21)
(99.8273833 0.2670827685 -7.488224959e-21)
(99.73470749 0.4622709387 -1.302739904e-20)
(99.67561916 0.6853556024 0)
(99.55172792 1.069325167 2.607503724e-20)
(99.42689523 1.591104592 -3.579275896e-20)
(99.34656123 2.260223237 0)
(99.40739019 2.977561305 8.898275432e-19)
(99.98246181 -0.001335181687 -7.725824785e-21)
(99.96216539 0.001384776881 5.413217413e-20)
(99.91932877 0.02126840152 -1.548256915e-20)
(99.84911686 0.06633292578 0)
(99.79000264 0.1497124496 0)
(99.65930763 0.3039930412 -6.019273046e-20)
(99.4745484 0.556640135 -1.20664005e-19)
(99.31422963 0.8783770126 2.86572139e-20)
(99.03617268 1.422672067 -1.655137187e-19)
(98.7253083 2.252360721 0)
(98.51916836 3.397165193 0)
(98.61139334 4.716259466 -9.095596761e-19)
(99.98853032 -0.01031549641 0)
(99.9570571 -0.0254104581 0)
(99.89135136 -0.02172630139 7.767709487e-21)
(99.78213467 0.01014612928 1.177767504e-20)
(99.67844825 0.1010399342 1.951048124e-20)
(99.46541093 0.2588845194 0)
(99.16412784 0.5242206558 0)
(98.8595814 0.9133065496 0)
(98.33207301 1.615066425 -4.371622603e-19)
(97.69075922 2.79353208 1.635042832e-18)
(97.14295274 4.632255319 -2.36960117e-20)
(97.35724888 6.931869728 1.514129015e-19)
(100.0160165 -0.02434047722 0)
(99.97316362 -0.06791160871 0)
(99.88491458 -0.09364210063 -1.558844967e-20)
(99.73634467 -0.09172945672 3.162483985e-20)
(99.57646544 -0.0102743284 0)
(99.27913836 0.1192703339 0)
(98.84619066 0.357010978 2.474968072e-20)
(98.36371235 0.7597086516 0)
(97.50314531 1.525184512 -9.0692033e-19)
(96.26376155 2.963817623 -1.155126122e-18)
(94.89685098 5.565894642 0)
(94.64270988 9.654043752 2.162496991e-19)
(100.0747703 -0.04308853251 3.797640472e-21)
(100.0216624 -0.1250532006 -3.823979767e-21)
(99.91355836 -0.1926162603 7.794094715e-21)
(99.73016049 -0.2365295814 -2.85582638e-20)
(99.51493573 -0.1848378828 7.853870088e-23)
(99.13846812 -0.1155257294 2.428846477e-20)
(98.58521845 0.04728842615 9.155834527e-21)
(97.90800099 0.3938318705 4.888033878e-19)
(96.68234716 1.05413481 0)
(94.6542099 2.397482751 -5.454782306e-19)
(91.71745499 5.002454926 8.620157601e-20)
(88.18986977 10.92327809 0)
(100.1732749 -0.06564584623 -3.798042183e-21)
(100.11224 -0.1939955284 3.825357054e-21)
(99.98934401 -0.313142874 -4.847274339e-21)
(99.78017042 -0.4155054599 -3.250048341e-21)
(99.51597262 -0.4118937341 1.383657806e-20)
(99.07937634 -0.4291018366 8.207887432e-21)
(98.4355544 -0.3862916789 -7.379715017e-20)
(97.61248542 -0.1799165986 2.362601544e-21)
(96.10175922 0.1836298961 5.018189208e-19)
(93.49735622 0.9026389074 7.759122242e-20)
(89.35017151 1.947394935 4.404810425e-19)
(81.9224714 3.483018924 -1.151770369e-18)
(100.3178076 -0.09060645681 -1.828293395e-21)
(100.2520816 -0.2703542108 -1.373264695e-21)
(100.1212171 -0.4470349631 -4.702727411e-22)
(99.89823 -0.6153232627 1.420480328e-21)
(99.59761519 -0.6728571764 -2.584835307e-23)
(99.12770923 -0.7925067898 0)
(98.43795731 -0.8935561853 6.45913393e-21)
(97.54851935 -0.8765008847 -7.0068072e-22)
(95.92795314 -0.8967094097 1.646945121e-20)
(93.26655505 -0.9403733772 1.463947519e-22)
(89.59193136 -1.449561437 0)
(85.44274525 -3.384267672 2.00090848e-18)
(100.5116072 -0.1162624113 3.603008035e-21)
(100.4448336 -0.3488398205 5.429916051e-23)
(100.313538 -0.5845063613 0)
(100.0900122 -0.821047953 1.857720968e-22)
(99.76799597 -0.9466068225 -1.896916988e-21)
(99.29403459 -1.171860791 2.00996498e-21)
(98.6063337 -1.418785215 6.685311988e-20)
(97.72328665 -1.595687026 5.205472162e-19)
(96.15374605 -1.96239908 -5.136419302e-19)
(93.73405706 -2.537947088 -3.166833981e-19)
(90.82812045 -3.573959508 -8.041228903e-19)
(88.23897127 -5.135188153 -2.074885864e-19)
(100.7545283 -0.1409490112 -1.774560827e-21)
(100.6901902 -0.4241931246 1.788933264e-21)
(100.5653936 -0.7157987416 1.744914901e-21)
(100.3552334 -1.018135754 -1.626589655e-21)
(100.025134 -1.211966016 -1.869958611e-21)
(99.57414278 -1.53409457 0)
(98.92911114 -1.913138898 -1.912147068e-21)
(98.10200103 -2.261767916 6.192063344e-21)
(96.66567064 -2.896098545 -4.356718456e-19)
(94.53769357 -3.788279562 1.130398959e-21)
(92.10050161 -4.967205648 -3.721077481e-19)
(89.96061675 -6.1999725 7.215918484e-19)
(101.0431088 -0.1631552123 6.526642476e-21)
(100.9843733 -0.4915885043 0)
(100.8714677 -0.830776743 -1.741511625e-21)
(100.6843015 -1.198126482 0)
(100.3557507 -1.450993484 0)
(99.95360348 -1.852161946 -5.559167064e-21)
(99.381194 -2.339923732 -1.85852595e-21)
(98.64097092 -2.827627901 2.733495628e-20)
(97.38047455 -3.655904818 5.256400075e-19)
(95.52589005 -4.758387707 1.655163222e-20)
(93.35196896 -6.065512674 -3.15806709e-19)
(91.28198831 -7.286370835 -3.276839925e-22)
(84.92407696 -3.003294673 -1.014314892e-18)
(87.98085501 -4.972294803 7.435334851e-19)
(89.77834418 -6.080232816 3.660150018e-19)
(91.11594762 -7.135601833 0)
(82.19991066 4.909596492 2.260156368e-18)
(90.50250514 -3.135937024 0)
(88.26544045 -4.689433181 -8.332229899e-19)
(85.95120627 -2.913394855 -9.882239276e-19)
(91.78868409 -4.658160811 3.732518134e-19)
(90.01624883 -5.890028391 -4.788552271e-21)
(88.51880043 -4.867039711 1.298242802e-20)
(88.95577471 -5.58109877 -7.871211769e-19)
(88.17135422 -6.41083048 8.93168238e-20)
(87.22180348 -5.969593167 7.523795919e-19)
(93.03249958 -5.806637578 3.429902767e-19)
(91.35242546 -6.964406989 -1.316420434e-18)
(90.1964678 -6.017729614 -3.658345395e-19)
(90.46922783 -6.573763079 -4.373369141e-19)
(89.49488166 -7.108320391 0)
(89.07753703 -6.756233392 0)
(91.51909782 -7.111963373 1.622505252e-18)
(91.90988403 -7.753066581 -5.133880052e-19)
(90.3717226 -8.3934295 1.197482916e-19)
(89.96947847 -7.76225576 -5.003915946e-19)
(78.97382857 -5.308948877 0)
(83.81370283 -5.962620112 0)
(71.94420227 4.511060431 0)
(77.96354644 -4.85586292 0)
(87.0938252 -5.893611826 -7.504640633e-19)
(86.16562749 -5.543231737 0)
(87.08514666 -4.412869534 0)
(86.01750463 -5.7037009 2.028888515e-19)
(86.96298968 -6.005815734 -5.658335311e-19)
(84.21499445 -5.921280773 0)
(85.86288145 -5.695587685 -8.193120664e-19)
(88.99466995 -6.713981199 -3.473980537e-19)
(88.2948333 -6.452400999 2.65778963e-19)
(89.17719442 -5.714145009 9.609435556e-20)
(88.12492838 -6.537930661 -8.115318542e-19)
(88.85623044 -6.780361999 -1.097433373e-18)
(87.02553798 -6.051318133 0)
(88.06322374 -6.51401967 -8.183264071e-19)
(89.93516039 -7.720921601 4.966875816e-19)
(89.51889001 -7.141074335 5.108829784e-19)
(90.63075018 -6.706852304 8.749157632e-20)
(89.36704056 -7.159524313 -5.303297598e-19)
(89.71146004 -7.750211137 -1.70632449e-21)
(88.89548108 -6.805316043 0)
(89.347472 -7.127779105 -1.087280236e-21)
(90.3978902 -8.444320633 -1.960611987e-21)
(92.0017089 -7.838165322 0)
(90.02184907 -8.458975637 4.925776746e-19)
(89.7441237 -7.790847024 -1.679882116e-21)
(90.00802566 -8.410821587 6.137065217e-19)
(89.36340354 -0.7250040236 0)
(85.51948601 -2.496991458 0)
(83.41123087 3.370038872 0)
(82.66143168 -0.2865072209 0)
(78.61044311 -3.882644908 0)
(73.96026906 4.499286331 0)
(86.73339927 -4.202034869 9.265527927e-19)
(86.00276702 -5.52313145 0)
(84.24184832 -5.525064757 1.56498543e-20)
(83.8335364 -5.503593604 -1.85072041e-18)
(79.45879748 -4.366693412 0)
(83.1998994 -1.199975362 0)
(81.90662127 -8.529283237 -1.937501698e-18)
(58.29861334 5.905699017 0)
(67.07090448 -8.628731365 7.360657206e-19)
(79.71811611 16.30479925 0)
(72.14864088 6.636479257 0)
(90.21393883 -8.067083218 0)
(91.06362056 -7.867148511 5.849690786e-19)
(91.31767953 -8.125212729 -2.858834818e-19)
(78.1091172 -10.50126841 -6.495257762e-18)
(81.52382007 -8.770039807 0)
(81.51390849 -5.926109433 -1.037559093e-18)
(81.66625803 -8.499023337 -5.726140108e-21)
(78.13927559 -9.638003148 9.464827509e-19)
(83.48741614 -7.163326861 1.623195773e-18)
(82.01976225 -8.296262739 -8.669511476e-19)
(82.19362043 -5.975703717 1.281882338e-18)
(73.63956424 -1.043462263 0)
(68.04353922 -7.062981838 2.821172166e-18)
(60.98057715 5.698811954 0)
(77.35163193 -9.645073391 -4.886131145e-19)
(69.41914048 -7.91010109 -1.342025258e-18)
(74.68818323 -2.41053103 0)
(68.71060584 -9.462233408 0)
(77.3701091 -10.46624196 0)
(86.49037961 -5.754918678 -5.667170506e-19)
(84.9122303 -6.05227347 -8.626452023e-19)
(86.55044247 -5.781015138 1.9133065e-21)
(85.08889381 -5.766160678 8.318753175e-19)
(84.42040976 -6.38272051 -4.289978761e-19)
(83.60657417 -7.054217507 -2.526788718e-18)
(84.88168543 -6.052139307 -2.149917552e-18)
(84.48970609 -6.290240229 1.713951259e-18)
(85.31237645 -5.731342897 -6.280301688e-19)
(88.51024748 -6.642309897 0)
(88.55873767 -6.662775254 0)
(87.5110477 -6.311438613 -5.783047902e-22)
(87.58234952 -6.349205527 5.593045036e-19)
(89.54247346 -7.426330151 0)
(89.56706416 -7.46199474 0)
(89.14296159 -6.940571682 -5.137158489e-19)
(89.17236385 -6.963106659 2.562592438e-19)
(91.40689861 -8.215058308 0)
(89.94451379 -8.038478295 0)
(89.96292204 -8.078841831 0)
(68.16960956 22.52777454 -6.114001122e-19)
(58.4781546 8.759297841 3.233260004e-18)
(89.29958044 -6.93511742 0)
(89.84125846 -6.708857675 3.067568284e-19)
(90.06674217 -6.887910726 0)
(89.50970247 -6.49441489 3.133054537e-19)
(89.76219563 -6.653114524 -3.10850305e-19)
(89.2674425 -6.91393568 0)
(90.74273059 -7.543624736 5.909376243e-19)
(90.98263155 -7.783850369 -8.766959677e-19)
(90.18905048 -8.024701424 5.17586179e-19)
(88.72672166 -6.598589104 6.943603299e-19)
(89.13439618 -6.291660223 6.395958074e-19)
(89.42032359 -6.442824233 -3.14718807e-19)
(88.30424603 -6.87051373 0)
(88.21727227 -6.814461772 6.101075335e-19)
(88.73654097 -6.726767631 0)
(89.7423493 -7.438087947 0)
(90.43457516 -7.236234611 0)
(90.66410827 -7.464958057 -5.971298561e-19)
(90.13955908 -6.953194987 0)
(90.35970286 -7.162537621 -6.058036183e-19)
(89.71349813 -7.400472948 0)
(89.43092092 -7.271213655 0)
(88.36679462 -7.274128587 0)
(88.36824901 -7.132395231 -1.19828662e-18)
(87.69768925 -7.694882956 3.272983211e-19)
(87.67447488 -7.570700658 -6.087279595e-19)
(89.62743927 -7.617531448 5.013200784e-19)
(89.01069475 -6.861715696 0)
(88.42501886 -6.953603024 -3.180314333e-19)
(88.33774008 -6.892639974 0)
(88.37326709 -7.103849677 1.188031421e-18)
(88.36614247 -7.053245886 1.160254924e-18)
(89.28261947 -7.048897486 -5.197597587e-19)
(89.84443897 -7.90139321 -5.240706221e-19)
(87.8673188 -7.848612777 -1.588936597e-21)
(87.72340581 -7.748719178 -3.298574918e-19)
(87.84381009 -8.201569372 1.550736803e-18)
(90.02281801 -8.279695361 2.657027806e-19)
(82.6635354 -7.883687545 1.015087111e-18)
(82.90173927 -7.739867918 1.146017511e-18)
(60.57542219 -2.338888639 1.739893033e-18)
(62.01857857 -4.420846026 0)
(79.82835898 -9.7241545 -1.987864392e-18)
(80.29635654 -9.438433895 2.024706429e-18)
(80.45750848 -9.061318581 -8.611124491e-19)
(80.39472325 -7.446441642 -8.610361271e-19)
(81.71088712 -7.329770645 8.113775071e-19)
(78.17253988 -7.309460104 -9.627986004e-19)
(79.89095697 -7.454423523 -8.886348615e-19)
(79.97178624 -9.251355356 0)
(83.06533616 -7.616067504 4.28722947e-19)
(83.22117728 -6.923476169 0)
(83.82713028 -6.672187549 0)
(82.08472136 -7.263942844 0)
(82.98063646 -7.011166661 -1.803359289e-19)
(82.82788279 -7.746404609 -8.796719382e-19)
(74.43138316 -9.553055493 -2.255941786e-18)
(75.22764086 -6.605885764 0)
(77.49062305 -7.195821988 5.133947429e-19)
(73.05426338 -10.74774142 -1.16981081e-18)
(74.34950289 -10.79091629 -1.120434196e-18)
(85.14710126 -6.050323384 6.807591727e-19)
(85.879997 -5.945113756 3.01480278e-19)
(85.98388377 -5.964249498 0)
(85.63192553 -5.942106687 6.958515092e-19)
(85.82282827 -5.943276019 6.776217947e-22)
(85.08955869 -6.074758027 -4.358234181e-19)
(86.16153783 -6.098620638 -1.256155911e-18)
(86.28780733 -6.23931235 0)
(86.00945534 -5.986207863 0)
(86.12291669 -6.064602469 1.246017385e-18)
(84.12650268 -6.618620167 -1.720579718e-18)
(84.57829227 -6.317385426 6.570033694e-19)
(84.91731862 -6.155030212 0)
(83.99672995 -6.594604082 -3.286163812e-19)
(84.44784986 -6.381730244 1.31802591e-18)
(84.02281925 -6.726715534 0)
(84.71332186 -6.170415774 2.100149955e-21)
(85.34934564 -5.995049417 6.806444657e-19)
(85.56714648 -5.948173641 0)
(85.01474722 -6.109838243 0)
(85.26952756 -6.016011624 6.785197297e-19)
(84.63324656 -6.187500176 -4.294722289e-19)
(87.53180539 -6.768033915 -6.088261184e-19)
(87.65336549 -6.8061358 -1.239804224e-18)
(87.35646221 -6.794865544 -5.816843578e-19)
(87.49888319 -6.766864879 0)
(87.83223542 -6.816586948 0)
(87.89953643 -6.877194685 0)
(87.70148764 -6.812761596 -6.21400652e-19)
(87.81131089 -6.810360954 -6.342620298e-19)
(86.63822359 -6.497893132 6.615478849e-19)
(86.87464017 -6.602719755 0)
(86.34192972 -6.298426743 0)
(86.55964296 -6.45640357 -1.309770757e-18)
(87.24720709 -6.730816871 1.699771413e-19)
(87.32790776 -6.781944151 0)
(86.95301619 -6.631906128 0)
(87.18105099 -6.708214428 -6.86085207e-19)
(88.47902848 -7.445499609 -6.406013411e-19)
(88.38895443 -7.33267358 0)
(89.45681611 -7.311739835 0)
(87.4351309 -7.289997928 0)
(87.5568549 -7.388803716 0)
(87.44815457 -7.051804626 -3.465309883e-19)
(87.40670371 -7.216840292 -1.763949249e-18)
(87.53783009 -7.410719017 0)
(89.61386628 -7.572410959 0)
(87.79474751 -7.532054294 0)
(88.46119786 -7.478197324 -8.127718999e-20)
(88.30596054 -7.015982466 -5.477949405e-19)
(88.44579374 -6.982911218 -6.086450733e-19)
(89.04577433 -6.885641014 -8.077095753e-19)
(88.01429536 -6.987791231 0)
(87.44351325 -6.983146605 0)
(87.93155727 -6.901723056 0)
(87.9962244 -6.964454636 0)
(87.47657139 -6.994123828 0)
(87.46547462 -7.027072847 1.380839975e-18)
(87.43605889 -6.980924117 0)
(87.46956346 -6.988103608 0)
(89.25763184 -7.026383115 -1.044791825e-22)
(88.3563221 -7.042550452 0)
(88.31160658 -7.02650694 0)
(87.93594384 -7.913387411 0)
(87.90001311 -7.864046163 1.321645998e-18)
(89.87435731 -7.934374307 -1.448868571e-21)
(90.01100181 -8.224203486 -2.686832764e-19)
(87.84180969 -8.134222825 1.532074815e-18)
(87.92639913 -7.938110499 0)
(87.76970058 -6.254283602 -5.469312383e-19)
(88.21711295 -5.844719361 -1.3372806e-18)
(88.58662792 -6.028253147 6.538633046e-19)
(87.69971269 -5.563177996 6.832108202e-19)
(88.08961002 -5.776859982 -6.748782691e-19)
(87.63052386 -6.189957034 7.391290736e-19)
(88.70390431 -6.084264826 0)
(89.03244803 -6.24100566 0)
(88.62740321 -6.562682867 5.232653989e-19)
(88.30174665 -6.580213638 5.396375843e-19)
(87.84368236 -6.74037901 -5.71089874e-19)
(87.67869001 -6.728476149 5.61403678e-19)
(87.62879469 -6.713024828 5.715113831e-19)
(87.46450935 -6.662781281 -1.586796233e-19)
(87.86505184 -6.457652906 -2.778270303e-19)
(82.21997436 -8.258329762 -1.951790395e-18)
(78.77018761 -10.3101317 -7.226982368e-18)
(77.80401899 -10.7451173 3.13438323e-17)
(81.12446787 -8.973037056 5.032336547e-19)
(81.28857808 -8.685393425 1.423604805e-20)
(81.35126623 -8.257427714 8.156526688e-19)
(81.72774235 -8.102871613 -8.375325358e-19)
(83.37280606 -7.312786926 -2.226060309e-18)
(83.52318888 -7.162682215 -7.034537226e-19)
(83.67999165 -7.053108314 7.046722877e-19)
(82.07493522 -7.940038604 -8.131782464e-19)
(82.38695297 -7.778474584 2.467386598e-18)
(82.33052326 -8.08486783 4.161252565e-19)
(71.847443 -4.604576442 0)
(74.41674013 -6.153827272 0)
(73.26440234 -9.385682357 0)
(70.24621885 -10.14323257 -3.12622292e-19)
(69.9196841 -12.25860585 -8.208238818e-18)
(68.01198486 -11.06007105 -1.464434033e-18)
(77.18903746 -10.98940585 0)
(76.3846438 -11.30908227 5.050834959e-18)
(76.50687219 -10.58873317 0)
(85.01921158 -5.984334855 -2.476390271e-17)
(85.37672507 -5.998605681 9.934154634e-18)
(85.31018037 -6.008140039 0)
(85.26740016 -6.048188446 1.539599378e-18)
(85.32195507 -6.049352831 0)
(84.95770361 -6.062304199 -4.330110879e-19)
(85.36537154 -6.199918231 8.032360544e-19)
(85.37938495 -6.272058979 4.020116106e-19)
(85.27538569 -6.023916056 0)
(85.28609557 -6.038559555 0)
(84.32213252 -6.472218836 -1.712516126e-18)
(84.5734592 -6.428292684 6.505280269e-22)
(84.67000804 -6.353115888 0)
(83.82706171 -6.956097615 1.419309685e-18)
(83.97254401 -6.863257183 -7.208440632e-19)
(83.74718981 -6.957270335 8.613157668e-19)
(84.85114245 -6.08006421 -4.26042894e-19)
(85.16724723 -6.075836329 -1.518546151e-18)
(85.21869337 -6.054468805 0)
(84.75270773 -6.28207821 -1.475512405e-18)
(84.82018892 -6.227922595 7.417550315e-19)
(84.53207802 -6.229659575 0)
(88.02365853 -6.779475057 -1.176106402e-18)
(87.88858288 -6.746268052 4.168360517e-22)
(88.35605262 -6.600603522 -5.409242802e-19)
(88.69491547 -6.705162975 0)
(88.18778054 -6.804369971 -1.1169899e-21)
(88.07031538 -6.787882077 1.18396975e-18)
(87.09318764 -6.532746276 0)
(86.86356275 -6.426455888 -6.288422511e-19)
(87.29621515 -6.211393444 -5.6322626e-19)
(85.91492958 -6.676884701 0)
(85.9930656 -6.704965525 0)
(85.41416636 -6.369324104 -4.04171667e-19)
(85.48587263 -6.459603253 7.286432811e-21)
(86.17522869 -6.823760008 1.700971745e-17)
(86.06971752 -6.729876676 -3.978735445e-19)
(86.14434774 -6.751544715 3.998293408e-19)
(87.79626213 -6.427283167 0)
(87.39511996 -6.640996719 3.22349945e-19)
(87.16988552 -6.562980179 0)
(88.36017132 -7.217131179 0)
(88.88041796 -7.244058208 0)
(88.89371274 -7.291563696 0)
(87.67855512 -7.651624949 3.718154087e-21)
(88.76509823 -7.72429244 1.09223025e-18)
(88.78765401 -7.761210633 5.512659066e-19)
(88.75248236 -7.640921879 0)
(88.74636269 -7.687420734 5.375525274e-19)
(87.65770107 -7.61196082 -1.276120922e-18)
(88.15842052 -8.364102788 0)
(88.16390891 -8.388085347 3.103784361e-19)
(87.82038256 -7.828604718 0)
(88.88633369 -7.877427659 0)
(88.92277777 -7.902555854 -1.141051191e-18)
(88.81328276 -7.80311278 -5.586693882e-19)
(88.8469948 -7.844450099 0)
(87.76648752 -7.797224011 0)
(88.2937655 -8.333383696 1.060956431e-18)
(88.17864486 -8.346338828 -3.624078523e-20)
(88.95793839 -8.294729713 -1.236635925e-18)
(88.47157675 -8.310431557 2.098044885e-18)
(87.4606794 -8.233801696 0)
(82.4523554 -8.037620746 0)
(83.03744074 -7.513971559 -3.475344927e-17)
(52.68884817 -1.95562875 0)
(54.87115336 -5.172940601 3.734261359e-18)
(62.95800643 -12.31823283 9.209573277e-18)
(65.23268234 -12.72897706 3.373581492e-18)
(57.52756858 -7.892489973 0)
(60.32328094 -11.13359169 -1.037608729e-17)
(58.16816967 -12.09315516 0)
(79.31866389 -10.02647088 2.881063359e-18)
(80.72289498 -9.181632431 -2.498969842e-18)
(83.14800282 -7.395602142 -1.179471015e-18)
(83.34826539 -7.28270948 2.939889156e-18)
(83.21666728 -7.475805838 7.531960129e-18)
(82.59309611 -7.897234284 -4.38945063e-19)
(82.66270085 -7.630062382 0)
(82.91164872 -7.50196582 4.192145748e-19)
(72.93031209 -12.37322641 0)
(71.56261078 -12.5071663 9.427877928e-18)
(71.67159285 -10.54865587 1.154669368e-18)
(67.36217838 -12.86485152 1.905800093e-18)
(69.17332922 -13.00525107 0)
(75.50423983 -10.72176805 1.151740479e-18)
(75.40916354 -11.69520701 0)
(74.23266995 -12.08407426 0)
(85.4988176 -6.040276364 -1.991182629e-19)
(85.54097038 -6.024976717 -1.960684271e-18)
(85.17868946 -6.009279512 0)
(85.01771756 -6.075394184 8.673784546e-19)
(85.38319892 -6.05211631 -3.254467354e-22)
(85.44811494 -6.050454899 0)
(85.34285793 -6.108098431 1.59734312e-18)
(85.35474925 -6.146549424 -4.00069819e-18)
(85.30915745 -6.055966023 1.579627609e-18)
(85.32796303 -6.078927395 0)
(84.36596832 -6.579062774 7.237350697e-19)
(84.47199089 -6.500499995 -7.2436902e-19)
(84.22092738 -6.540884173 2.148173396e-18)
(83.89483241 -6.847212836 0)
(84.11606885 -6.766352426 1.444078142e-18)
(84.24872177 -6.668430341 1.449867436e-18)
(85.02694611 -6.142132674 7.518863153e-19)
(85.10284542 -6.109744417 7.531584731e-19)
(84.79531778 -6.128214614 -8.580629089e-19)
(84.57383893 -6.19893688 0)
(84.88294117 -6.19199477 -7.486526695e-19)
(84.9511879 -6.166775524 0)
(87.56639614 -6.778495439 0)
(86.85776041 -6.766406549 -7.238104741e-19)
(86.83629556 -6.755004209 -3.621188259e-19)
(86.94331343 -6.800316724 1.810912928e-18)
(86.89372367 -6.785721326 -1.088214888e-18)
(87.60704136 -6.793216433 0)
(87.40702572 -6.791149941 1.181170642e-18)
(86.74875543 -6.810791539 7.045847182e-19)
(86.70655261 -6.837411906 -2.014685456e-18)
(86.82093936 -6.75729637 7.184524425e-19)
(86.79471778 -6.778469589 -1.425799056e-18)
(87.45871913 -6.777147872 -5.995507496e-19)
(87.85134758 -6.831119543 6.445256078e-19)
(87.1161013 -6.791133083 -1.460367117e-18)
(87.11110771 -6.776990304 3.644192755e-19)
(87.14703817 -6.845686188 1.837094185e-18)
(87.12635088 -6.814985899 1.464612551e-18)
(87.87293487 -6.852084944 -6.482809175e-19)
(87.74610554 -6.813671423 1.878148197e-18)
(87.04738681 -6.797520465 0)
(86.99793465 -6.803197246 -1.811715707e-18)
(87.10417652 -6.774686104 7.104769339e-22)
(87.08407641 -6.784588654 -3.630044893e-19)
(87.78329251 -6.811268605 1.886423895e-18)
(85.75497613 -6.609575472 1.600786211e-18)
(85.83518059 -6.645797963 0)
(86.7168438 -6.536080537 0)
(86.38904073 -6.599501893 -6.956697978e-19)
(86.30808605 -6.562359101 -1.39104039e-18)
(86.55076586 -6.662923126 0)
(86.47024685 -6.632742513 7.022127274e-19)
(86.79580135 -6.570951966 0)
(85.58167555 -6.521006912 4.007474923e-19)
(85.6729368 -6.567500856 1.200200431e-18)
(86.33550939 -6.809065335 -8.377442527e-19)
(86.38357668 -6.813902192 1.930776987e-18)
(87.310383 -6.761558983 0)
(86.98372279 -6.814908516 -1.442150093e-18)
(86.91431886 -6.788213099 7.31142979e-19)
(86.716514 -6.848936617 4.967107673e-18)
(86.76402617 -6.83710996 -1.342370756e-17)
(87.31472569 -6.767254375 0)
(87.03051562 -6.658705918 0)
(86.70843608 -6.715662434 0)
(86.63030386 -6.69056593 0)
(86.85817533 -6.763290077 3.601113953e-19)
(86.78411989 -6.739829498 -3.582982543e-19)
(87.10676212 -6.68386268 1.135255624e-21)
(86.21539779 -6.773160302 -1.599769796e-18)
(86.285531 -6.791650083 -1.210837791e-18)
(88.45617397 -7.415026694 0)
(88.97205912 -7.422033234 0)
(88.99538136 -7.457463241 9.145613903e-19)
(88.91517583 -7.340362183 0)
(88.94343916 -7.384294503 0)
(88.42368168 -7.379764679 -1.255225021e-18)
(87.48637559 -7.338150285 1.40746117e-18)
(87.53104403 -7.367803117 0)
(87.42817396 -7.089261397 1.743344086e-18)
(87.40894907 -7.141725563 3.501243258e-19)
(87.51020133 -7.418608655 -2.587616402e-18)
(87.1120026 -7.437909288 -3.827654157e-18)
(87.98824904 -7.502188262 0)
(88.8981114 -7.545277603 0)
(88.80855949 -7.584487409 0)
(88.99992098 -7.491303938 -2.278361792e-19)
(89.00001344 -7.537208209 5.830554459e-19)
(88.45331132 -7.513058039 0)
(87.65518736 -6.976650116 0)
(86.91663416 -6.929983833 -1.330604243e-18)
(87.2345502 -6.927448345 8.957724513e-19)
(87.52444213 -6.983879903 1.15938053e-18)
(87.96428263 -6.922955059 0)
(87.21247945 -6.890906127 0)
(87.17887182 -6.872146768 -3.683434528e-19)
(87.23734543 -6.922859831 0)
(87.24033921 -6.905174922 1.492697517e-18)
(87.99449341 -6.942257742 0)
(87.47986914 -7.001322437 0)
(87.47640018 -7.01118478 0)
(87.45018118 -6.980697341 2.016562971e-18)
(87.46135929 -6.983380082 -6.785227922e-19)
(87.93301815 -7.895302543 0)
(88.98682221 -7.970668018 5.860732721e-19)
(88.99502715 -7.998639945 0)
(88.95149107 -7.924356674 -1.150118552e-18)
(88.97235709 -7.946410534 -1.739640749e-18)
(87.92078348 -7.879116718 1.325247211e-18)
(87.87785115 -8.041888983 0)
(88.98411948 -8.138770137 0)
(88.95337965 -8.215190986 -3.134574853e-19)
(88.99648596 -8.032891469 -8.95258801e-19)
(88.99083002 -8.078936028 -9.09112554e-19)
(87.90410392 -7.980657147 -1.357349003e-18)
(99.74654766 0.6194941017 -1.349955123e-20)
(99.67846184 0.8645026524 6.479350946e-21)
(99.89000597 0.5374146756 6.517347412e-21)
(99.65043562 0.9601994719 -1.942363964e-20)
(99.58190318 1.292824409 -6.103797106e-21)
(99.85988786 0.7920508657 -3.655562904e-22)
(99.55541594 1.418217541 8.956657313e-21)
(99.51038054 1.838252005 -3.376819851e-19)
(99.84101158 1.106273092 4.868272427e-21)
(99.49592116 1.990258646 0)
(99.5241082 2.450393758 4.882862989e-19)
(99.85287157 1.444539487 -1.944869153e-21)
(99.54279861 2.596488715 -4.84712445e-19)
(99.41543512 0.8420782522 -1.423791478e-20)
(99.24497668 1.203731615 -1.399048e-20)
(99.58570865 0.9612124267 0)
(99.18315509 1.347942219 -3.427616983e-21)
(98.9910686 1.879887289 8.374377048e-20)
(99.45897161 1.446944238 1.181927954e-20)
(98.92889531 2.093792998 -6.781524867e-19)
(98.79201602 2.827374181 5.949304391e-20)
(99.36055387 2.082350925 -6.779728867e-19)
(98.76718703 3.100676458 1.341323897e-18)
(98.79406401 3.967034542 -1.174127453e-18)
(99.37788237 2.803193478 0)
(98.85089159 4.245103864 9.771280448e-19)
(98.97922255 0.9223500368 4.623664686e-19)
(98.65036131 1.387258635 1.103606044e-19)
(99.11103924 1.265455344 9.814541703e-20)
(98.52343566 1.588742644 -8.687938784e-19)
(98.12283186 2.355510583 -2.075917095e-19)
(98.79971256 2.014814622 -2.987320177e-19)
(97.98663243 2.676499084 1.980327541e-19)
(97.62921024 3.861791376 0)
(98.55202719 3.083562628 0)
(97.55480073 4.324602562 2.371800222e-20)
(97.6139474 5.820557983 3.201885721e-19)
(98.54832915 4.391620856 -7.175694057e-20)
(97.75813125 6.315535371 -1.506432102e-19)
(98.48797597 0.8173951087 -6.063546653e-20)
(97.93217595 1.344539078 -4.58058773e-19)
(98.48036113 1.399745056 4.429009395e-19)
(97.71700228 1.577929662 0)
(96.94533967 2.542749838 -4.417241462e-19)
(97.85767344 2.442009041 2.048896269e-19)
(96.655421 2.978154617 8.7059201e-19)
(95.7926309 4.695126319 -1.489017413e-20)
(97.24177827 4.11012928 1.613882282e-18)
(95.55900204 5.411833513 9.232789251e-19)
(95.34519021 8.007301736 0)
(97.18436661 6.355227429 -1.579528913e-18)
(95.54752313 8.966768762 0)
(98.01233776 0.5056097728 0)
(97.21355321 0.9869811312 0)
(97.74725154 1.289378584 1.373390118e-18)
(96.87361863 1.212976214 0)
(95.57240703 2.182633982 -7.706640159e-19)
(96.60849634 2.514597917 1.837966894e-18)
(95.04423616 2.629171788 5.273088814e-19)
(93.21177301 4.500250902 -1.157283949e-21)
(95.20590761 4.781231064 1.477400305e-20)
(92.54734097 5.370855187 0)
(90.70382768 9.174276456 -3.317943354e-19)
(94.47206691 8.504030642 2.575257502e-19)
(90.34209608 11.1376053 0)
(97.66452327 -0.01999737651 4.91817511e-19)
(96.65593605 0.2840585518 0)
(97.05233685 0.841729233 -4.753197922e-19)
(96.20773409 0.4321480141 -5.060670519e-19)
(94.44801215 1.060736616 1.397693397e-19)
(95.24748521 1.970886365 5.314220661e-19)
(93.70479394 1.341150251 0)
(90.88708334 2.432009536 0)
(92.5328244 4.174191058 -4.090347431e-19)
(89.69960797 2.883434557 -1.268501769e-18)
(83.6598131 4.536540973 -2.166909412e-18)
(89.0818116 8.841709292 0)
(85.61636503 9.231831114 0)
(83.22420759 14.41505394 0)
(88.6603453 14.4675541 0)
(97.54152754 -0.6957362912 5.572610405e-19)
(96.42643922 -0.6499764654 5.219845837e-19)
(96.56809371 0.06364403121 3.940695249e-21)
(95.93093785 -0.6206715668 -5.362958824e-19)
(94.02507949 -0.5147594427 1.517967018e-19)
(94.27047694 0.686346467 0)
(93.24103739 -0.488975096 -3.983771988e-20)
(90.43663189 -0.5772554393 4.05928311e-19)
(90.57557476 1.668058208 8.071473181e-19)
(89.20016696 0.995992063 0)
(87.83358697 1.071364575 0)
(87.95473243 2.216761638 0)
(81.9462451 2.098021636 0)
(80.30130733 1.923253742 0)
(80.17841087 3.574047169 0)
(97.65893069 -1.418270436 -9.969661454e-19)
(96.55124395 -1.625170629 0)
(96.42510611 -0.896711327 -2.394580535e-20)
(96.06706502 -1.705620593 -5.209537186e-19)
(94.27491358 -2.02446186 -2.946524985e-19)
(94.03506898 -0.9118453019 -1.469997304e-19)
(93.57531362 -2.172621009 3.204492594e-19)
(91.28335239 -2.825549835 -3.819242454e-19)
(90.58332261 -1.228055703 -4.072914248e-19)
(89.87215847 -2.085372589 -4.260067626e-19)
(88.95245901 -2.426902871 2.319308207e-19)
(88.56557313 -1.745305727 0)
(85.91594948 -3.699108167 -9.639789648e-19)
(85.55482585 -4.236440142 0)
(85.01689009 -3.973204947 0)
(97.99040864 -2.103008016 -4.708952226e-19)
(96.95949537 -2.515409884 5.001498206e-19)
(96.62961808 -1.858726678 -3.873747822e-21)
(96.51567753 -2.67804694 4.971712181e-19)
(94.91966372 -3.268158546 -1.424335377e-19)
(94.40827016 -2.361709136 2.954699335e-19)
(94.31637986 -3.50480308 3.021687086e-19)
(92.41322994 -4.340702898 -7.146982752e-19)
(91.55727914 -3.256875472 3.769465034e-19)
(91.15233358 -3.968181 4.2111419e-19)
(90.49066674 -4.32352492 4.242037234e-19)
(90.12347059 -3.936825013 -8.29188415e-19)
(88.48634199 -5.290785038 -4.880429445e-22)
(88.21942574 -5.643799934 4.086429543e-21)