/*--------------------------------*- C++ -*----------------------------------*\
| =========                 |                                                 |
| \\      /  F ield         | OpenFOAM: The Open Source CFD Toolbox           |
|  \\    /   O peration     | Version:  v2012                                 |
|   \\  /    A nd           | Website:  www.openfoam.com                      |
|    \\/     M anipulation  |                                                 |
\*---------------------------------------------------------------------------*/
FoamFile
{
    version     2.0;
    format      ascii;
    class       volScalarField;
    location    "0.81";
    object      nut;
}
// * * * * * * * * * * * * * * * * * * * * * * * * * * * * * * * * * * * * * //

dimensions      [0 2 -1 0 0 0 0];


internalField   nonuniform List<scalar> 
3019
(
1.155900345
1.155871079
1.155839891
1.155811348
1.156029964
1.156022196
1.156028399
1.156050004
1.156095473
1.156180261
1.156313276
1.156467199
1.155176943
1.155093392
1.155003361
1.154927822
1.155121878
1.155114742
1.155163638
1.155365691
1.155583132
1.155980842
1.156603936
1.157387631
1.154426817
1.154278759
1.154127327
1.15401409
1.154217129
1.154244653
1.154376934
1.154734589
1.155283893
1.156260171
1.157792489
0.9585983125
1.153653087
1.153454504
1.153255703
1.153127504
1.153329844
1.153437544
1.153731605
1.154394705
1.15556025
1.121367716
0.8267345684
0.6677012048
1.15286638
1.152603295
1.152361681
1.152236341
1.152492276
1.152732393
1.153363
1.154467331
1.156848321
0.8039168728
0.548119537
0.4034108999
1.152074796
1.151767415
1.151502416
1.151402675
1.151722841
1.152169591
1.153265754
1.15515915
0.9558837062
0.5900851593
0.35999951
0.2237342787
1.151275073
1.150924503
1.150646167
1.150597287
1.151043916
1.151776083
1.153525267
1.156496035
0.7939112606
0.4672092726
0.2532170517
0.1128049716
1.150504548
1.15012603
1.149858196
1.149882291
1.150493598
1.151586009
1.15416799
1.149303948
0.7190896056
0.4300251092
0.2371881889
0.09579718451
1.149781177
1.149374386
1.149121566
1.149275324
1.150078258
1.151616876
1.155114682
1.097000022
0.7070577724
0.4614718492
0.3147791728
0.230863145
1.149132511
1.148713334
1.148502614
1.148819364
1.14975574
1.151862785
1.156262431
1.077189165
0.7282511532
0.5231438987
0.4287770143
0.4571600327
1.148554448
1.148125269
1.147967623
1.148475714
1.149583839
1.152295701
1.157537008
1.075105222
0.7613013266
0.5823333114
0.5186048117
0.5474567218
1.148096199
1.147666769
1.14757062
1.148259068
1.149573671
1.152863639
1.158879671
1.08825189
0.7969067355
0.6239413564
0.5499071294
0.4760215301
0.2032914247
0.4372273335
0.5561195577
0.4838869874
0.09260531063
0.4007473489
0.4197779385
0.2382251527
0.5010397648
0.5800937264
0.4404382764
0.5155608333
0.2131732041
0.2453069257
0.5467104405
0.581913088
0.5953566841
0.5211390966
0.1326681748
0.1759476358
0.5737521631
0.462116383
0.07554415115
0.1013764019
0.07573424508
0.1931888325
0.03564513586
0.06827590716
0.2498556935
0.2838922606
0.354701865
0.2183312092
0.1979352648
0.2305400209
0.22231409
0.1791375853
0.2085579874
0.5391414093
0.1604983353
0.1328030672
0.1957448032
0.1628211422
0.1028654466
0.1308657119
0.5122765031
0.1040495805
0.07758922767
0.1312383514
0.1054989141
0.07374333433
0.4598862264
0.05122653334
0.07649104913
0.05278220981
0.2888614536
0.2128324215
0.1119399979
0.1226101292
0.07550377845
0.04214434083
0.3246611529
0.2885194608
0.2129627166
0.1883998227
0.08421855241
0.1383495781
0.04193760983
0.01394057354
0.02441041967
0.04302153617
0.03463567015
0.09005102417
0.2610088597
0.2469049445
0.05192008709
0.04227962815
0.1134228047
0.06830993105
0.06468309884
0.03996186838
0.06773444602
0.1286731961
0.04336413314
0.02553327957
0.0159873198
0.05759671383
0.02845930659
0.0483034041
0.02713439058
0.06824009511
0.2132677986
0.03038537495
0.2123748665
0.243173459
0.03437349331
0.03886535269
0.03083457559
0.03383435013
0.2378911003
0.1468369343
0.145048298
0.1804416054
0.1783861372
0.09413100296
0.09224034924
0.1177120464
0.1159748162
0.2421752634
0.0692228842
0.06835665942
0.01757437227
0.01395448528
0.1480260307
0.3353642637
0.3212112857
0.3543947835
0.3401052775
0.1515367695
0.2794677932
0.2654851284
0.09138755658
0.1915993406
0.3734999893
0.3591249675
0.05864669014
0.06067650252
0.1380112131
0.1169029755
0.2979677041
0.2840425435
0.316537878
0.3026172196
0.1188105381
0.09987328836
0.03548645099
0.03620958153
0.02057611768
0.02137004073
0.08210879345
0.125656577
0.0543878106
0.05823095871
0.03651770302
0.0371981582
0.1098563577
0.07332644958
0.01994165147
0.02043096247
0.01950536848
0.0619523881
0.038528071
0.04035440278
0.01637194977
0.01782041167
0.04615880902
0.04516326848
0.07110086746
0.08921259862
0.1125149007
0.06665297471
0.08340474472
0.07221179537
0.06169510753
0.1505761352
0.1367564848
0.1242621228
0.1545817447
0.06160454465
0.04174759464
0.04882125362
0.06100835928
0.0361438422
0.04073562512
0.028500607
0.09746318579
0.08455008026
0.1047252366
0.1002152054
0.02966001289
0.07533642206
0.07287722425
0.08088247707
0.07622822424
0.03601953216
0.1243746019
0.1189158091
0.133378153
0.12633745
0.03666223806
0.03203151287
0.1107377158
0.1063058368
0.1171902543
0.1122986196
0.03240166422
0.04213174895
0.04133480546
0.04436147954
0.04240597869
0.03988976612
0.03882197513
0.04107391471
0.04016276919
0.06917686192
0.06705632341
0.07211688729
0.06992286369
0.06126628405
0.0471215082
0.06616606961
0.06394334723
0.03452376779
0.03513029352
0.09844903267
0.02048632224
0.02028838949
0.02112548175
0.02067076405
0.01965530326
0.08451848421
0.02194975727
0.03247182722
0.03935759364
0.05246402649
0.1237271484
0.03601585382
0.02320249094
0.03868290071
0.03572421841
0.02188403535
0.02135912418
0.02278688758
0.0221043559
0.1113393629
0.03743236218
0.03832693472
0.0193384077
0.01983251264
0.07236101396
0.0641373723
0.01845978488
0.01926972204
0.227040882
0.4118979821
0.3974873224
0.4310990992
0.4167148678
0.2315876346
0.3926838699
0.3782694885
0.1956476896
0.1543281752
0.06663553523
0.07062318362
0.07382777174
0.08509928591
0.1698595136
0.04057140748
0.04959871174
0.03777871599
0.043280336
0.06934979723
0.1000152088
0.09828230708
0.04162688847
0.06902584578
0.06499506532
0.0970829705
0.09476967927
0.06601182151
0.03649920291
0.04414501416
0.03802251149
0.02905349157
0.03005317827
0.02460659039
0.04881093513
0.04719791218
0.05582958865
0.02278120451
0.033117294
0.03144857033
0.05218957668
0.05178552637
0.03012184983
0.02770886895
0.02728570626
0.03040151809
0.02968030126
0.0349562219
0.05898545893
0.05828971494
0.06316709184
0.06228349252
0.03804834249
0.0311855629
0.05354552913
0.05298146314
0.05757698958
0.05687821809
0.0333378416
0.06386896217
0.06588649105
0.1524010825
0.1396840225
0.06128477354
0.0632312276
0.09251413714
0.09599903285
0.1869340131
0.02566997364
0.02553126227
0.02704112241
0.02682307994
0.01953070546
0.02525486488
0.02515605984
0.1720015982
0.08746691431
0.09121582241
0.03564451355
0.05457762654
0.05410440377
0.02082543272
0.03423321435
0.03399733559
0.03549218129
0.03457137743
0.02102552711
0.01977180415
0.0195616476
0.02012268662
0.03354672045
0.03333528471
0.03385560805
0.03368279138
0.02025227513
0.02064217766
0.020063984
0.03007642983
0.02158168166
0.01551192908
0.04032365888
0.03072823326
0.01087211693
0.01217097359
0.01898368464
0.02134452281
0.01297135227
0.01596681353
0.01497966301
0.04759279384
0.04394165268
0.08638112247
0.0767069139
0.04370199499
0.06570557251
0.09370126308
0.0895495083
0.03664361144
0.03342420104
0.03266144464
0.02359494291
0.029850315
0.04740778355
0.04643017009
0.04028631517
0.04744259853
0.04765381509
0.02998913246
0.02962305286
0.05069983105
0.05069053024
0.02842030029
0.02801390723
0.0292157605
0.02877938943
0.06027808756
0.05960315163
0.03539037011
0.03733853637
0.06160181134
0.06094379629
0.05488161287
0.05427314083
0.03166012912
0.03282034639
0.05616693044
0.05552091819
0.04185278457
0.02438948473
0.02465732934
0.023978197
0.02417823181
0.04159995465
0.0432279762
0.02557927542
0.02604438432
0.02491637515
0.02522295025
0.0427361984
0.03949960325
0.02277807147
0.02301754624
0.02241663285
0.02264592427
0.03926785225
0.04078666238
0.02359468125
0.02378028536
0.02317703471
0.02341110999
0.04051086731
0.02611001531
0.02593036508
0.06847866033
0.04524196115
0.04557570025
0.04450977028
0.04479778586
0.06769826564
0.02655897741
0.02635551535
0.02404407136
0.02528697981
0.05912513665
0.04068108349
0.04036534411
0.0269203332
0.02830426167
0.05254806944
0.06566325781
0.04377803212
0.04398130487
0.04303129489
0.04297725241
0.06434224207
0.02482498512
0.02487575682
0.03445550859
0.05199067057
0.05167682647
0.05340087359
0.05303770877
0.0350332987
0.02044623548
0.02021383169
0.02100825049
0.02073791749
0.02078303853
0.01637500963
0.02302895924
0.0424012032
0.03775693324
0.04952553632
0.04774825023
0.03253067079
0.02518085834
0.01758534394
0.02256412149
0.02392859463
0.0380008522
0.02207568608
0.0223578329
0.02142931918
0.02213370528
0.03806774802
0.02172451262
0.02150051774
0.02253179516
0.02229096385
0.01955399501
0.03278398982
0.03244395545
0.03318941866
0.0329214485
0.0196365066
0.01899610473
0.0317660087
0.03002538083
0.03231617144
0.03177201701
0.01898784085
1.154869775
1.155178738
1.155516821
1.155316009
1.155879378
1.15586505
1.156111615
1.156995044
1.156434353
1.157359772
1.082885728
1.157186921
1.042887728
1.154444621
1.155110454
1.15511261
1.155415544
1.156684923
1.155969256
1.157226258
0.9746378168
1.157384658
0.9106572996
0.7676855349
1.002454182
0.7331352412
1.154403877
1.155780606
1.155191302
1.156441241
0.9647847569
1.157098384
0.8745788179
0.6625317406
0.8875479786
0.6089771011
0.489740511
0.6955904051
0.4618104113
1.154918674
1.122821401
1.156083867
1.012085309
0.7135995382
0.8913240024
0.6339096589
0.4472601295
0.5998687233
0.3997859842
0.2887097046
0.431523984
0.2620309512
1.156101432
0.9346019492
1.069444436
0.8239463207
0.5599907972
0.666896269
0.4897324263
0.318903285
0.4071827798
0.2722238316
0.1621922834
0.2502351525
0.1349783473
1.157671402
0.8280460773
0.9017945684
0.7304271238
0.4954884349
0.5352719712
0.4319268089
0.2744250253
0.2996238815
0.2323687062
0.1099029418
0.1429985908
0.1001824621
0.06060158934
0.09537052852
1.106983417
0.7901355245
0.8138097446
0.7056053807
0.5028768832
0.4913004128
0.4490116387
0.3215811236
0.2780253343
0.2478782844
0.2148211927
0.2018622821
0.1012110847
0.08710983719
0.07865094651
1.080012902
0.794762454
0.7883013986
0.7212063319
0.5498908913
0.5126171921
0.5069465341
0.4161531029
0.3428559154
0.3426598574
0.322229423
0.2894019983
0.2606168556
0.262189655
0.2258021166
1.073027309
0.8175482082
0.79925076
0.7526209814
0.6044021111
0.5638281256
0.5689575404
0.5051208012
0.4407123781
0.4553345198
0.4542198391
0.4233696348
0.4748720638
0.4728352464
0.474243121
1.082414853
0.848187777
0.8246604682
0.7880796176
0.6490915664
0.6167755431
0.6152082498
0.5522287331
0.521554283
0.5320498999
0.5392548704
0.5257014942
0.5387367843
0.3980241921
0.4122583482
0.8563472585
0.6583005397
0.5568384677
0.5416671574
0.5549235827
0.5434891237
0.4632170742
0.321671168
0.3361289408
0.1933156723
0.1655147958
0.178434599
0.464237003
0.4591301038
0.41168417
0.4169530978
0.4311005343
0.5647921539
0.3408743462
0.3551841805
0.4941297338
0.04117435815
0.05454958133
0.09578470738
0.08066036854
0.05117134093
0.3905619777
0.3564269636
0.3717566341
0.3488585368
0.3367032986
0.3966107052
0.2596619762
0.3174617801
0.3214927646
0.5065067707
0.4822618783
0.4796813865
0.5205140394
0.4781122669
0.5281183249
0.4118989596
0.4686569744
0.4998120895
0.4544264766
0.4681126779
0.4939552947
0.2179141799
0.2803112731
0.2754821102
0.3088323024
0.3040943678
0.2407177897
0.5495187192
0.5469646545
0.5410813881
0.6089121536
0.5514529814
0.5640157937
0.5289411186
0.561206761
0.6175191474
0.3789715979
0.393289566
0.530007044
0.1383695079
0.2085474879
0.2046291846
0.2346671935
0.2296337512
0.1706833995
0.5486970653
0.5508717076
0.5448242366
0.3026682593
0.31697116
0.4596348979
0.08297410291
0.1453313198
0.1472858892
0.1682546848
0.1641535733
0.09703230036
0.08734903713
0.08412895238
0.07287752466
0.1740718799
0.1816106145
0.1650771738
0.03744453646
0.03072611416
0.02913511582
0.06216816821
0.05420784869
0.06108899138
0.2633911768
0.4505258976
0.435900471
0.4054059031
0.4550496807
0.2681905695
0.3794896313
0.4464582331
0.3789244837
0.2119321656
0.128838818
0.1345561608
0.1021683588
0.1061651133
0.2046883911
0.2544994325
0.1622841351
0.1706859418
0.1364465683
0.1422149569
0.2277257842
0.183575567
0.2433766629
0.2386363503
0.2707128995
0.265999462
0.2041387534
0.5639259419
0.4357624417
0.4498083217
0.1583517621
0.1279491138
0.1300825636
0.1061854501
0.107657123
0.1346047438
0.1890876665
0.09722300719
0.100894805
0.1325360096
0.1351432073
0.1651896361
0.1080247964
0.1761742765
0.1720768577
0.2006743242
0.196705128
0.1256580967
0.5029354432
0.3599565403
0.3742234616
0.102654998
0.07770835736
0.07866198789
0.05398484325
0.05473302824
0.07882169841
0.1294703399
0.1033102629
0.1048502878
0.0797075021
0.0806998344
0.1069307789
0.146681469
0.2979618735
0.05027478173
0.03167463866
0.03200633377
0.0754073372
0.05279361966
0.05338154362
0.03285907756
0.034944454
0.05530478115
0.2588434318
0.233015556
0.2658000757
0.1528524905
0.1988553649
0.2404920632
0.1571841594
0.1872977349
0.1379583348
0.1062807714
0.09462566276
0.1097908863
0.05426918127
0.07816110032
0.09457042998
0.0606169135
0.0709150931
0.04927430477
0.3397577248
0.3008099221
0.2920195267
0.3041582945
0.30496373
0.3802312679
0.2178841507
0.2798275031
0.3099259648
0.1333002684
0.1501545766
0.1962054974
0.1040859007
0.1349674886
0.1183330435
0.1567983731
0.1421944612
0.1222127597
0.01412192612
0.01154634291
0.01147545904
0.02227553413
0.0198143583
0.02169855828
0.03140250278
0.02029161619
0.03858200453
0.02407792617
0.03539308468
0.01706914501
0.02168398965
0.03730930963
0.1529952241
0.1479105871
0.08517640284
0.2561545623
0.2008706503
0.205883208
0.1919221158
0.1972099025
0.2516678872
0.1097768788
0.09181389526
0.09974955847
0.06235802672
0.06988830125
0.07539095625
0.1454249563
0.1580563099
0.1202064567
0.03783647333
0.0341289881
0.03971636146
0.01991185821
0.02702565232
0.03348502227
0.02368495075
0.02509879344
0.01840482729
0.05096848457
0.05244812281
0.05682539669
0.0315378135
0.03434150638
0.03133419456
0.05440607635
0.04732054918
0.04173509815
0.1164796238
0.1263837496
0.2099226771
0.2068265009
0.1075899609
0.1133797668
0.1527645902
0.159786097
0.2485433015
0.2325606608
0.1442178997
0.1505478343
0.1179169425
0.1194648198
0.1486799532
0.1432353948
0.1148842671
0.1163972881
0.1499704276
0.1518966905
0.1826259488
0.1762232246
0.1461607508
0.1480544359
0.07152944617
0.07255285057
0.09563179077
0.08995914864
0.067248751
0.06955989254
0.08943270891
0.09188985907
0.1195245791
0.1143651784
0.08613101972
0.08756286805
0.1875169848
0.04933443112
0.05005580012
0.07036330591
0.06705905403
0.04791440422
0.04894786463
0.01493801787
0.01465961645
0.2164430065
0.2124644721
0.1404488517
0.3306198242
0.2714551385
0.276033923
0.2625123034
0.2669534203
0.3259059322
0.349583551
0.2898993986
0.2947227334
0.2806987762
0.2854127503
0.3448596195
0.1683752817
0.225953481
0.2207428544
0.2747713127
0.2185507115
0.2230442394
0.2097701859
0.21443418
0.2702500798
0.09564827893
0.1605295378
0.1561879088
0.2522946009
0.2476604262
0.1873419256
0.3686908414
0.3086834683
0.3134745207
0.2992464736
0.3040422668
0.3639314846
0.05942982338
0.08240854149
0.08124821779
0.08448233904
0.08336470686
0.05997606468
0.1362388578
0.1090240973
0.1104964338
0.1846140417
0.180324149
0.110191743
0.2933212416
0.236121428
0.2405884298
0.2272892496
0.2317387487
0.2887096149
0.3118814156
0.2537206548
0.2581023135
0.2449794029
0.249345566
0.3072414029
0.1239587344
0.1927240041
0.1887142828
0.07575820105
0.07664636947
0.101220634
0.05576966423
0.0552268763
0.03600468264
0.08025394125
0.05572505313
0.05735053435
0.09983496167
0.1018061223
0.1277786574
0.05673913991
0.07794622917
0.07585880557
0.08036689411
0.07901401506
0.05707724559
0.03672937915
0.05695792852
0.05638895424
0.05815064944
0.05756429171
0.03699533515
0.1083969892
0.08174199364
0.0827649182
0.051665513
0.05225283339
0.0743950132
0.05880954126
0.03911760843
0.0439814135
0.01407935826
0.01233766455
0.01491259368
0.009333397984
0.0101257138
0.01968498275
0.0176129393
0.01602972859
0.09734634892
0.1017227528
0.07007762677
0.09560348268
0.09913144438
0.08986490246
0.1221851089
0.1095912824
0.1033142988
0.07293508867
0.0688476116
0.06365318177
0.08184863713
0.07487223491
0.07834058532
0.07439628068
0.0782609565
0.08733223966
0.1459598036
0.1106991807
0.1168421227
0.09926493249
0.1040719379
0.141049632
0.1394054921
0.1267573092
0.1298159457
0.1207598116
0.1245762522
0.1587257872
0.04401904247
0.04793061725
0.04598068196
0.0519994324
0.04971969147
0.04652487061
0.0590235038
0.05546490065
0.05754560223
0.09441367143
0.06851054816
0.07106606463
0.05455805845
0.06082356354
0.08967230944
0.1034504697
0.07645381346
0.07716600997
0.07425471031
0.07480022829
0.1016456693
0.07449073084
0.0481944466
0.04859160253
0.0473908252
0.04781660454
0.07367857514
0.07866331262
0.05001328343
0.05138387113
0.04896408049
0.04939655046
0.07727009519
0.122491545
0.0891684322
0.09035701881
0.08688200848
0.08802736979
0.1206811389
0.1307003402
0.09436918778
0.09629822312
0.09158747798
0.09289166024
0.128415759
0.1092488736
0.08038927754
0.08138810488
0.07837124814
0.07928609863
0.1077012079
0.1155142183
0.08461522631
0.08573506153
0.08244294664
0.0835006483
0.1138766374
0.07138324009
0.04669515867
0.04703171339
0.04597343397
0.04631697427
0.07064213676
0.0971278109
0.0738348948
0.07466167074
0.06005639628
0.06384121717
0.08731858349
0.04182688664
0.06580750308
0.06294735329
0.07343628004
0.06979573578
0.04670285507
0.1211412609
0.09476060638
0.09751571034
0.08382749213
0.08492158894
0.1128297202
0.03764120597
0.05941360384
0.05876871619
0.06123557501
0.06018975277
0.03791445995
0.07127294089
0.05052346809
0.05115053546
0.04558537414
0.04756990545
0.06601504659
0.2898573242
0.2850932517
0.2225100102
0.407089969
0.3471775468
0.3520114338
0.3374887992
0.3423352293
0.4022900483
0.4262726329
0.3664810911
0.3712966067
0.3568431155
0.361668935
0.4215017152
0.2361538147
0.2993592444
0.2946100767
0.387868997
0.3278099332
0.3326451407
0.3182066793
0.3230164784
0.3830759852
0.1999031536
0.2613987979
0.2567664038
0.1243056491
0.1260385371
0.1562756776
0.06752172231
0.09609428787
0.09469661331
0.09988708149
0.09775392762
0.06871355999
0.07829863205
0.1059299614
0.1026870841
0.1115917117
0.1089982675
0.08242391285
0.1675428112
0.137719577
0.1400991407
0.03807636359
0.0361661949
0.03425419162
0.04186944849
0.03948511765
0.04143328095
0.0344897033
0.03724275099
0.04034196852
0.06452253406
0.09105647826
0.08991350284
0.09342638061
0.09221953037
0.06518633381
0.1505311619
0.1210393115
0.1226407911
0.1119205425
0.1134125012
0.1414966536
0.06195562252
0.08661888442
0.08550865957
0.08880413559
0.0876901131
0.06258476215
0.09360591114
0.1219560106
0.1203892335
0.12521805
0.1235986171
0.09484236634
0.184720098
0.1538464764
0.1558195056
0.1422557276
0.1442301247
0.1741809333
0.08867230363
0.1154952404
0.1137861157
0.1187504544
0.1172190267
0.09019919209
1.155565264
1.15557359
1.156023663
1.155592146
1.155619718
1.156039493
1.155660127
1.155720122
1.15606868
1.155804726
1.155919676
1.156132093
1.156069887
1.156258022
1.156240815
1.156480427
1.15673248
1.156391561
1.15700128
1.157279121
1.156525288
1.154657944
1.154658383
1.155110697
1.154672285
1.154704504
1.15513275
1.154753805
1.15480274
1.155331328
1.155185554
1.155243163
1.155408461
1.155467071
1.155578062
1.155666056
1.155977043
1.156162915
1.156120886
1.156768483
1.157023034
1.156799993
1.15779811
1.13738321
1.1576132
1.153765513
1.153783561
1.154217486
1.153830591
1.153913795
1.154298124
1.154025986
1.154292651
1.15464968
1.154617036
1.154744099
1.154839498
1.155285519
1.155526357
1.155483741
1.156475965
1.156898881
1.156585915
1.090545806
1.026214514
1.112500013
0.8775125389
0.8465717751
0.9202132958
1.15290888
1.152960516
1.153362529
1.153066137
1.153238962
1.153560735
1.153505694
1.154093112
1.154212661
1.15437269
1.154635331
1.154615476
1.155772257
1.15630654
1.155994481
1.035944902
0.949999811
1.037073243
0.7482970564
0.698643617
0.7744919436
0.5997317078
0.5741105594
0.6347678655
1.152115344
1.152222931
1.152579781
1.152426742
1.152749698
1.152971651
1.153274319
1.154334684
1.154103724
1.154574187
1.155091961
1.154907497
1.131252418
1.022979177
1.091764481
0.7409826591
0.6664207565
0.7269121586
0.4930636585
0.4491549415
0.5031604866
0.3516278433
0.3288799275
0.3813853088
1.15140063
1.151589864
1.151892432
1.151941345
1.152493283
1.152596424
1.153342617
1.155152093
1.15448313
1.155441587
1.156354016
1.155965685
0.9057482504
0.8010241518
0.848163158
0.5515164456
0.4850098812
0.5218660596
0.3260901636
0.2850759375
0.3189258439
0.1900727111
0.1679619922
0.2025942211
1.150782826
1.151087096
1.151325893
1.151638901
1.152499961
1.152472029
1.153793116
1.156447383
1.15544273
1.156880867
1.105079025
1.134836201
0.7677882977
0.6750763545
0.6976643658
0.4500708334
0.3893409796
0.4053389528
0.2400055806
0.1987983394
0.2130807142
1.150270145
1.150746226
1.150910636
1.151550585
1.152786014
1.15262773
1.154594918
1.157953822
1.156814726
1.134226932
1.02147323
1.037270485
0.7115609227
0.6300111699
0.6346991193
0.4327767219
0.3794797235
0.3745019641
1.149869426
1.150583315
1.150667966
1.151680531
1.153323213
1.153057865
1.155638911
1.159494548
1.158341155
1.090454358
0.982246123
0.9863848645
0.7101067583
0.6402170914
0.6350953736
0.4756608656
0.4335937764
0.4164917032
1.149627185
1.150598222
1.150599085
1.152015162
1.154062162
1.153723744
1.156831061
1.160998072
1.159873335
1.074216883
0.9745929796
0.9746191607
0.7359527219
0.6757788946
0.6659392866
0.5391364655
0.5070968039
0.4889469901
1.149565323
1.150783499
1.150696075
1.152528738
1.154948893
1.154571596
1.158095206
1.16242315
1.161346671
1.075798343
0.9846729776
0.9809223499
0.7700157965
0.7158205503
0.7060111928
0.5944375333
0.5671745546
0.5545635423
1.150928783
1.155539128
1.162742156
1.092930062
1.008209187
1.001208716
0.8064410152
0.7541470572
0.744519291
0.6319727609
0.6021440075
0.5953232537
0.07409149869
0.07392213406
0.0916211076
0.06795302823
0.05615289103
0.3975847608
0.3851509962
0.4057867454
0.2447095852
0.2672840262
0.2652150873
0.5618003572
0.5424881128
0.557534371
0.4273205505
0.4464758267
0.4602622121
0.591430646
0.5962858321
0.591053993
0.5731771224
0.5831448999
0.6069483274
0.1345043796
0.161568977
0.1596677131
0.5880118708
0.5808978681
0.563270428
0.07781444072
0.1019374669
0.1001256748
0.1270444969
0.1253058015
0.09990953671
0.2543791959
0.3183208197
0.3135645987
0.3480612143
0.3428501079
0.2781654056
0.1660837738
0.1682613053
0.2002251041
0.1934812058
0.1618815148
0.1639658502
0.1044321422
0.1305788976
0.1287872553
0.1578366687
0.1559075814
0.1291036565
0.0983783788
0.0967767676
0.07237328633
0.4145140138
0.1898717219
0.2027374721
0.2225717227
0.1323715809
0.1366965441
0.1163123985
0.06749101296
0.07569506708
0.08301215998
0.04938144038
0.05074461983
0.04401452062
0.2939343894
0.3581070145
0.3528997656
0.209533202
0.2308278587
0.2439882407
0.1684188672
0.171035891
0.1890226518
0.09170969213
0.1011000744
0.09401741752
0.02828359049
0.02836479105
0.03476187209
0.1135101211
0.1117324895
0.08853141515
0.02319982978
0.02599605726
0.02877823342
0.01753175504
0.01852662051
0.0162658957
0.1884272611
0.1938566036
0.2135445997
0.210866157
0.1807930294
0.1842119824
0.01167699373
0.01173560918
0.01399965322
0.1709177918
0.1699353307
0.1451611742
0.1560088032
0.1713925798
0.1715336897
0.09285047193
0.116866286
0.11507346
0.1427821992
0.1406989842
0.1147782682
0.1205704854
0.1466376503
0.1446918975
1.154956273
1.155091608
1.155020224
1.155270571
1.155169423
1.15505603
1.155456254
1.155303102
1.15538453
1.155481718
1.155514857
1.15537768
1.155837252
1.155657338
1.15566362
1.155755269
1.155688316
1.155834852
1.156383808
1.156246484
1.156019794
1.156745483
1.156471817
1.15666785
1.156264815
1.156337776
1.156563066
1.157738823
1.157332393
1.157005642
1.15744482
1.157651205
1.144769942
1.156987115
1.157248101
1.15755102
0.9962708977
1.069362816
1.128669905
1.050896113
0.9722143732
1.157849083
1.127149665
1.154629309
1.154672886
1.154519018
1.155074006
1.154857619
1.154850904
1.154964029
1.154896644
1.155076241
1.155769535
1.155619055
1.15532721
1.156342635
1.155957965
1.156183466
1.155709626
1.155803383
1.156120007
1.125341114
1.157313913
1.156811446
1.066029203
1.138843762
1.048288343
1.156956739
1.157367249
1.155544894
0.8548553722
0.9391905757
0.9994155402
0.8420141395
0.8885868015
0.8081476481
1.058817446
0.9725306769
0.9210385586
0.7009394953
0.7737271607
0.8023023065
0.7567968402
0.6757117757
0.9023498808
0.8342398692
1.15477831
1.154691008
1.154377006
1.155516322
1.155067132
1.155232356
1.154880129
1.154950008
1.155324193
1.157139028
1.156724718
1.156057337
1.044460228
1.139111417
1.063236308
1.156521062
1.15693026
1.125540299
0.7944854616
0.8688105285
0.9521602192
0.731256478
0.7954046533
0.7241003703
0.9580942954
0.873433716
0.8062711389
0.562715946
0.6279067307
0.6756719834
0.5541845689
0.5875376302
0.5231912497
0.7310826812
0.6571597534
0.6237975832
0.443222258
0.510447827
0.5284430184
0.4867682036
0.4318412689
0.6019053758
0.5393599582
1.15562677
1.155332834
1.154722888
1.156908305
1.156073174
1.156477291
1.155442474
1.155721973
1.156492582
0.9023622999
0.9606764102
1.071477398
0.7643600581
0.8577244878
0.8027755796
0.9894892217
0.9182825171
0.8238909331
0.5627014869
0.6115712345
0.6831769223
0.4926533537
0.5491988533
0.5017725513
0.6592024683
0.600965397
0.5433976131
0.3568985656
0.4007714742
0.4436877387
0.3312916177
0.3633236703
0.3202468776
0.4644479694
0.4112290477
0.3789316251
0.2405800016
0.2828118806
0.3046117887
0.2660382601
0.2242250409
0.3699811935
0.3134706867
1.157158539
1.156745096
1.155759163
0.9749111963
1.090719869
1.0531552
1.156885059
1.134615925
1.019723198
0.7259690029
0.7606142952
0.8625864408
0.5892227642
0.6700945636
0.6385704144
0.7527189848
0.7082146365
0.6249025403
0.4263142779
0.4531117693
0.5175370722
0.343513914
0.3950772688
0.3699241453
0.4613050163
0.4246538505
0.3730437372
0.2328643901
0.2565094155
0.2969038747
0.1876337964
0.2197827071
0.19588727
0.2822426928
0.2489921815
0.2168966325
0.1118366838
0.1382655329
0.1591874535
0.1232017827
0.09518617021
0.1868714198
0.151862875
1.055571571
1.078040566
1.157274002
0.8472197798
0.9599264426
0.9378699775
1.018347237
0.9871323092
0.8717581186
0.6433619432
0.6565311815
0.7464862157
0.5038611444
0.5762314485
0.5656103687
0.6121422561
0.592563988
0.5174790106
0.3742336372
0.3791497817
0.4385894881
0.2770494874
0.3254304416
0.321856118
0.3497465309
0.3348902989
0.2857092313
0.1900295851
0.1902071518
0.23262115
0.1159554167
0.1536559041
0.1510420969
0.176683486
0.1634789133
0.1260518629
0.06905738969
0.08105075577
0.07477765524
0.9952319177
1.007558387
1.119570085
0.7947843145
0.8951227133
0.8862414536
0.9207740268
0.9068071867
0.8031419062
0.6306567447
0.6280305766
0.7064678916
0.4953709303
0.5580261253
0.5633113392
0.5592315189
0.5570815298
0.491612613
0.4012578552
0.3885563559
0.4391364654
0.3030143638
0.3432380152
0.3587320528
0.3240396924
0.3314422304
0.2880365922
0.9759463766
0.9788050991
1.085282067
0.7913320162
0.8787266923
0.8791541351
0.8807738309
0.8792105339
0.7890716771
0.6564496748
0.6475617187
0.7149756014
0.5363339949
0.5882143099
0.5994996862
0.5704717921
0.5783677849
0.5237875818
0.470348909
0.4517438494
0.4909634983
0.3910627637
0.4185425798
0.4402109545
0.3769021571
0.3971625887
0.366288745
0.9778554645
0.975811282
1.074057328
0.8108640381
0.8876612318
0.8922654281
0.8808560766
0.883806281
0.804703576
0.6959560782
0.6858453056
0.7441382795
0.5913554014
0.6350478007
0.6466705128
0.6112763208
0.6231831254
0.5777484224
0.5402071363
0.5243139349
0.5545125807
0.4858222246
0.5013001638
0.5187158136
0.4615579349
0.482093797
0.4641504191
0.4775295648
0.4747764786
0.491389254
0.4608759532
0.4758486948
0.4744486811
0.994850975
0.9892494778
1.079755372
0.8398357943
0.9095656411
0.9167145078
0.8974898462
0.903271086
0.8320697284
0.7352838083
0.7255475077
0.7788884146
0.6390466252
0.6790473097
0.6890689999
0.6579503522
0.6686831388
0.6282674187
0.5874187549
0.5781339606
0.6054111756
0.544989895
0.5577046358
0.5661403759
0.5340305379
0.5470287789
0.5348878639
0.4027929315
0.4581817964
0.4533868621
0.4674436184
0.462689391
0.407500369
0.9239875149
0.931922513
0.865431984
0.6984381168
0.707852723
0.6671893851
0.5725849688
0.5779571848
0.5602557501
0.3265975588
0.3821292008
0.3767660131
0.3918062619
0.3869562583
0.3313150868
0.4216887326
0.4766265179
0.4719205991
0.4856938497
0.4810609679
0.4263765598
0.3456877549
0.4014403743
0.3964131425
0.4110260128
0.4061390015
0.3504255263
0.04457064243
0.05959379862
0.05963353564
0.06791163083
0.06283674926
0.04848909557
0.09355034474
0.07597857298
0.08062837862
0.07059247225
0.06137004378
0.07205553656
0.04303922445
0.05187604859
0.06062299631
0.04570103619
0.03699125185
0.3396948217
0.3620433139
0.3740400327
0.3957438641
0.3789424078
0.3753443975
0.2932489632
0.2919128583
0.3154792092
0.506472869
0.5236186147
0.5415051491
0.5006247003
0.5063845617
0.4945752991
0.5366279466
0.5278212811
0.5063160562
0.4337322596
0.4345828926
0.4195050726
0.4716527079
0.4579849399
0.4462841632
0.4798743522
0.4673746667
0.4860198886
0.4590496286
0.5123672847
0.5077525925
0.492362975
0.5132818808
0.4635809414
0.599616588
0.5974872149
0.5999449123
0.5658909972
0.5737552866
0.57914588
0.5702478151
0.5786545045
0.5523254977
0.548774748
0.5587331947
0.554713919
0.5706254169
0.5718705154
0.5440432664
0.6148745511
0.5927662336
0.5962604191
0.3837590618
0.4394869754
0.4346389333
0.4488558531
0.4440444159
0.388508284
0.1652016772
0.1633744533
0.1364033899
0.5637391238
0.5647661635
0.5740598291
0.5474929279
0.5536147892
0.5495392949
0.5556149886
0.5716944783
0.5646387616
0.3073599058
0.3640636502
0.359875049
0.3725443242
0.3672046393
0.3120221904
0.1060941437