/*--------------------------------*- C++ -*----------------------------------*\
| =========                 |                                                 |
| \\      /  F ield         | OpenFOAM: The Open Source CFD Toolbox           |
|  \\    /   O peration     | Version:  v2012                                 |
|   \\  /    A nd           | Website:  www.openfoam.com                      |
|    \\/     M anipulation  |                                                 |
\*---------------------------------------------------------------------------*/
FoamFile
{
    version     2.0;
    format      ascii;
    class       surfaceScalarField;
    location    "0.6";
    object      phi;
}
// * * * * * * * * * * * * * * * * * * * * * * * * * * * * * * * * * * * * * //

dimensions      [0 3 -1 0 0 0 0];
oriented        oriented;


internalField   nonuniform List<scalar> 
6430
(
-0.007779435168
0.933302649
-0.01576791576
0.9327713141
-0.02392239906
0.9315874636
-0.008586554645
0.9297103819
-0.02404151892
-0.4592721681
0.4605519606
-0.009866347193
-0.4570510718
0.01129153106
0.4586568929
-0.01289735213
-0.4494033085
0.01454490886
0.4483834725
-0.006558678624
-0.00697012665
-0.2048795492
0.004725748762
0.2037070828
-0.003560384042
-0.1945449215
0.002503836143
0.1942723929
-0.002247189797
-0.2026298017
0.002749347357
0.2020784923
-0.002210372203
-0.2166895835
0.00553814721
0.2179660305
-0.003407522908
-0.003407071363
-0.052606589
0.002796521398
0.05269960595
-0.00288953834
-0.004269074876
0.9375717238
-0.008669040499
0.9371712797
-0.01333761048
0.9362560336
-0.009116387548
0.9348094847
-0.009320325782
-0.4638798321
0.4652369796
-0.01047353494
-0.4620516482
0.01198930587
0.4636920713
-0.01362972894
-0.4487289097
0.01542216355
0.4519196229
-0.008984817226
-0.009635716308
-0.2012484278
0.009462357446
0.2011761207
-0.00939898588
-0.1922141799
0.008304285787
0.1916708903
-0.007772877207
-0.2048038692
0.006278467789
0.2044467229
-0.005928681713
-0.2222946431
0.005932299853
0.2235802183
-0.003612329266
-0.003605545788
-0.05497497601
0.005989524803
0.1103947628
-0.05494710726
-0.003226195352
-0.00323600896
-0.00444285041
0.9420145743
-0.009012072882
0.9417405022
-0.01383667144
0.9410806322
-0.009466971785
0.9400300898
-0.009590304722
-0.4666788562
0.4681092234
-0.01089733902
-0.4653442841
0.01244604831
0.4669945236
-0.01409628778
-0.4571560244
0.0158718272
0.4632005629
-0.01096245867
-0.01096143802
-0.2033023845
0.01493752042
0.2049148762
-0.01655880098
-0.1910140434
0.0195695162
0.1913153215
-0.01988455251
-0.2016337637
0.018628439
0.2004669698
-0.01747291715
-0.2231932217
0.01183301635
0.2206691747
-0.00931192171
-0.1136338878
0.009749343984
0.2273473073
-0.009894201545
-0.1135685619
-0.004497688732
0.946512263
-0.009107921271
0.9463507347
-0.01394095226
0.9459136632
-0.009550360491
0.9452108659
-0.009571367824
-0.469530554
0.4709560789
-0.01097588536
-0.468620723
0.01249207983
0.4702146279
-0.01408598475
-0.4677022636
0.01577905224
0.4695719427
-0.008885224702
-0.008763631187
-0.212839702
0.01635268597
0.216538368
-0.02005742553
-0.1947683951
0.0293185787
0.1969863604
-0.03154979502
-0.1982162372
0.03508133887
0.1983024333
-0.03518210753
-0.214217594
0.03280610596
0.2128321752
-0.03143135433
-0.2228014255
0.02751744126
0.2201086321
-0.02483062009
-0.004447919769
0.9509601828
-0.008990632436
0.9508934474
-0.01371639514
0.9506394259
-0.009406386694
0.9502219448
-0.009321087338
-0.4723289309
0.4736946144
-0.01077207018
-0.4717582787
0.01220745149
0.4732475926
-0.01369676536
-0.4712939967
0.01525602129
0.4729270883
-0.008495728856
-0.008393384027
-0.2304813779
0.009441854198
0.2348951681
-0.01385683271
-0.207304854
0.02946153692
0.211927738
-0.0340934949
-0.2022156179
0.04516865768
0.2048278861
-0.04779445468
-0.2119488699
0.0526787773
0.2128196844
-0.05356317382
-0.2120631975
0.0515284947
0.2103865842
-0.04986285103
-0.00431434522
0.955274528
-0.008703710907
0.9552828131
-0.01323146666
0.9551671816
-0.009070702028
0.9549649738
-0.008903793663
-0.4749918619
0.4762675023
-0.01034634243
-0.4746700843
0.01167212863
0.4760269599
-0.0130290042
-0.4744641969
0.0144275826
0.4759032506
-0.007999776859
-0.007866859413
-0.2369917785
0.008751569203
0.2373733443
-0.009133135002
-0.2285029855
0.01308029143
0.2345676343
-0.01914673795
-0.2162458602
0.0358157835
0.2209981543
-0.04057560209
-0.2183213267
0.0518972089
0.220809369
-0.05439517756
-0.2111758051
0.0550865918
0.2130133146
-0.05693338143
-0.004116908993
0.959391437
-0.008288585783
0.9594544899
-0.01255437475
0.9594329706
-0.008594085219
0.9593775817
-0.008372897444
-0.4774686001
0.4786398121
-0.009765297204
-0.4773102946
0.01096858291
0.4785247837
-0.01218307201
-0.4772468378
0.01341565052
0.4784955283
-0.007404122677
-0.007260218309
-0.2384192145
0.008045639183
0.2387376343
-0.008364059002
-0.2378217263
0.00931287126
0.2381330533
-0.009624198248
-0.2363493107
0.01053106937
0.2371352964
-0.01131697866
-0.2292350441
0.02211724888
0.2322764241
-0.02516097164
-0.2195900405
0.03057597223
0.2215106297
-0.0324998398
-0.003875023937
0.963266461
-0.007786139316
0.9633656053
-0.01175156023
0.9633983915
-0.008026723563
0.9634286735
-0.007775928438
-0.4797343636
0.4807970357
-0.00908939567
-0.479665766
0.01016820902
0.4807401655
-0.0112426085
-0.479652277
0.01231678327
0.4807223247
-0.006757466032
-0.006629364956
-0.2396080995
0.007309830636
0.2398729787
-0.007574709778
-0.2389667839
0.008346696267
0.2392147996
-0.008594711986
-0.237906378
0.009305179278
0.238129715
-0.009528516304
-0.2342516387
0.009998998257
0.2342290874
-0.009976446949
-0.2244471301
0.01031975982
0.224850627
-0.01072325668
-0.003606582016
0.966873043
-0.007233251164
0.9669922745
-0.01088105246
0.9670461928
-0.007412001247
0.9671103062
-0.007150683883
-0.4817827212
0.4827400439
-0.008369324033
-0.4817454262
0.009329100164
0.4826894929
-0.01027316684
-0.4817111414
0.0112046989
0.4826242745
-0.006112622818
-0.006005209155
-0.2405966685
0.006588448489
0.2408171521
-0.006808932027
-0.2398817411
0.007439947947
0.2400811413
-0.007639348154
-0.2387154255
0.008201255953
0.2388864098
-0.00837224024
-0.2341363602
0.008690430057
0.2340995112
-0.008653581065
-0.2258374383
0.009015881619
0.2261063591
-0.009284802451
-0.00332583466
0.9701988777
-0.006658673315
0.9703251131
-0.009986900723
0.9703744202
-0.006783665545
0.9704321866
-0.006525115628
-0.4836205244
0.4844771372
-0.007640278368
-0.483570665
0.008489600102
0.4843970072
-0.009315942312
-0.4834665253
0.01012234409
0.4842448019
-0.005496665299
-0.005403955338
-0.2414201642
0.005904540161
0.2416041453
-0.006088521304
-0.2406203374
0.006607732454
0.2407824184
-0.006769813514
-0.2393389777
0.007220518524
0.2394721016
-0.007353642494
-0.2339822022
0.007571099752
0.2339428364
-0.007531733955
-0.2267713461
0.00788914407
0.2269529386
-0.008070736576
-0.003045044324
0.973243922
-0.006086820114
0.9733668889
-0.00910496547
0.9733925656
-0.006167863988
0.9734143903
-0.005919305173
-0.4852598882
0.4860232525
-0.006931228232
-0.4851676134
0.007680872084
0.4858898969
-0.008403155533
-0.4849651314
0.009101395319
0.4856318256
-0.004927260096
-0.004840829399
-0.242108043
0.005273507118
0.2422621563
-0.005427620359
-0.2412231956
0.005858134701
0.2413564352
-0.005991374268
-0.2398265851
0.006357711353
0.2399313627
-0.006462488943
-0.23383035
0.006611557181
0.2337958243
-0.006577031494
-0.2274018653
0.006919596694
0.2275242558
-0.007041987204
-0.002772572264
0.9760164943
-0.005534115719
0.9761284324
-0.008258683112
0.976117133
-0.00557997261
0.9760824128
-0.005346732947
-0.486717078
0.4873955118
-0.006258406368
-0.4865631428
0.006919106507
0.4871941843
-0.007550147983
-0.4862492986
0.008154713438
0.4868214681
-0.004403979995
-0.004322903007
-0.2426853826
0.004699346825
0.2428152643
-0.004829228476
-0.2417207383
0.005189232791
0.2418314931
-0.005299987666
-0.2402114084
0.005601042251
0.2402944945
-0.005684128352
-0.2337042458
0.005786940484
0.2336781817
-0.005760876464
-0.2278262546
0.006083571147
0.2279084071
-0.006165723719
-0.002514604974
0.9785310992
-0.005012561305
0.9786263887
-0.007464767136
0.9785693388
-0.005030535741
0.9784646789
-0.00481649759
-0.4880095599
0.4886116704
-0.005632646286
-0.4877824389
0.006214731026
0.4883340926
-0.006766384741
-0.4873520642
0.007290627743
0.487844392
-0.003928026817
-0.003854928635
-0.2431728181
0.004180943164
0.2432829075
-0.004291032589
-0.2421357715
0.004594475026
0.2422287474
-0.004687450973
-0.2405171873
0.004936907043
0.2405834692
-0.005003188957
-0.2336144648
0.005074984131
0.2335981439
-0.005058663228
-0.2281104033
0.005359483851
0.2281651046
-0.005414185196
-0.002274748904
0.9808058481
-0.004528964055
0.9808806039
-0.006732160026
0.9807725348
-0.004525776954
0.980590005
-0.004331709101
-0.4891549456
0.4896891859
-0.005060017246
-0.4888486597
0.005573141858
0.4893315836
-0.006056065782
-0.4883016911
0.006511711023
0.4887266584
-0.003500096337
-0.003436581932
-0.2435868502
0.003717471574
0.2436807045
-0.003811325882
-0.2424853207
0.004069048948
0.2425640212
-0.004147749451
-0.2407616454
0.004355806374
0.2408148123
-0.004408973245
-0.233563848
0.004460243603
0.2335571897
-0.004453585258
-0.2282987742
0.004732552683
0.2283346503
-0.004768428715
-0.00205592508
0.9828617732
-0.004088765678
0.9829134445
-0.006067874843
0.982751644
-0.004068866584
0.9824872305
-0.003896233789
-0.4901700176
0.4906444862
-0.004543335207
-0.4897824029
0.004996387238
0.4902061027
-0.005420087075
-0.4891220552
0.005817304177
0.4894902559
-0.003120724189
-0.003064780606
-0.243940636
0.003308366156
0.244021164
-0.003388894138
-0.2427820342
0.003609460844
0.2428491371
-0.003676563694
-0.2409581418
0.003851132957
0.241001024
-0.003894015148
-0.2335507679
0.00393192319
0.2335529186
-0.00393407395
-0.2284213457
0.004192609786
0.228444254
-0.00421551813
-0.001859299248
0.9847210725
-0.00369394629
0.9847480915
-0.005473925665
0.9845316233
-0.003660817672
0.9841840258
-0.003509903314
-0.4910707824
0.4914930796
-0.00408311493
-0.4906021714
0.004484181425
0.490975078
-0.004857088027
-0.4898335658
0.005204675357
0.4901540057
-0.002787548416
-0.002737566869
-0.2442448737
0.002950296738
0.2443144366
-0.003019859688
-0.243035603
0.003210009635
0.2430931884
-0.003267595097
-0.2411169238
0.003414895313
0.2411517028
-0.003449674332
-0.2335711733
0.003479066689
0.233580921
-0.003488814396
-0.2284985045
0.003728981237
0.2285124455
-0.003742922243
-0.001685386199
0.9864064587
-0.003345240515
0.9864079458
-0.004950663765
0.9861370466
-0.003301317164
0.9857067069
-0.003172027701
-0.491872054
0.4922492629
-0.003678526116
-0.4913243222
0.004034949303
0.4916539239
-0.004364550943
-0.4904535476
0.004670134826
0.4907338935
-0.002496744821
-0.00245373589
-0.2445082868
0.002638625786
0.2445688041
-0.002699143026
-0.2432536467
0.002864224779
0.2433033638
-0.002913941907
-0.241245945
0.003038920274
0.2412743194
-0.003067294632
-0.2336199928
0.00309146759
0.2336360287
-0.003107503464
-0.2285442218
0.003331524798
0.2285519397
-0.003339242656
-0.001534238235
0.9879406969
-0.003042529517
0.9879162371
-0.004497302703
0.9875918197
-0.002989736406
0.9870804768
-0.002881336131
-0.4925875542
0.4929261878
-0.003328370022
-0.491963408
0.00364685205
0.4922564674
-0.00393991148
-0.4909965885
0.00421025104
0.4912429655
-0.002246557796
-0.002210070244
-0.2447381379
0.002371019612
0.2447912314
-0.002424113075
-0.2434423573
0.002568557144
0.2434855764
-0.002611776219
-0.2413514814
0.002718516198
0.2413748092
-0.00274184397
-0.2336920733
0.002763055691
0.2337131593
-0.002784141725
-0.2285681251
0.002994360569
0.2285715338
-0.002997769257
-0.001405304324
0.9893460012
-0.002784465352
0.9892953981
-0.004111317743
0.9889186721
-0.002723017008
0.9883282049
-0.002636028858
-0.4932298231
0.4935361687
-0.003029362599
-0.4925326184
0.003316067937
0.4927952348
-0.003578684356
-0.4914749879
0.003820147211
0.4916941062
-0.002036542986
-0.002002722557
-0.2449403801
0.002144349324
0.2449872923
-0.002191261601
-0.2436068584
0.002318633882
0.2436447109
-0.002356486437
-0.2414385491
0.002448350941
0.2414579182
-0.00246772006
-0.2337826346
0.002487520689
0.2338076446
-0.002512530752
-0.2285769997
0.002711080631
0.228577479
-0.002711559897
-0.001298174152
0.9906441754
-0.002570269298
0.9905674933
-0.003791061155
0.990139464
-0.002501542737
0.9894736391
-0.002434952667
-0.4938108959
0.4940900529
-0.002780699772
-0.4930438692
0.003041145095
0.4932815552
-0.00327883109
-0.4919018436
0.003496837173
0.4920999558
-0.001863761811
-0.001831187538
-0.2451197892
0.00195685348
0.2451616512
-0.00199871553
-0.2437514428
0.00211219134
0.2437849294
-0.002145677966
-0.2415111959
0.00222558112
0.2415275121
-0.002241897327
-0.2338874091
0.002261433027
0.233915383
-0.002289406991
-0.2285757615
0.002478258277
0.2285743143
-0.002476811122
-0.001212912865
0.9918570882
-0.002399311435
0.9917538919
-0.003535311271
0.9912754638
-0.002317571128
0.9905300929
-0.002274193927
-0.4943402254
0.4946011774
-0.002578523233
-0.4935078866
0.002818807587
0.4937256721
-0.003036593059
-0.492289464
0.003235259728
0.4924700909
-0.001721187269
-0.001694699323
-0.2452808027
0.001805497069
0.2453188269
-0.001843521315
-0.243879939
0.001946126679
0.2439099688
-0.00197615652
-0.2415728176
0.002046670932
0.241586852
-0.002060705287
-0.2340027745
0.00208083601
0.2340329015
-0.002110962975
-0.2285680026
0.002291744486
0.2285653809
-0.002289122794
-0.00114684488
0.9930039331
-0.002268047533
0.9928750945
-0.003339869173
0.9923472854
-0.002184448391
0.9915312932
-0.002156621089
-0.4948340381
0.4950754972
-0.002425907519
-0.493934263
0.002648242458
0.4941361819
-0.002850161322
-0.4926433924
0.003034126836
0.4928103516
-0.001609954895
-0.001591131188
-0.2454279254
0.001687884367
0.2454629991
-0.001722958124
-0.2439958141
0.001817206697
0.2440231788
-0.001844571403
-0.2416263246
0.001907949947
0.2416387402
-0.001920365537
-0.2341256313
0.001941709442
0.2341572013
-0.001973279399
-0.228556495
0.002147260623
0.2285533041
-0.002144069678
-0.001107948662
0.9941118818
-0.002185573209
0.993952719
-0.003215675206
0.9933773874
-0.002095702759
0.9924831518
-0.002071831089
-0.495293726
0.4955130835
-0.0023150603
-0.4943315321
0.002526320248
0.4945225359
-0.002717324016
-0.4929721741
0.002890927104
0.4931292689
-0.001529295129
-0.001518726705
-0.2455644731
0.001602666574
0.2455973874
-0.001635580838
-0.244102132
0.001723691418
0.2441275474
-0.001749106796
-0.241674284
0.001807429439
0.2416856919
-0.001818837331
-0.234253383
0.001841948844
0.2342858344
-0.001874400252
-0.2285434614
0.002042651534
0.2285401711
-0.00203936118
-0.001065380505
-0.002112629174
-0.003112649515
-0.002041053996
-0.00198880336
-0.4957299177
0.4959450535
-0.002256189756
-0.4947078436
0.00245499422
0.4948909826
-0.002638133208
-0.4932841549
0.002804569851
0.4934325326
-0.001481405289
-0.00147154227
-0.2456934648
0.001549269786
0.2457249783
-0.001580783279
-0.244201704
0.001664823616
0.244225852
-0.001688971618
-0.2417191868
0.001744393504
0.2417302757
-0.001755482386
-0.2343840447
0.001781057873
0.2344169528
-0.001813966016
-0.228530526
0.001977574029
0.2285273206
-0.001974368718
0.002754948095
-0.002859375111
-0.05250216198
0.002991836806
-0.003105618564
-0.05486119425
0.005295505101
-0.2154339651
-0.003246084303
-0.003305039141
0.1056244697
-0.002741927316
-0.1052045254
0.005076931119
0.02189382437
-0.2207511592
-0.01981098364
-0.003626324575
0.1100624207
-0.002989637963
-0.1096222885
0.0055413426
-0.002804608428
0.005204220507
0.106021379
0.05346055333
0.002907651521
-0.003024124264
-0.05334408058
0.02640480802
-0.0002964537576
-0.02694751108
0.0008391568249
-0.02778208784
-0.0008193589535
0.001203258565
0.02739818823
0.005303901759
-0.005688816604
-0.113248973
-0.001353908421
-0.02800782704
0.001579647614
0.02721968621
-0.0008577162733
-0.02771587835
-0.002608960619
0.04754803737
0.003752169726
-0.02578427432
-0.02290697216
-0.0002172584725
0.0006468752452
0.02597519124
0.002921032269
0.05356980349
-0.003030282428
-0.02253629936
0.02237823562
-5.919473037e-05
0.02484222094
-0.004701795817
-0.01221959308
-0.01052979266
0.02674237439
-0.0003420471341
-0.02291438991
8.163678791e-05
0.005162591033
0.02469573202
-0.02427181454
-0.001204208755
0.001625040277
0.02385098301
-0.05212647824
0.003321366907
0.05225730717
-0.003452195833
0.0526176453
0.003358348062
-0.05252082367
-0.001753394626
-0.00170177506
-0.0519082537
0.003160040252
0.05196176838
-0.003213554931
0.003275976916
-0.003347096393
-0.05205535876
-0.0007659190486
-0.02472971978
0.001223824292
-0.02496622427
-0.001121118516
0.00138312465
0.02470421814
-0.05150522126
0.00299105141
0.05158556179
-0.003071391934
0.003138679031
-0.003232355297
-0.05181457743
0.0029385622
-0.003004338403
-0.05143944506
-0.0009366744976
-0.02527786218
0.001248312405
0.02465525775
-0.0005125912645
-0.02507934099
0.02422918641
-0.0006950471671
0.00335508953
0.05268928572
-0.001730891254
-0.001695838699
0.05314149373
0.01375084341
-0.05293507076
-0.005233398329
-0.00872386805
-0.01234108179
0.02560031051
-0.02478059794
0.01152136922
0.01223520219
-0.01573122878
-0.008845055188
0.02377828395
-0.0237094342
0.004838719852
-0.02379801464
-0.005563863897
0.005484308067
0.02387757047
0.02380267396
-0.0002451918526
-0.02432340115
0.02752251879
-0.02189792768
-0.0004620000693
-0.00568184374
-0.02377020732
0.005654036422
-0.006524517061
0.0128917219
0.02115531395
0.02308438427
-0.0004859190663
0.02457751822
0.02475536329
-0.02482572334
0.008642848345
-0.006745187343
-0.2250921074
0.2268496207
0.009112680413
-0.005350274454
-0.1126425585
-0.1126655664
0.005540328923
0.1105116166
0.1118570388
0.005817417082
-0.006317064985
-0.1113573909
-0.006128015331
0.09524023646
-0.09591677572
0.006804554607
-0.002529012729
0.003807492776
0.04626955733
-0.004770187606
-0.02644000862
0.003679970548
0.02753022568
-0.02642136547
0.001972743275
0.02674465393
-0.002296031733
0.0267371861
0.001672298103
-0.00153497346
-0.02687451074
0.02680207974
-0.004488871526
0.08108038629
-0.009722566005
-0.07748583561
0.02630812217
0.0008772462071
-0.0004942970854
-0.02669107129
-0.02473563627
0.004239619575
0.02663359128
-0.006137574585
-0.03223857157
0.02384954032
0.03398934178
0.02393766572
0.0544711157
-0.01896950158
-0.006297786101
0.003444421721
0.05469249986
-0.003544422162
-0.05459249942
0.001624134351
0.0265541535
-0.001441101756
0.02601486399
0.001723455965
-0.001582989421
-0.02615533053
-0.0004280596678
0.02458884012
-0.0250528225
0.0008920420437
0.0246431799
0.02166237165
-0.02192557274
-0.0001648585811
0.02044758232
-0.00387308089
-0.01570281832
-0.0008716831075
-0.008468618156
0.04950028647
-0.04905738891
0.008025720594
0.002434876552
0.02378735844
-0.02000336937
0.02547895566
0.0004890518234
-0.0001057555263
-0.02586225195
-0.03089970911
0.0260672253
6.229619651e-05
-0.02557569475
0.001761986273
0.02560381488
-0.001790106401
0.001944078658
-0.002356517306
-0.02600892682
-0.006007632242
-0.02463687802
0.004204501639
-0.0005169682701
-0.02604752321
0.000955142978
0.02560934851
-0.02588504821
0.001622372531
0.02577790684
-0.001515231162
0.001699381468
-0.001645023513
-0.02563005271
0.0008451284826
0.02590856267
-0.0004455689851
0.003614500851
-0.004602274153
-0.02374786297
-0.001194253003
0.001608618222
0.0241744749
0.0020462006
0.02596886028
-0.002000196893
0.02689247867
0.009275121307
-0.009775411982
-0.02639218799
-0.001990717387
0.02532411421
-0.0202137105
-0.003119686321
-0.004445851314
0.008509095868
0.01638433776
0.0208080221
-0.0003399034458
-0.0170367254
0.02225616401
-0.004484608633
-0.0007348299712
0.01934373149
-0.004553212771
-0.01866359961
0.02381066704
-0.005028055538
-0.02389282296
0.005110211468
0.02510696811
-0.0001449807286
0.01403529065
-0.0008797348714
-0.02315105623
-0.006121013128
0.005859893491
0.02341217587
-0.004156465237
-0.0121592383
-0.0007210218646
-0.006344186421
-0.02301137368
0.006204503873
-0.01478346208
-0.02212387926
-0.0261895558
0.001667345179
0.0261000394
-0.001577828779
0.001562899634
-0.00150022508
-0.02594772276
-0.02649205221
0.0009335808206
-0.02569520681
0.003022917921
0.02691190846
-0.02575336468
0.001745792534
0.02590676405
-0.001899191904
0.001587396003
-0.001648001437
-0.02612895037
-0.02394646499
0.02311358537
-2.483664823e-05
0.002333452015
-0.02628072577
8.087617697e-07
-0.02776679006
0.002384363718
0.02216508331
0.0001136312899
9.952102377e-05
-0.0001088084495
0.02628697671
0.0005642061232
-0.02281463199
0.02257784903
0.0001279745112
-4.309375466e-05
-0.02378845036
0.0008313839726
4.267648352e-05
-0.02548214869
0.001543327775
0.02548470956
-0.001545888643
0.001690408448
-0.001846693636
-0.02559707949
-0.02482317655
0.0027424706
-0.02625193167
0.001166171543
0.02593088861
-0.02559309671
0.001488269346
0.02555784641
-0.001453019051
0.001520043828
-0.00150189678
-0.02550029574
-0.02470927952
0.0243107449
-0.0001140566465
0.0004445924726
-7.681843268e-05
-0.02507705356
0.0008622045348
-0.02549695305
-0.001168838958
0.02384356366
0.001554461702
-0.02381985886
0.02313865433
-0.000487634432
-0.0002041611228
0.0068407075
-0.007393689909
-0.02422761553
0.02570772215
-0.02517960755
0.006312592908
0.02670752818
0.01052156319
0.0002151035186
0.004324032421
-0.004539135941
-0.01873580927
-0.004389109416
0.004994490577
0.02379625779
0.01964199334
-0.004744113154
0.02090870683
-0.002215965386
-0.02068345883
-0.02177209418
0.02149776652
2.913581145e-05
0.0002076053955
-0.02193730603
-4.239355319e-05
-0.0247284111
0.0006126153378
-0.01833062989
-0.000481202978
0.01391880203
-0.001027080136
-0.00501241589
0.01954689408
-0.0006156761581
0.02238262305
-0.006239724989
-0.001474002396
0.0222495401
0.002308846573
-0.02093793968
0.01945227696
1.166032227e-05
7.390777464e-05
0.02494547129
-0.02498047161
0.02255292791
0.0001988148552
-2.445730264e-05
0.02243207889
0.0001613768623
-4.052783852e-05
0.01502326072
-0.01503284008
9.57936345e-06
-0.004799811926
0.003666613154
-0.03108542622
4.888523764e-06
-0.02219974008
0.01998543182
0.0276469814
-0.02073993455
0.02720368972
0.001556668055
-0.001447158712
-0.02731319906
-0.0001242742207
0.02324078252
-0.02400664681
0.0008901385117
0.0006176591292
-0.0001486370639
-0.02552184456
0.02574343597
-0.02620973652
0.001083959677
0.02532659377
0.001308884246
9.087350965e-05
-0.01122545157
-0.003514383441
-0.0009629833043
-0.009874033615
-0.001351417954
0.01202329573
-0.001585449281
-0.01056212067
0.01719878688
-0.00432935493
-0.01704751993
0.004178087982
0.003068292221
0.003698615122
0.01855720686
-0.02238452568
0.02223985996
3.891019582e-05
5.702178958e-05
0.0001363015613
0.0004817465513
0.002391325354
-0.000112550413
0.02199375727
-0.02213684563
6.626992532e-05
0.02183150578
4.819484676e-05
0.02228644147
9.661379375e-05
4.902362696e-05
6.601965068e-05
8.357619298e-05
-0.02231625645
-0.004485757781
0.002304595568
-0.001482197689
0.002400296261
0.01954693407
-0.02105629137
2.715961429e-05
2.833620323e-05
0.02158463494
4.270971844e-05
4.070913415e-05
0.02506716787
0.001868044126
-0.003437208702
0.003324769016
-0.003490349327
0.0008374594437
-0.01713263051
-0.003918539432
0.01676132313
-0.01367240113
-0.002251462554
0.01385674033
0.01007107977
-0.001561983897
-0.002240623105
-0.00136069826
-0.002988915852
-0.001418136505
-0.005023435882
0.01740556628
-0.02045790111
-0.005325008748
0.02075947398
-0.01981504374
-0.005127466003
-0.0001727848248
0.000551341843
-0.0220934479
-1.664294964e-05
1.431325565e-06
-0.0005419200837
-0.01830589358
0.02395746291
-0.004935928218
-0.0007156411167
-0.01302247941
-0.004575861774
-0.0007075523872
-0.01859234031
-0.005379168665
0.01101652882
-0.005651406217
-0.001142709482
-0.01199202171
-0.001030457704
0.005433830473
-0.006062581098
0.02556042881
-0.0005797042565
0.01977291098
-0.01504339037
0.0002599282864
0.004420893192
-1.200659576e-05
0.004546554025
0.007070961611
-0.00690821214
-0.2050600798
-0.004008122557
0.1934348122
-0.1960428781
0.006590531662
-0.00330562939
-0.1952702854
-0.002228914226
0.199196264
-0.1993379996
0.002352825026
-0.002424008791
-0.2024492366
0.2158012561
-0.2144468766
0.003939306122
0.02144208257
-0.02078407575
-0.2019149509
-0.01870845106
0.1923240595
-0.1929764321
0.01934967035
0.001131818564
0.1947936734
-0.01818858241
-0.1927451789
-0.01791800805
0.1999950703
-0.1998290127
0.01774359276
0.00236659152
0.199564087
-0.01840945698
-0.2043190764
0.2219749795
-0.2205237408
0.02044223817
0.004107359517
0.2172307898
0.2192696235
0.005654712172
-0.003479414487
-0.003478890639
0.1088495537
-0.00419704813
-0.1084883728
0.003835867236
-0.1074148068
-0.004070503075
0.003716282735
0.1077690271
0.0530195956
0.002856774017
-0.002974293425
-0.05290207619
0.05243036854
-0.05233543972
0.003181048103
-0.05208882622
0.003077252518
0.05217161395
0.0137350693
-0.01488095168
-0.202165545
-0.01664201188
0.1918199963
-0.1915341829
0.01634318169
0.008781378623
0.1918351253
-0.01665198494
-0.1910175093
-0.01496802814
0.1972301888
-0.1980870491
0.01581317901
0.006721252204
0.1995431548
-0.01384041378
-0.2027715663
0.2179578186
-0.2200123518
0.01069379903
0.005549995015
0.2223566025
-0.007090988326
0.224827148
0.005844050803
0.2243315075
-0.004220338931
-0.1115190432
-0.1114064006
-0.004276713017
-0.1106697606
-0.004319088649
0.003954135027
0.1110347143
0.1108715984
0.005964314504
-0.003224312007
-0.003216838113
0.05539388094
-0.003542986607
-0.05521221289
0.003361318558
-0.05481112463
-0.00346817273
0.003348316364
0.054930981
0.01668404486
-0.01986105854
-0.2096696989
-0.0274175091
0.1972435986
-0.1951320056
0.02529336443
0.01889745289
0.1924788926
-0.02907853572
-0.1931210605
-0.03100338504
0.1956067595
-0.1955026876
0.0308847364
0.0194134993
0.1964325334
-0.03060982364
-0.1986238363
-0.02683534235
0.2099237631
-0.2115482745
0.02844933428
0.01406211694
0.2157234378
-0.02501775821
-0.2160441645
-0.020211836
0.2251582087
-0.2265288894
0.0215777425
0.008475409708
0.2281235549
-0.01780090297
-0.2252161695
0.01151289083
-0.01658904811
-0.225407523
-0.03080818333
0.2115526605
-0.2070986643
0.02634543122
0.02661811538
0.1999321242
-0.0348705384
-0.2032529689
-0.04405242636
0.2017883921
-0.1992814978
0.04153171165
0.03444819168
0.1962250741
-0.04602015667
-0.2002621897
-0.0489758132
0.208580798
-0.2080306648
0.04841164234
0.03396746046
0.2087504758
-0.04927847994
-0.211659705
-0.04700363364
0.2186744548
-0.2206540523
0.04897202031
0.02884835603
0.2238203541
-0.04461357741
-0.2144636145
0.008919651058
-0.00931770813
-0.2365937214
-0.01882480894
0.2337888178
-0.2277521177
0.01278617373
0.02447685005
0.2165300686
-0.02470888476
-0.2226227121
-0.0404218482
0.2178935917
-0.2130708687
0.03559080592
0.04199648912
0.2049477074
-0.04477146012
-0.2119056368
-0.05482270173
0.2167482743
-0.2139013438
0.05196457577
0.05148684789
0.2097588163
-0.05706068278
-0.2160947017
-0.05663331601
0.2118549806
-0.2128348495
0.05760243869
0.05365482416
0.2165363791
-0.05784359325
-0.2099757764
0.008227926425
-0.008560631463
-0.2380865095
-0.009560122631
0.2380152747
-0.2376829436
0.009227791447
0.00990799576
0.2369607167
-0.009890047071
-0.2374918019
-0.01371995711
0.2371058168
-0.234114177
0.01072840312
0.03061230348
0.223090688
-0.01879594019
-0.2312744967
-0.03196854302
0.231113496
-0.2272747062
0.02812589568
0.04864151553
0.2199943237
-0.0349090085
-0.2262989829
-0.03940806698
0.2152237077
-0.2135549074
0.03773420421
0.05524650149
0.2116853979
-0.04155679445
-0.2174463019
0.007492600198
-0.007769201402
-0.2393314983
-0.008581686219
0.2391765409
-0.2389094904
0.008314635723
0.008998337446
0.2383298086
-0.008843960018
-0.2387045101
-0.009598723227
0.2381915396
-0.2379453179
0.009352501551
0.01023346304
0.2374034231
-0.009838237005
-0.2376668642
-0.01036202611
0.2365875709
-0.2364787039
0.01025315916
0.01826133521
0.2349676723
-0.01034562906
-0.2342680358
-0.01066780654
0.2201351974
-0.2197409772
0.01027358632
0.02870693873
0.2170894904
-0.01112288682
-0.2239920499
0.006765027167
-0.006994979633
-0.2403667161
-0.007658117643
0.240113092
-0.2398971585
0.007442184157
0.008093576521
0.2394296606
-0.007868426798
-0.2396714319
-0.008463325622
0.2390353459
-0.2388434858
0.008271465585
0.009074100924
0.2384226179
-0.008645733093
-0.238533018
-0.008995938033
0.2368838872
-0.2368262244
0.008938275215
0.009906811359
0.2366797577
-0.008961482386
-0.2341708158
-0.009322138581
0.2215787883
-0.2212376937
0.008981043991
0.009938956417
0.2205160008
-0.00961893762
-0.2255406393
0.006072696278
-0.006264442851
-0.2412284176
-0.006809394335
0.2408743819
-0.2406982028
0.006633215244
0.007234862211
0.2403181777
-0.006979943939
-0.2404497878
-0.007455657037
0.2396991821
-0.2395472745
0.007303749428
0.008020508254
0.2392160936
-0.007597227852
-0.2391974068
-0.007836374325
0.2370369519
-0.2370084761
0.007807898504
0.00864151032
0.236932807
-0.007796771213
-0.2340218053
-0.008156686027
0.2228132473
-0.2225240345
0.00786747327
0.008687754606
0.2219069153
-0.008357041991
-0.2265709901
0.005428022778
-0.005588398304
-0.2419476675
-0.006039367693
0.2414988483
-0.2413537978
0.005894317222
0.006440094588
0.2410420197
-0.006179184002
-0.2410833793
-0.00656466677
0.2402292648
-0.2401073244
0.006442726358
0.007076930411
0.2398427702
-0.006675850261
-0.2397154016
-0.006839652224
0.2371045797
-0.2370934157
0.006828488168
0.007547883374
0.2370601683
-0.006803447875
-0.2338665544
-0.00715043644
0.2238452401
-0.2236053793
0.00691057561
0.007612716449
0.2230896749
-0.00728559106
-0.2272667107
0.00483726937
-0.004972129508
-0.2425505225
-0.005348289299
0.2420159871
-0.2418954444
0.00522774656
0.005719788118
0.2416371949
-0.005464145694
-0.2416048819
-0.00578000719
0.240657514
-0.2405586631
0.005681156313
0.00624211817
0.240344858
-0.005867985087
-0.2401234305
-0.005980687727
0.2371235175
-0.2371218656
0.005979035813
0.006603375882
0.237112761
-0.005952324064
-0.2337326094
-0.006280210704
0.2246928337
-0.2244969362
0.006084313115
0.006691347163
0.2240734897
-0.006371004936
-0.2277354603
0.00430473207
-0.004418841219
-0.2430587089
-0.004735262113
0.2424483604
-0.2423472068
0.004634108483
0.005073931593
0.2421312883
-0.004832288141
-0.2420387455
-0.00509350792
0.2410063591
-0.2409256174
0.005012766226
0.005507104278
0.2407514519