/*--------------------------------*- C++ -*----------------------------------*\
| =========                 |                                                 |
| \\      /  F ield         | OpenFOAM: The Open Source CFD Toolbox           |
|  \\    /   O peration     | Version:  v2012                                 |
|   \\  /    A nd           | Website:  www.openfoam.com                      |
|    \\/     M anipulation  |                                                 |
\*---------------------------------------------------------------------------*/
FoamFile
{
    version     2.0;
    format      ascii;
    class       volScalarField;
    location    "2.82";
    object      omega;
}
// * * * * * * * * * * * * * * * * * * * * * * * * * * * * * * * * * * * * * //

dimensions      [0 0 -1 0 0 0 0];


internalField   nonuniform List<scalar> 
3019
(
31.93118974
31.93210802
31.93304103
31.93383373
31.96677348
31.96759022
31.96847394
31.97024713
31.97363986
31.97900963
31.98602543
31.99272222
31.79539721
31.79799205
31.8005724
31.80282612
31.83651842
31.83954766
31.84444945
31.8674239
31.88283782
31.9077613
31.94054167
31.97172248
31.6612644
31.6658913
31.67035726
31.67399193
31.70855609
31.71513634
31.72657379
31.75942022
31.79573932
31.85231081
31.92436497
31.99244435
31.52877796
31.53474687
31.54068824
31.54617371
31.58307884
31.59568433
31.61960228
31.67190143
31.74469619
31.85570089
32.00008998
32.14754643
31.39808929
31.40594791
31.41380451
31.42201118
31.46192662
31.48365568
31.52850858
31.61197383
31.74821838
31.97161561
32.29112947
32.6889405
31.26859644
31.27783009
31.28757057
31.29941838
31.34595676
31.38206566
31.4593324
31.58661962
31.83047518
32.2742489
33.07896248
34.53433592
31.14134987
31.15246197
31.16518058
31.18213527
31.23604122
31.29147395
31.40946273
31.60521577
32.01877541
32.86427736
34.94575191
41.93415083
31.01601507
31.02880409
31.04460821
31.06811085
31.13349135
31.21248916
31.37956994
31.66612345
32.30169189
33.73190357
38.09845548
60.63658982
30.89486057
30.91019465
30.93067501
30.96329217
31.03808151
31.1449668
31.3675785
31.75857786
32.62933562
34.6171301
40.80622563
74.56504018
30.77798957
30.79553461
30.82046815
30.86254247
30.95056787
31.08748366
31.36962439
31.86574656
32.94426382
35.32906766
42.3697328
80.7455117
30.66819408
30.68885186
30.71968861
30.77339441
30.87120687
31.03814328
31.37890343
31.97331415
33.21856638
35.87694838
43.503849
90.50134697
30.5637657
30.58688722
30.62266028
30.68717036
30.79864674
30.99482115
31.39291425
32.07275019
33.45601504
36.33372095
44.62445739
101.8099191
73.83069769
79.86778967
89.15742921
100.4942988
57.54753678
42.05909584
68.32448427
64.43378611
43.26880433
74.14594398
68.90588876
83.85418249
239.763958
216.990044
44.41405848
82.63228453
75.09693535
94.53428479
339.6297964
273.8875387
83.66288939
103.6642081
510.6047569
411.9217125
185.5809778
216.2358015
114.1662909
179.3707554
214.2153835
195.7095641
77.29109425
255.3523359
267.7774231
222.112165
252.4412317
270.7194897
243.5328689
85.08404385
310.3075879
352.8906884
269.8534546
307.0938939
407.7314263
342.9080857
95.9020335
417.4687026
516.1941902
355.6880481
413.5717812
519.9463709
103.9667165
701.8957417
521.1926355
686.1364908
40.27221931
63.74002167
53.61016995
68.47608837
146.6086898
98.89208573
76.79422074
193.5168534
171.7845644
168.9974234
150.281442
70.21010666
1427.349263
268.44259
622.0888023
64.69642507
103.7022312
447.3783124
177.5727599
185.1171299
1288.013415
1428.707255
199.1418453
918.0549498
753.8453649
1374.593757
918.4379539
202.9690165
147.6583531
458.4247179
217.7772812
670.1751077
490.3244398
158.2882795
651.0392348
949.7139913
255.548356
1494.005749
255.9302494
236.9281103
1448.892141
1393.781622
1488.774199
1455.234154
240.9635021
329.7771841
332.536587
285.5862434
287.8739967
447.032617
453.6922053
384.0217574
387.9875075
187.8442196
557.3426416
561.8588974
118.478041
246.7015938
313.5422405
147.6050404
152.3234988
141.8130266
146.1063238
307.8029398
168.7794531
175.3484385
442.8438117
258.3284159
136.5211825
140.4620135
706.171138
693.308539
343.8539815
371.2644081
160.963021
166.7643516
153.9648219
159.1345007
366.9563137
429.1982838
1009.380586
1000.035359
1584.295244
1538.863408
495.656267
366.5767808
742.3724738
708.3168612
996.0033318
989.5437404
402.4439103
536.1735013
1616.3773
1591.482073
1621.752092
604.225762
1475.329556
1411.907403
420.6816837
459.7344381
1391.487875
1402.922842
909.3912309
339.1889148
360.1965023
313.2723796
332.9919588
902.6106463
964.4694664
404.0889312
438.3003413
367.6785611
394.1606136
971.5157952
606.6517519
286.9139704
307.4011728
869.1145719
901.133368
1530.814815
539.6665734
603.3823969
515.5408256
529.0114316
1496.858479
651.6518866
661.6653446
624.1860272
648.0171466
1430.851599
467.1768396
479.6844239
446.5820045
462.7643541
1422.937779
1474.539704
499.6215285
511.1135069
483.7600003
495.7027968
1472.189979
962.3935325
966.6893688
937.6968839
961.0416304
978.3682425
990.3659048
968.3366178
975.8971231
677.5018344
687.380236
664.7987537
674.1524669
726.9003763
895.5813132
692.2142312
704.459211
1022.307362
1015.054354
433.4448144
1614.406913
1618.917086
1582.981617
1605.279285
1663.185202
484.8580513
1503.488626
1074.710969
960.6037087
762.7648777
370.6221399
1037.769104
1490.063093
991.034683
1047.607204
1548.586915
1571.497816
1509.386844
1538.988222
398.8295023
987.6010837
978.4548234
1649.140809
1621.499332
540.8707529
588.511011
1712.35191
1651.735613
229.204817
126.8415444
130.4794204
121.8446732
125.617992
226.0010903
131.6394746
135.2625954
254.6418517
318.8257135
661.2746995
636.4178054
615.0991754
550.6629576
297.9143191
1445.07046
1335.551867
1750.438261
1421.201146
914.6718014
634.2525917
641.7269909
1339.855393
848.7712072
889.6869254
646.8857603
656.2739043
929.4730968
254.7587661
280.779034
580.3099015
729.6684286
1279.236617
945.0637457
1419.759932
1470.537802
956.113319
1820.351056
1342.11374
1391.367364
953.6664838
955.1391872
1497.281532
1483.233996
1494.767827
1421.362103
1440.637874
1441.335643
919.7769478
922.6058054
905.8189578
910.2719532
1405.275007
1484.347829
945.4610069
948.3876265
925.7505839
928.9984826
1461.091518
675.5991024
665.1625328
321.5999259
341.0800347
689.7928978
678.9676401
521.630564
510.5796077
278.6420204
1523.685318
1525.464527
1498.739838
1502.519734
1861.682698
1531.570794
1532.306337
295.2777746
539.8321181
526.122629
1007.79907
710.8639077
714.2163973
1570.922576
1013.087614
1016.599811
987.8638097
1007.201205
1560.032158
1602.593017
1616.642907
1606.95325
1021.5701
1024.71734
1018.035731
1020.185252
1600.635441
1542.474257
1582.174367
1093.456362
1484.229959
2036.006961
1442.796359
1755.073024
718.9407926
929.2797225
1387.745972
1474.13577
956.6586838
1361.794886
1776.698718
1371.850631
1417.154982
702.6858052
777.0374773
1295.13563
927.2544226
659.9842077
682.9544417
1386.266432
1355.495086
823.5334053
1425.76126
1762.021846
902.7014476
1425.169152
1415.961942
1007.692437
999.7925512
1458.720241
1503.861071
964.6289954
960.9604916
1467.984653
1477.481939
1451.13951
1460.814029
915.9810753
918.1673082
1438.867253
1414.428708
912.2681086
914.0137706
938.2820988
941.2437786
1478.371846
1467.685957
932.4978881
935.4787478
963.9334346
1505.179069
1496.394202
1517.717666
1511.847692
965.1926733
954.0145253
1465.913108
1449.535719
1487.973155
1478.017614
958.8988497
982.7184548
1555.911502
1547.413502
1568.282474
1560.021856
984.8114074
970.3693997
1529.056821
1523.950107
1542.433938
1534.734388
972.5480181
1515.446906
1518.421855
680.6624128
961.7984035
959.9155277
966.6077334
965.0877641
684.4366921
1507.641549
1511.038032
1570.453452
1492.872729
746.7478305
1015.940565
1025.210079
1417.005156
1367.335706
820.7439147
694.2535744
971.9853105
971.3665236
977.8002343
981.54756
703.1909951
1541.05362
1534.382321
1026.385752
732.4492936
733.99957
720.0167986
722.3027873
1015.459193
1614.779877
1627.156934
1588.020332
1602.825951
1574.072698
1983.569646
1443.922458
858.455864
941.0876273
758.5635396
779.8110691
1064.369869
1402.304233
1917.289039
1530.041899
1456.264589
1001.572985
1580.246228
1568.738876
1613.247785
1573.224324
997.7799009
1555.233873
1565.493772
1520.684761
1531.116543
1635.96517
1032.708866
1039.704966
1026.394727
1031.156081
1632.54716
1668.466731
1051.616194
1104.772747
1041.05133
1054.438937
1671.646316
31.78494793
31.80612521
31.87766346
31.81463875
31.84941969
31.89977556
31.86174152
31.90646489
31.93105508
31.9220745
31.96779839
31.96354314
31.9795245
31.69155982
31.73519599
31.78518512
31.75324574
31.821808
31.83707815
31.84796218
31.93641179
31.9069232
31.96726296
32.06264061
31.97719889
32.08336949
31.62482866
31.70608537
31.72340255
31.74181448
31.87366959
31.82526612
31.92709246
32.11690928
31.96282421
32.18733429
32.42148354
32.10607001
32.46154908
31.58910453
31.73488769
31.70715033
31.79982228
32.06045048
31.90624826
32.17434338
32.62168618
32.20318463
32.8112057
33.56878529
32.55670768
33.72642736
31.59614018
31.84642152
31.75491877
31.96064591
32.45207824
32.13798994
32.68623098
33.76866367
32.83041733
34.32992155
37.44430169
33.99918579
38.71063053
31.64625044
32.03601335
31.88772967
32.22015415
33.05952734
32.58860794
33.49277821
35.81252755
34.20481336
37.26360923
51.40276816
38.89536203
46.90268529
54.20957343
44.07587744
31.73243141
32.28389181
32.09696546
32.54703673
33.76831943
33.24202349
34.41179003
37.97628215
36.40680452
38.91039794
41.8137709
40.72524691
63.59963336
73.15584965
68.99337428
31.83928168
32.53947542
32.3484492
32.87005231
34.38368921
33.93053309
35.17087178
39.42017836
38.39761458
41.28517736
44.96969426
44.35741541
75.40260209
89.97240993
88.67249125
31.94934532
32.77426062
32.59943655
33.15715497
34.87618428
34.51564878
35.75438678
40.40317465
39.68631984
42.69557617
46.77895097
46.35226424
81.69690123
108.918543
105.6408068
32.05495825
32.98025619
32.82501598
33.40383351
35.28059682
34.97988015
36.23093394
41.25002004
40.60598736
43.82984797
48.38137448
47.89015922
91.83715528
125.2355295
122.0165186
33.02350755
35.36802052
41.44224458
45.03862643
51.36863164
49.56135645
104.1027583
146.8614181
142.0571089
87.65477133
86.1780545
72.79345104
104.4907745
100.6507705
79.04070378
121.0003609
118.0839578
87.77844604
140.5666564
136.2900182
98.7840394
91.760855
59.10972598
48.9194769
45.71967048
57.91363205
45.95214878
45.47323105
41.68132024
66.70035755
50.29908515
51.04480904
49.01524877
50.02065632
66.18963769
47.56240614
47.12958194
42.95709148
71.58626965
52.22416945
52.9850354
51.28273323
51.98146988
70.85288509
113.1997004
110.0238238
82.73131902
235.9975336
185.3355342
187.6769203
172.6568663
174.6308823
219.8845229
49.30253469
48.68951981
44.05062565
79.21610444
54.488208
55.59940571
53.26021873
54.16238515
78.16597869
129.8604417
126.3457895
93.16680584
329.6601641
228.7107917
231.7458044
210.2683976
213.624623
280.0904679
55.94844877
57.07146723
87.6506461
153.7895603
148.4994978
104.7386603
475.0505452
296.3125653
291.6126052
266.5068084
271.3217019
424.704501
190.7247665
266.4688371
245.9820198
343.4092725
321.5722943
211.1980632
123.9841076
150.1319468
135.7336582
232.9391501
223.6930366
173.9828078
206.5097617
116.7328955
120.588197
112.5632196
115.602813
203.8557167
78.21738629
99.06379169
92.69351129
260.9798691
419.6242825
408.1688079
492.4359923
481.5774416
261.7371904
227.5654019
361.6299881
348.7695613
404.6306055
394.3186968
248.2093818
266.0501685
204.9487122
207.8634039
190.050617
192.4567922
247.2265169
86.39689694
117.1285482
114.22317
313.2160042
379.3737528
374.9752671
428.720775
424.8576929
349.673385
276.441283
506.8173537
496.0341982
369.8997771
364.6212445
303.9455196
393.6627605
257.8480725
262.2704789
234.9322283
238.257823
352.7916439
97.37693478
134.9327125
131.0797873
421.2824737
532.4176711
528.3558442
696.1118036
689.9871811
510.6027327
358.9832106
436.5296431
432.2142295
523.910486
519.8504535
409.831739
292.1521082
155.6320087
711.3781646
1043.037153
1036.029784
526.2261097
705.5903044
700.8913713
1015.367287
965.9349561
661.285415
43.65877178
42.80346042
39.63407434
60.74922962
46.97287578
48.60522104
43.77527249
46.31972152
59.37413466
80.08687858
76.85482819
66.24045502
131.1199144
89.5309507
96.35711588
79.31886533
86.88977915
123.6490033
92.38541205
90.74558836
75.95307191
184.8411174
108.6821348
111.6203721
105.7172744
107.9457912
181.675464
161.6319124
102.6358461
105.0677229
97.90983713
101.7828373
159.1274906
71.68790766
84.65179598
82.55075829
313.6937149
416.905036
341.6034803
950.0211688
834.829444
560.1754729
73.76501901
102.9329192
76.52470381
93.87481474
69.46909109
178.4224193
105.2986476
81.94885857
285.3336641
292.6303807
465.7617957
180.0925824
223.984531
219.8773439
231.7186474
226.9649409
182.4832649
288.7388533
272.1386281
195.1504942
516.7238873
552.2345113
834.958452
206.8496321
313.9865604
294.1570251
185.8327216
170.5237578
136.3462041
361.9715177
227.1616478
246.0719941
168.2085352
186.8039869
324.3932535
646.7733631
470.406778
488.1228806
377.1194319
393.7528415
516.7521161
166.3116895
212.8972168
200.5462103
452.4485939
425.3077482
262.0160392
259.9229414
477.8165056
461.6079471
376.6525457
365.5163922
232.4869146
244.7554763
390.8626363
380.2499906
400.5007698
397.1128016
327.0318897
335.3476874
407.3459799
403.8977281
338.8903889
335.9683885
283.2073204
290.3227657
344.8545758
341.8595678
561.9524742
556.8286609
442.1562636
462.2472886
588.5421001
573.812602
485.593524
475.8026036
379.9581447
391.6943198
498.6676808
493.061548
235.7819713
735.61046
728.531596
551.0514682
569.6859426
750.3847686
738.6541045
143.0727632
165.3782744
222.8732376
225.7758056
326.1305011
149.1454717
179.8886376
177.7338004
184.270833
182.0640498
150.7164488
143.2248933
171.5856418
169.5512689
175.5962633
173.4988409
144.64045
282.3648168
215.9562662
219.756672
170.9213892
210.5112919
207.383959
216.9371707
213.4273018
173.0326295
428.9522151
275.644796
281.2537225
199.8143466
202.4694176
262.4200076
137.8129375
164.0341809
162.2310051
167.7253005
165.8157933
139.1148185
700.8343398
533.611869
538.4001047
525.6941175
530.0123392
697.6385335
346.8531156
421.4300337
417.7563694
249.2579716
253.546404
387.9002692
162.8414488
198.9478993
196.2453201
204.5648868
201.6813811
164.7598002
155.6467007
188.8423639
186.5288297
193.686658
191.2285827
157.3702535
356.1710996
241.727685
245.366316
541.1032332
537.2067923
425.3435867
702.0828668
705.9199911
1002.295917
504.0986423
681.4700239
667.0745675
447.0309436
440.8338994
362.2232344
719.1598915
552.6087425
563.688768
541.7705802
547.9467482
717.7886913
993.952198
693.8352624
697.6902643
685.9676316
689.7794134
991.1011402
406.079682
515.642188
511.6229017
714.8083241
709.9201572
530.9770552
629.5859213
881.0170162
800.6236928
607.7763859
494.1216824
355.1837887
434.7775666
613.7175562
524.9683624
768.0287229
652.6830691
615.7721374
626.2617734
913.6900784
345.9286483
450.7436503
439.9011019
470.6381042
460.7798363
352.615001
319.9095979
401.2627378
385.8929372
428.8203655
415.9051142
326.3401382
883.5708583
582.3587277
602.3339981
415.6562748
547.7837957
523.128643
598.6633486
576.656833
427.5822938
376.5353195
488.7599203
479.0195702
509.0423537
496.4245754
384.6193613
443.0987518
453.8876974
614.5266482
294.2638648
349.5952816
338.8332315
372.2240092
360.1118588
299.7633815
552.8013329
734.0763828
714.0140953
881.0351588
807.7476811
575.8320333
518.9016232
681.4649662
679.186943
691.6738924
690.4227492
524.6070724
655.035801
946.9977287
945.3552013
950.9661498
948.4777073
658.3186228
636.4731853
937.8081309
921.672341
944.2545954
942.3662479
643.4094344
471.4367372
636.5040214
632.7456675
643.8799922
640.1081522
475.5750732
452.8889091
619.4726431
611.8371734
628.8433549
624.6667067
458.0996373
503.4086601
666.4997503
662.8474426
674.1410411
670.6494597
507.4684318
487.792126
651.5641578
647.7264472
659.1424704
655.4298629
491.7921796
667.8582743
953.8134142
952.4302135
957.503473
955.7889487
671.0281361
437.3987194
550.0690348
546.3763176
643.5384064
613.121751
472.8564724
916.4971355
629.5737872
651.6346191
577.4695242
600.877414
838.3643155
376.5198738
464.7707171
454.8283654
507.5060632
503.3183479
395.2830688
986.2017428
677.8182069
681.9815211
664.8893601
672.5457101
983.7115805
546.4733273
724.6350944
719.0484916
778.791819
752.83901
575.7523114
180.8900651
183.0809294
232.5090968
128.082105
150.6660734
149.1618387
153.8208948
152.219408
129.2706315
123.1225728
144.690432
143.2068365
147.6742378
146.1675061
124.357988
222.8926125
176.660182
178.7512925
132.8117928
157.1071414
155.4509364
160.5030613
158.7812147
134.0213501
250.8532154
194.8575849
197.3546812
386.8731485
383.3152524
316.1382064
656.3022378
485.9618563
490.5527193
473.0162003
480.3797075
649.0323539
587.1510985
452.4102581
463.3086016
435.0509008
442.6971247
564.0084538
300.8324341
359.5744721
355.1381645
264.6978249
301.9610049
286.9464502
327.9638895
315.0130176
272.3077413
557.2739757
413.1335858
427.6899086
672.2031138
502.5170755
506.370856
494.6952949
498.6550516
668.7834966
324.2715797
393.7199548
390.3445643
414.3170958
410.7633633
338.1339674
685.9293102
517.8620374
521.9278584
510.1683866
514.0667141
682.4507542
518.1623699
410.0193995
413.434515
403.0778456
406.4779139
514.1596129
280.9600264
333.0664874
330.1881288
351.3211623
348.0002908
292.6953948
535.3185575
424.790631
429.0511803
417.1399453
420.6253672
529.4185004
31.90334268
31.90445688
31.9679684
31.9061662
31.90922863
31.96888434
31.91168326
31.91597776
31.97173813
31.92179319
31.92922154
31.97606003
31.93824827
31.94858987
31.98241615
31.95968462
31.97029255
31.9895926
31.97980371
31.98621642
31.99516883
31.77387669
31.77482006
31.83792745
31.77689828
31.780089
31.84164667
31.78447635
31.78072268
31.86465912
31.83894368
31.84290039
31.87018048
31.85831245
31.86522185
31.88745885
31.88965967
31.89980019
31.91449058
31.93071785
31.94151892
31.94798126
31.97130347
31.97971455
31.97841486
31.64751341
31.65004926
31.7114792
31.65486504
31.66193369
31.72005659
31.6713905
31.68145965
31.75352752
31.73548202
31.74427222
31.76695329
31.7790759
31.79431674
31.8086389
31.84511972
31.8671963
31.86924017
31.93099418
31.95328008
31.94355848
32.01199382
32.02919261
32.00803019
31.52409135
31.52939649
31.58835055
31.53858107
31.55236107
31.60586403
31.57163499
31.60396693
31.65894099
31.65471699
31.67219666
31.68691297
31.73859396
31.76867586
31.7681588
31.87095776
31.9117223
31.88989798
32.04566905
32.09122848
32.03944654
32.21801491
32.25931859
32.17645478
31.4055142
31.41539338
31.47089637
31.43160832
31.45572838
31.50212132
31.49145039
31.55508415
31.58764013
31.60199297
31.63260491
31.63885991
31.75901998
31.81534554
31.79514634
32.02524429
32.11184294
32.04304526
32.42615954
32.5416978
32.38847087
32.90295619
33.05033981
32.75782578
31.29214697
31.3089215
31.36073653
31.33571302
31.37498582
31.41311724
31.43199058
31.53913262
31.5464143
31.58747745
31.64086148
31.63412581
31.86710938
31.96893529
31.91857148
32.39099825
32.58519347
32.431825
33.41346446
33.79564437
33.37409756
35.32700131
36.07431569
34.86046081
31.18451685
31.21052724
31.25805214
31.25096433
31.30961417
31.3402117
31.39203326
31.55706504
31.54042696
31.61632712
31.70384221
31.68361222
32.07991434
32.25705381
32.17484468
33.05979862
33.47026658
33.21041861
35.63476656
36.97916519
35.92593112
31.08419332
31.12229923
31.16431613
31.17832308
31.25839165
31.28197815
31.37192055
31.60630194
31.56727452
31.68559081
31.81472439
31.78484652
32.37901106
32.65241013
32.5510359
33.95928794
34.67282275
34.3703032
30.99238001
31.04394773
31.08021159
31.1166677
31.21929807
31.23682994
31.36795594
31.67607612
31.62272107
31.78544842
31.95885458
31.92126141
32.71169716
33.07542839
32.97219439
34.81417959
35.76199059
35.51774366
30.90928579
30.97490483
31.00527388
31.06445949
31.19013874
31.20261367
31.37361045
31.75305467
31.6939371
31.89433511
32.1076934
32.06989301
33.01837986
33.45172614
33.36213947
35.48003235
36.56187922
36.38302937
30.83471035
30.91390784
30.93856925
31.02001896
31.16856739
31.17696013
31.38665746
31.82998951
31.76959435
32.00360095
32.25099199
32.21284083
33.28667298
33.77161593
33.69142678
36.00288065
37.1775578
37.02987127
30.87805878
31.15737217
31.84212402
32.10676634
32.3806325
32.34288523
33.51369338
34.03992829
33.97216068
36.44511489
37.71074681
37.57254449
63.29495039
59.1933929
54.24831558
48.50741825
51.94197596
67.76105985
60.19202109
60.59793246
57.52250918
58.0597927
65.0814972
73.23172027
63.77674321
64.34710216
60.9955734
61.41650151
69.5200268
81.40145651
69.24292145
70.09814015
64.93885948
65.58549326
76.09384745
336.3622824
286.4957318
288.8468012
70.90283613
71.81347472
85.07753118
499.107584
398.8620277
404.1531509
340.1264379
343.4532687
416.1353678
211.5583459
168.8962884
170.7474888
157.5840635
159.6687299
198.589795
316.0725964
313.2456584
265.675684
272.0387376
321.6848062
318.872198
403.40474
333.5388382
336.8198272
291.1828668
293.6986985
346.1766243
409.3719615
414.2552611
527.0915099
114.5664596
62.89291446
56.25109863
56.94106171
49.72492431
51.00486197
55.76588798
142.3303785
119.8046318
123.0282378
90.09907786
96.58679918
106.7501926
190.6930433
153.2845533
155.5688926
140.6845574
142.4368645
174.799805
166.4960636
137.4333183
139.0835907
125.7596642
128.2588043
153.5324955
119.3806162
107.8235398
95.43253423
368.4837496
372.6986746
452.8635338
429.8448117
341.0619405
358.0640114
201.8171165
223.6984484
250.9862692
287.9919265
281.2244356
256.2740459
256.7849896
297.5646972
293.2937681
289.042658
237.6197748
208.4423523
276.4113286
277.1088015
318.2617587
300.6765123
277.0691462
276.1133518
437.9077073
360.9078553
364.9272532
312.5653655
315.8996225
376.2944173
363.1612755
306.6714457
309.5943921
31.79113751
31.81645846
31.81121751
31.82868479
31.82172147
31.79766179
31.87409205
31.84725695
31.85259986
31.82548698
31.84446694
31.83551392
31.86409037
31.85302246
31.83611741
31.89403789
31.87242558
31.88100856
31.87696492
31.88709419
31.87434295
31.91223707
31.89842727
31.89027453
31.92365396
31.90953851
31.92035907
31.93915237
31.93806392
31.92335356
31.96329078
31.95057412
31.95303481
31.95782734
31.95117562
31.96192007
31.99182381
31.98370617
31.97342875
31.99090719
32.00012948
31.9849396
31.98638032
31.70404249
31.72316032
31.71251273
31.74945783
31.73516597
31.7184465
31.77506895
31.75416191
31.76616078
31.77372539
31.78248299
31.76501278
31.82142046
31.80096366
31.79541411
31.82172168
31.80985545
31.82779655
31.87605614
31.86942407
31.8450275
31.91923362
31.89342706
31.90488725
31.8866415
31.88810645
31.91051183
31.9988239
31.97196051
31.94470096
32.01901513
31.99580693
32.02993773
31.95986352
31.97414843
31.99631849
32.10846001
32.06492886
32.04394908
32.08262387
32.12391521
32.01914155
32.04034433
31.64845894
31.65944968
31.63899608
31.70797124
31.68198175
31.67555727
31.70398922
31.69206946
31.7141988
31.78019441
31.77213195
31.73888926
31.8498528
31.80829985
31.82458373
31.79603282
31.79974823
31.83359833
31.9858606
31.94414065
31.89507834
32.05053079
31.99578392
32.04921192
31.92536124
31.95458993
31.99992801
32.25729757
32.16664198
32.10649944
32.26752935
32.2198872
32.33627241
32.07432788
32.13929263
32.19057883
32.53682296
32.38204137
32.34005202
32.43397702
32.57399014
32.20581244
32.28183655
31.63087228
31.62989065
31.59398037
31.72025885
31.67210858
31.67836368
31.66934169
31.66949569
31.7108282
31.8753582
31.84100853
31.77635936
32.00039605
31.91502029
31.96147597
31.84730096
31.87865475
31.9482436
32.30509488
32.20279154
32.09663577
32.45166601
32.32017379
32.45368547
32.11993901
32.20790091
32.3129381
33.01692645
32.76227932
32.59648091
33.07183454
32.91506716
33.27621671
32.47514404
32.6803878
32.83186159
34.03645384
33.46180791
33.32629817
33.66353072
34.21344653
32.85672884
33.12305848
31.66586596
31.65200095
31.59039547
31.81051371
31.72494103
31.74892061
31.68979873
31.70517987
31.78016985
32.09595038
32.02970552
31.91113851
32.33399535
32.16888013
32.25707151
32.01989668
32.08757373
32.22755942
32.97327512
32.76734247
32.52944635
33.39877937
33.05421803
33.3279863
32.61587806
32.81458535
33.08552701
35.0492174
34.36663425
33.83030311
35.70891942
34.95839717
36.0614028
33.66769939
34.29963544
34.90673442
40.68488956
37.89739099
36.92756071
39.07686011
43.74824812
35.29145916
36.60780535
31.75374809
31.72817189
31.63066017
31.98363962
31.84478002
31.88246019
31.77714854
31.80841791
31.93240042
32.44367622
32.3504326
32.14973431
32.89653987
32.59412056
32.71721169
32.36200107
32.4709917
32.7346445
34.05326238
33.7590684
33.27474622
35.23988814
34.39538991
34.80080349
33.64928636
34.00025761
34.68858293
39.51535472
38.15654109
36.43348486
44.60596165
40.49990757
43.02085447
37.13807047
38.96282985
41.86093416
50.04441766
48.48357436
50.65138364
31.88424101
31.84879196
31.70819006
32.21918765
32.01723617
32.06599512
31.92693841
31.96958412
32.1551461
32.86863819
32.76111753
32.46305721
33.59449915
33.12973354
33.26661382
32.857417
32.98981353
33.41483351
35.25649807
34.9723162
34.19048973
37.49977823
36.03200128
36.39758153
35.22896219
35.63825328
36.97462887
32.03342491
31.99548046
31.81142717
32.47618422
32.21458575
32.26426553
32.11565647
32.16579459
32.41335363
33.27155473
33.17419511
32.79100344
34.23975643
33.64682957
33.76562145
33.39618122
33.52473044
34.08979733
36.19392125
35.98502917
34.99729782
39.11250488
37.3049459
37.55647017
36.7291018
37.03335638
38.78097948
32.18044468
32.14263838
31.92005631
32.71572408
32.40506991
32.45263972
32.31178631
32.36020922
32.65993531
33.61799248
33.53372263
33.08645601
34.75970188
34.08053471
34.17996123
33.87526595
33.98251752
34.64311217
36.88498836
36.72507332
35.6180754
40.16992379
38.18622032
38.37554871
37.78126267
37.99379124
39.9449079
107.8440614
95.51312397
96.33080958
94.0217735
94.7627745
106.7403318
32.31654464
32.27925533
32.02424963
32.92658944
32.57710969
32.62193611
32.49385986
32.54097621
32.88216462
33.91034056
33.83598057
33.3404012
35.18051901
34.43777426
34.52436714
34.26731841
34.36081193
35.08811996
37.45049098
37.30955195
36.11307927
41.02416429
38.88448944
39.05613068
38.54768629
38.72390107
40.82987679
124.1345673
109.0372251
109.9124596
107.3765166
108.2267594
123.0726422
32.65689421
32.6995795
33.07315636
34.59734475
34.67697294
35.45993655
39.20744837
39.38048462
41.67388564
145.1755859
125.1969067
126.5783093
122.8052966
123.9914956
143.6162235
119.9946181
105.751865
106.5848672
104.1334163
104.9686075
119.0289439
139.0884866
120.5322103
121.703913
118.3755622
119.4549767
137.6744327
73.2346965
65.74812851
70.71608954
55.41732844
58.7974536
65.83286642
51.50692928
54.5955729
51.16093448
49.02581571
50.40868288
47.08279274
61.38006958
55.54833371
52.56267332
57.75002919
65.43637396
59.38922814
59.80068656
67.22212376
55.1118928
54.79355013
50.80733108
65.63317901
58.52737989
58.97863767
62.75286178
63.25655973
72.38154204
52.46476591
57.00278378
56.66779317
57.72067138
57.35439673
52.72219971
51.51087915
55.72329035
55.41405694
56.34484808
56.02906874
51.74807781
70.16344184
61.83773677
62.29104431
112.1779219
98.88251124
99.79086667
97.142687
98.02079386
111.1093246
67.68934537
68.47855083
80.34543153
54.83268857
60.40551831
59.89922643
61.49480809
60.93573703
55.1870291
53.54033011
58.51949792
58.11221126
59.4130564
58.95711057
53.84326433
77.10607626
66.24780172
66.96822069
128.6589636
112.5261532
113.4692659
110.7493864
111.6537663
127.495139
282.1802935
284.3086155
333.0376361
56.4356495
62.67548828
62.07044903
63.92897944
63.29403395
56.71087955
86.05392183
72.68807929
73.62856813
152.0179414
129.8980957
131.008722
127.671876
129.1388186
150.2940593
387.1002343
394.0598442
486.328779
323.0601153
315.0586177
291.9018964
420.3242108
346.8027347
350.3489476
260.0622707
236.5222669
238.5592876
233.684734
235.0246091
253.4601862
336.7684658
276.2549754
281.4949031
265.6820084
270.9908411
329.3541519
165.3050979
167.1064609
209.0132838
117.9992198
138.867801
137.4235613
141.757086
140.3026999
119.2825626
113.9772829
132.9444762
131.1856924
135.994015
134.5265922
114.6270741
200.605887
161.5392981
163.4535055
415.4593284
339.6984128
343.2611754
333.9588343
336.8170348
411.5688461
488.8189429
382.9047306
386.2238082
376.3197528
379.6080789
485.212707
263.6918083
310.4027079
307.4901942
357.5843894
293.4037217
296.8578055
285.8593024
289.9869717
353.36711
401.2191022
328.3567403
331.3197256
322.7640088
325.6233886
397.7588888
116.1826502
102.4616808
103.3293321
100.6800633
101.6147464
115.203218
327.3379854
324.4975299
274.1855523
503.2332346
396.2656256
399.6354316
389.5557512
392.8914838
499.5934033
326.6970354
330.1182299
398.7780016
349.4802463
296.1245782
298.7610017
133.6163857
116.3256773
117.3613142
114.3809578
115.3622046
132.3368712
293.3590517
335.5686394
329.7665592
132.3221347
54.56872242
55.48104241
61.92775259
57.71347663
52.32890815
53.53827037
111.9668764
116.2254875
137.2079286
92.15564212
100.1504431
96.44267814
106.1298785
103.1692184
94.24748235
92.36947719
87.12180978
83.08644673
115.0291637
101.9413438
107.1915091
148.5252783
151.0190968
187.9914082
109.5684081
126.2983811
124.8484515
129.4938064
127.8190774
110.4596897
106.4626771
121.2684827
120.1343823
123.5856906
122.3575623
107.1356264
178.2403504
144.2605263
146.379714
134.1147965
135.8456365
164.0613099
103.5589463
116.7823804
115.4194339
119.0867893
117.9045752
104.2682763
99.473464
110.6714217
108.4276683
114.0906687
112.3806538
100.6026039
156.438272
130.3710323
132.3730674
80.0873707
89.92004579
83.89876141
79.43407316
84.80296793
144.3958503
125.6837782
138.9948659
96.57690525
105.5719116
123.8596422
87.91516456
96.23981185
86.89998924
458.3912476
376.7549551
382.0687509
283.1167966
244.9173509
247.7204003
240.3931953
242.7519414
277.8398423
306.5914008
256.9942999
261.2676855
250.3168623
253.7127147
300.3349386
295.5613913
320.9390238
396.5413826
272.8625917
255.1974764
234.8048542
283.3652559
247.459144
270.4410213
442.0564527
353.7120704
357.7075945
346.263742
351.1187271
432.7901911
304.4605156
301.209266
258.2420694
473.641626
369.6222389
373.0179528
362.0063344
366.0002477
468.5180828
372.9998499
305.6172372