/*--------------------------------*- C++ -*----------------------------------*\
| =========                 |                                                 |
| \\      /  F ield         | OpenFOAM: The Open Source CFD Toolbox           |
|  \\    /   O peration     | Version:  v2012                                 |
|   \\  /    A nd           | Website:  www.openfoam.com                      |
|    \\/     M anipulation  |                                                 |
\*---------------------------------------------------------------------------*/
FoamFile
{
    version     2.0;
    format      ascii;
    class       surfaceScalarField;
    location    "2.88";
    object      meshPhi;
}
// * * * * * * * * * * * * * * * * * * * * * * * * * * * * * * * * * * * * * //

dimensions      [0 3 -1 0 0 0 0];
oriented        oriented;


internalField   nonuniform List<scalar> 
6430
(
0
0
0
0
0
0
0
0
0
0
0
0
0
0
0
0
3.602473962e-06
0
-4.491183136e-06
6.410126091e-06
7.118350578e-06
1.662846746e-05
-3.306178581e-05
-1.745760952e-05
5.277473727e-05
4.139506272e-05
-0.000130825418
-4.24370544e-05
0.0001589705387
7.518059136e-05
-0.0002343921071
-7.458610489e-05
0.0002518206257
8.500796359e-05
-0.0002758296765
-8.494381891e-05
0.0001387629803
0.0001370025515
1.39917517e-05
-6.954187988e-05
-1.397263411e-05
6.952276228e-05
0
0
0
0
0
0
0
0
0
0
0
0
0
0
0
0
5.17953904e-06
0
-4.345465622e-06
7.725730011e-06
6.879133777e-06
1.870197577e-05
-3.496468197e-05
-1.829019658e-05
5.474723705e-05
4.408730181e-05
-0.0001283097416
-4.338488738e-05
0.0001539637283
7.853061455e-05
-0.0002187781865
-7.715438239e-05
0.0002332134444
8.441574329e-05
-0.0002478996695
-8.441574328e-05
0.0001248479131
0.0001230517564
1.395961034e-05
-0.0001248479131
-2.742658689e-05
1.346697657e-05
6.261238514e-05
6.223552799e-05
0
0
0
0
0
0
0
0
0
0
0
0
0
0
0
0
2.798958204e-06
0
-1.063117394e-06
3.140882965e-06
1.899402458e-06
1.523949151e-05
-2.25135066e-05
-1.36584806e-05
3.826443573e-05
3.865865632e-05
-0.0001016007366
-3.634375973e-05
0.0001248064745
6.799884705e-05
-0.0001857877318
-6.369145555e-05
0.000200340573
8.060197994e-05
-0.0002213116639
-7.669387096e-05
0.0002214761587
2.742658688e-05
-0.000220129589
-5.288370658e-05
0.000220129589
2.545711966e-05
0
0
0
0
0
0
0
0
0
0
0
0
0
0
0
0
2.64632056e-08
0
0
1.489965258e-08
0
7.710123432e-06
-6.626932422e-06
-5.577487437e-06
1.516733864e-05
2.768015518e-05
-5.821715195e-05
-2.430772098e-05
7.626783736e-05
4.888953676e-05
-0.0001299883647
-4.366943446e-05
0.0001451911001
6.13657048e-05
-0.0001765111254
-5.537808602e-05
0.0001821202962
4.878667831e-05
-0.0001885088417
-4.522109239e-05
0.0001883491427
0
0
0
0
0
0
0
0
0
0
0
0
0
0
0
0
0
0
0
0
0
6.895375503e-07
-1.233936641e-08
-1.18821761e-07
9.465631622e-07
1.333252938e-05
-1.742925213e-05
-9.699793066e-06
2.697602312e-05
2.800255036e-05
-6.157633779e-05
-2.29261842e-05
7.325045877e-05
3.658516362e-05
-0.0001021188679
-3.048497163e-05
0.0001087606846
3.070771113e-05
-0.000118639023
-2.545069112e-05
0.0001187455797
0
0
0
0
0
0
0
0
0
0
0
0
0
0
0
0
0
0
0
0
0
0
0
0
0
1.329453294e-06
-3.460797787e-07
-2.19524465e-07
1.641604396e-06
9.18950721e-06
-1.199724499e-05
-5.552713238e-06
1.684825458e-05
1.431911998e-05
-3.15432892e-05
-9.98139361e-06
3.560124496e-05
1.160403918e-05
-4.281103272e-05
-8.100624937e-06
4.333418599e-05
0
0
0
0
0
0
0
0
0
0
0
0
0
0
0
0
0
0
0
0
0
0
0
0
0
0
0
0
0
3.439724503e-08
0
0
4.447526659e-08
1.357798944e-06
-1.252979851e-06
-2.187384511e-07
1.94388888e-06
1.480982613e-06
-3.74245485e-06
-4.831323658e-07
4.030149087e-06
0
0
0
0
0
0
0
0
0
0
0
0
0
0
0
0
0
0
0
0
0
0
0
0
0
0
0
0
0
0
0
0
0
0
0
0
0
0
0
0
0
0
0
0
0
0
0
0
0
0
0
0
0
0
0
0
0
0
0
0
0
0
0
0
0
0
0
0
0
0
0
0
0
0
0
0
0
0
0
0
0
0
0
0
0
0
0
0
0
0
0
0
0
0
0
0
0
0
0
0
0
0
0
0
0
0
0
0
0
0
0
0
0
0
0
0
0
0
0
0
0
0
0
0
0
0
0
0
0
0
0
0
0
0
0
0
0
0
0
0
0
0
0
0
0
0
0
0
0
0
0
0
0
0
0
0
0
0
0
0
0
0
0
0
0
0
0
0
0
0
0
0
0
0
0
0
0
0
0
0
0
0
0
0
0
0
0
0
0
0
0
0
0
0
0
0
0
0
0
0
0
0
0
0
0
0
0
0
0
0
0
0
0
0
0
0
0
0
0
0
0
0
0
0
0
0
0
0
0
0
0
0
0
0
0
0
0
0
0
0
0
0
0
0
0
0
0
0
0
0
0
0
0
0
0
0
0
0
0
0
0
0
0
0
0
0
0
0
0
0
0
0
0
0
0
0
0
0
0
0
0
0
0
0
0
0
0
0
0
0
0
0
0
0
0
0
0
0
0
0
0
0
0
0
0
0
0
0
0
0
0
0
0
0
0
0
0
0
0
0
0
0
0
0
0
0
0
0
0
0
0
0
0
0
0
0
0
0
0
0
0
0
0
0
0
0
0
0
0
0
0
0
0
0
0
0
0
0
0
0
0
0
0
0
0
0
0
0
0
0
0
0
0
0
0
0
0
0
0
0
0
0
0
0
0
0
0
0
0
0
0
0
0
0
0
0
0
0
0
0
0
0
0
0
0
0
0
0
0
0
0
0
0
0
0
0
0
0
0
0
0
0
0
0
0
0
0
0
0
0
0
0
0
0
0
0
0
0
0
0
0
0
0
0
0
0
0
0
0
0
0
0
0
0
0
0
0
0
0
0
0
0
0
0
0
0
0
0
0
0
0
0
0
0
0
0
0
0
0
0
0
0
0
0
0
0
0
0
0
0
0
0
0
0
0
0
0
0
0
0
0
0
0
0
0
0
0
0
0
0
0
0
0
0
0
0
0
0
0
0
0
0
0
0
0
0
0
0
0
0
0
0
0
0
0
0
0
0
0
0
0
0
0
0
0
0
0
0
0
0
0
0
0
0
0
0
0
0
0
0
0
0
0
0
0
0
0
0
0
0
0
0
0
0
0
0
0
0
0
0
0
0
0
0
0
0
0
0
0
0
0
0
0
0
0
0
0
0
0
0
0
0
0
0
0
0
0
0
0
0
0
0
0
0
0
0
0
0
0
0
0
0
0
0
0
0
0
0
0
0
0
0
0
0
0
0
0
0
0
0
0
0
0
0
0
0
0
0
0
0
0
0
0
0
0
0
0
0
0
0
0
0
0
0
0
0
0
0
0
0
0
0
0
0
0
0
0
0
0
0
0
0
0
0
0
0
0
0
0
0
0
0
0
-7.004181414e-05
7.004199516e-05
1.399157068e-05
-6.310562219e-05
6.310562219e-05
1.395961033e-05
-0.0002828394708
8.495582047e-05
0.0001423116248
0.0001405799891
-2.948972618e-05
7.053765552e-05
2.94975864e-05
-0.0001405873299
-0.0002579151803
8.520789001e-05
0.0001305357399
0.0001265872936
-2.939844779e-05
6.348167146e-05
2.939844778e-05
-0.0001265872936
6.923796551e-05
-0.000138778114
-2.949145759e-05
-1.399520054e-05
-6.654960107e-05
6.654316291e-05
1.40016387e-05
-5.348232419e-06
3.268657184e-05
5.536815672e-06
-3.287515509e-05
5.845330519e-06
3.446004002e-05
-3.457835542e-05
-5.727015125e-06
-0.0001126738653
0.0001126738653
2.74265869e-05
3.482027261e-05
5.92040509e-06
-3.489534718e-05
-5.596986677e-06
3.466933727e-05
5.74792202e-06
6.36561511e-05
-1.031468203e-05
-6.332043359e-05
5.008602427e-06
4.970362094e-06
3.25597186e-05
-3.268881592e-05
-5.219135095e-06
-6.608577488e-05
-1.398410926e-05
6.607468359e-05
4.419553866e-06
-4.366020829e-06
3.250618557e-05
-9.995664746e-06
6.371591257e-05
4.823812221e-06
5.112091052e-06
-5.451607911e-06
3.431466125e-05
4.547747306e-06
3.25583784e-05
-3.35274518e-05
-4.166184851e-06
4.759626894e-06
3.377058487e-05
-3.390170799e-05
-4.628503777e-06
1.188697092e-05
-6.78349941e-05
-1.188553355e-05
6.783355673e-05
-1.188766353e-05
-6.653464443e-05
1.192368309e-05
3.330674233e-05
3.319188254e-05
1.194888594e-05
-6.950274989e-05
-1.191945902e-05
6.947332298e-05
-6.826141335e-05
6.82473175e-05
1.190106678e-05
3.369901176e-05
4.909414586e-06
-3.384879945e-05
5.051845812e-06
3.560201981e-05
-3.568484885e-05
-4.969016776e-06
1.19434032e-05
-7.14168585e-05
-1.1934073e-05
7.14075283e-05
-7.003150559e-05
7.003071825e-05
1.194967329e-05
-7.179073227e-05
7.179158351e-05
1.194255196e-05
3.56484709e-05
5.151287002e-06
-3.574791209e-05
-4.877053123e-06
3.552259824e-05
5.002925783e-06
-4.744065647e-06
3.546903233e-05
-6.605722194e-05
-1.185211565e-05
3.306920616e-05
3.295246791e-05
-9.33888324e-06
-7.331794027e-05
1.090925009e-05
3.418991496e-05
3.755765845e-05
3.822169608e-05
-3.703529286e-06
4.42402733e-06
-3.894219412e-05
6.041079077e-06
1.680510486e-06
3.050010651e-05
-3.167186052e-06
3.142513448e-06
-3.206910605e-05
3.627147353e-06
3.285393379e-05
-3.292666975e-05
-3.554411389e-06
-4.560333655e-06
3.352809031e-05
4.731255101e-06
-1.281475821e-05
6.281528534e-06
-2.699422213e-05
3.297043228e-05
3.740216824e-06
-3.308350175e-05
3.431868395e-05
-4.395878653e-05
-3.17465563e-06
-4.342253903e-06
3.355250512e-05
-3.876224832e-06
-3.335665995e-06
3.443422877e-06
-0.0002282431755
0.0002271427385
8.347988137e-05
-6.07676026e-05
-0.000227033566
0.0001143597007
3.136915483e-05
2.939844779e-05
-0.0001248479131
-2.939844778e-05
-2.742658689e-05
-0.0001196305795
0.0001196305795
2.742658689e-05
0.0001196305795
-2.151507846e-05
2.151507846e-05
-0.0001196305795
6.285778567e-05
-6.272581866e-05
-1.044664904e-05
3.447856411e-05
5.408915974e-06
-3.41956878e-05
-5.691792285e-06
5.647049706e-06
-3.371820173e-05
-5.73322922e-06
3.380438125e-05
-5.706240055e-06
-3.315974027e-05
3.310613121e-05
5.759849114e-06
-1.001279342e-05
6.287491434e-05
-1.954481574e-05
0.0001196305795
1.954481573e-05
-5.384998852e-06
-3.597350788e-05
3.585612677e-05
5.502379958e-06
4.87463958e-06
-3.609289517e-05
-5.441610446e-06
3.665986603e-05
4.930458453e-05
-3.971186681e-05
-1.3296247e-05
-6.503522141e-05
-1.200909779e-05
3.725796884e-05
3.044746712e-05
-6.310241869e-05
-1.193367177e-05
6.304108124e-05
1.199500922e-05
-3.301468312e-05
-5.636974116e-06
3.294541718e-05
-5.454257973e-06
-3.277896474e-05
3.273592936e-05
5.497293348e-06
3.234687492e-05
-4.766145159e-06
4.922700008e-06
-3.250342977e-05
-3.221956203e-06
-4.158280365e-06
4.22280799e-06
3.228234729e-05
-1.249408112e-05
3.208112335e-05
5.301159931e-06
-2.488820216e-05
6.311341033e-05
-8.60800993e-06
8.681609582e-06
-6.318700998e-05
-3.071662342e-05
-3.28618833e-06
5.534566361e-05
-5.073822612e-06
-3.424660782e-05
3.412645298e-05
5.193977447e-06
1.406880855e-05
-7.381826229e-06
2.779158178e-05
5.41714472e-06
-3.396198824e-05
-5.424472348e-06
3.396931587e-05
-3.368776998e-05
3.381176652e-05
5.523053174e-06
3.489745595e-05
4.86088076e-06
-3.434942073e-05
3.413631124e-05
5.315386396e-06
-3.426981118e-05
-5.181886461e-06
5.546343266e-06
-3.448336955e-05
-5.512598503e-06
3.444962479e-05
-3.402856775e-05
3.399295329e-05
5.452759182e-06
-3.582285331e-05
-5.264247092e-06
3.570210155e-05
-3.601935182e-05
3.629983569e-05
4.594155707e-06
3.243127355e-05
-3.261107708e-05
-4.586341633e-06
-3.275104488e-05
-5.441750098e-06
3.273853701e-05
-5.930944817e-06
-3.754598267e-05
3.782715907e-05
5.649768421e-06
3.020467215e-05
-1.148925808e-05
6.638990641e-06
-2.535440471e-05
3.251982745e-05
-4.149231083e-05
-3.521597739e-06
-3.840695966e-06
3.211368915e-05
5.25195575e-06
-1.239797026e-05
3.274682277e-05
-2.560080825e-05
-4.178766913e-06
3.238751164e-05
3.872378618e-06
-3.230902258e-06
3.249959564e-05
3.291433866e-06
-3.256012725e-05
-4.963726987e-06
3.402621562e-05
2.312480781e-06
-4.638587541e-05
3.803108002e-06
3.355481945e-05
-3.356063601e-05
-3.79729144e-06
3.247225291e-05
-1.415799467e-06
-2.58044977e-05
3.37383552e-05
3.992962219e-06
-3.392820941e-05
4.491552229e-05
4.050742219e-06
5.67564306e-06
-3.474657327e-05
-5.638707601e-06
3.470963782e-05
-3.459522136e-05
3.457054962e-05
5.57101501e-06
5.457401398e-06
-3.438862282e-05
5.245369156e-06
-3.573036478e-05
-5.607899541e-06
5.569705839e-06
-3.536318094e-05
-5.6107553e-06
3.54042304e-05
-3.491740276e-05
3.493185775e-05
5.661188073e-06
5.075018441e-06
-4.630813698e-06
3.422513253e-05
-3.527442914e-05
7.552966416e-06
3.279648117e-05
5.769175679e-06
-3.52956828e-05
-4.276809579e-06
-3.241599872e-05
3.232678747e-05
3.416954044e-05
-5.329595202e-06
-3.429155314e-05
4.47944749e-06
-4.402429481e-06
3.409252243e-05
3.416329504e-05
5.030880835e-06
-3.302111265e-05
3.253797912e-05
5.504653525e-06
-3.575089395e-05
-5.500771327e-06
3.574701175e-05
-3.545635919e-05
3.550427872e-05
5.52178631e-06
4.990644878e-06
-3.576462754e-05
5.464503978e-06
-3.592431861e-05
-5.363038672e-06
5.573630673e-06
-3.604429457e-05
-5.555041483e-06
3.602570538e-05
-3.585764511e-05
3.584218795e-05
5.520110682e-06
4.835387995e-06
-4.711082163e-06
3.539829241e-05
-3.558623319e-05
3.54742778e-05
4.94734338e-06
-3.57175216e-05
5.134214195e-06
3.550019103e-05
-4.624828053e-06
-3.561942863e-05
4.562064132e-06
-4.355072573e-06
3.529319947e-05
3.53200143e-05
-3.481710276e-05
3.472266588e-05
4.518464211e-06
-5.227496749e-06
4.990132708e-06
-3.457973872e-05
-5.856678464e-06
-3.831301241e-05
3.176697668e-05
1.27112575e-06
-3.303810243e-05
3.348321921e-06
3.305485444e-05
-3.231151603e-05
-3.233277668e-06
-4.091309018e-06
3.243236956e-05
-4.759865509e-06
3.040434898e-05
4.560188685e-06
4.213747173e-06
-4.088226766e-06
3.340256991e-05
-3.368159572e-05
4.2728884e-06
3.362245449e-05
4.8532592e-06
-3.380359982e-05
2.618774505e-06
-2.851428817e-05
1.517131658e-06
-4.547591818e-05
3.325888979e-05
-5.249790031e-06
-2.64919681e-05
-3.816985887e-06
3.390122005e-05
3.376373764e-05
-4.098492849e-06
-3.400749869e-05
3.923440592e-06
-3.193762568e-06
3.303405962e-05
3.338771895e-05
-3.748493897e-06
3.916590428e-06
-4.430520373e-06
-3.596454896e-05
3.592819371e-05
-4.377831832e-06
-3.575927429e-05
3.570658575e-05
-4.712920107e-05
-9.104506418e-07
4.803965172e-05
3.613257527e-05
-3.580501004e-05
1.454631967e-05
2.913922202e-05
4.076984626e-06
-3.776247986e-05
-6.002176723e-06
3.783371177e-05
-5.364552905e-06
-3.185253926e-05
3.188414866e-05
5.332943501e-06
3.308013459e-05
-4.042894072e-06
3.213035478e-06
-3.225027599e-05
-3.253426768e-05
3.23778646e-05
5.07910309e-06
-5.195164482e-06
5.348630041e-06
-3.268773324e-05
-5.050423041e-06
-3.264817121e-05
3.232386301e-05
-1.380856625e-06
3.193697582e-05
-2.525495926e-05
4.250338178e-05
-4.38842384e-05
-3.753883696e-06
3.571548448e-05
1.118533804e-06
-5.720210813e-06
3.273306198e-05
6.370859253e-06
-3.338371043e-05
2.677018831e-05
-3.392211301e-05
-4.337333381e-06
4.351311021e-06
-4.324015036e-06
3.4099157e-05
-3.41434566e-05
3.409233813e-05
-3.427907435e-05
-3.365881299e-05
3.13078676e-05
-4.230661012e-06
4.26438257e-06
3.544055625e-05
-4.187246396e-06
3.535487779e-05
-4.318979938e-06
-3.560153684e-05
3.554268495e-05
-3.551684861e-05
3.546225124e-05
4.111484101e-06
3.626533622e-05
-3.572925169e-05
3.548566322e-05
-3.575992403e-05
-3.168938618e-06
3.960674414e-06
3.469392742e-05
3.218594696e-05
-4.114636213e-06
3.524740412e-05
3.513923767e-05
-4.959098947e-06
-3.270240117e-05
3.322891462e-05
-3.319788086e-05
3.31610372e-05
-2.926143537e-05
4.054854675e-06
3.184557133e-05
-1.145466871e-05
5.091103614e-06
-2.289787027e-05
-5.042096744e-06
1.234832717e-06
-4.272714355e-05
3.068512772e-05
-2.435919139e-05
3.121838466e-05
3.266866315e-05
3.31687357e-05
-3.063324183e-06
3.869212186e-06
3.305411882e-05
-3.75459531e-06
3.725518472e-06
3.289051649e-05
3.386635951e-05
-3.39768273e-05
4.298918785e-06
3.384032912e-05
3.400111937e-05
-2.772835221e-05
5.190263387e-06
-1.245845075e-05
3.300074412e-05
-2.573255676e-05
-1.513747642e-06
3.286897571e-05
-2.616496468e-05
3.084447898e-06
3.311332349e-05
-4.280587383e-05
3.343187097e-05
-4.422167329e-05
4.343306529e-05
-4.494681293e-05
-3.344431863e-05
3.362029496e-05
-1.253615404e-05
-2.615795462e-05
-3.031298156e-06
-8.033581047e-07
4.571888039e-05
-3.446766833e-05
3.047054766e-05
-3.451541896e-05
-3.330284141e-05
5.413685104e-05
1.65052241e-05
0.0001340468269
-3.266120931e-05
3.435838974e-05
-0.0001061431261
0.0001627953552
4.120492972e-05
0.000239108363
-6.654078206e-05
6.620292408e-05
-0.0002164250353
0.0002577510765
7.478212677e-05
-8.985502231e-05
8.940847876e-05
-0.0002800782275
-3.629734333e-05
5.65448405e-05
1.841449168e-05
0.0001315092579
-3.694176953e-05
3.665313344e-05
-0.0001051525185
-0.0001008326962
-3.549210894e-05
0.0001577895558
4.37874473e-05
0.0002254334176
-6.995805475e-05
6.970395511e-05
-0.0002057767475
-0.0002119232458
-6.745856759e-05
0.000241025401
7.835303841e-05
-9.100074091e-05
9.140943233e-05
-0.0002574541772
-0.00027342798
-9.032857545e-05
-8.423746126e-05
-0.0002696204851
0.0001352515468
0.0001336625806
-3.755554177e-05
0.0001336387675
3.75514479e-05
-0.0001336346736
3.753677046e-05
0.0001387646378
-0.0001387592167
-3.754219157e-05
-1.399323826e-05
-6.82829449e-05
6.827827681e-05
1.399790634e-05
-1.241978998e-05
1.24288806e-05
-6.827050397e-05
1.244930237e-05
-6.950682025e-05
-1.244523201e-05
-2.642686411e-05
4.352613835e-05
1.654985091e-05
0.0001103069188
-3.23813541e-05
3.406597783e-05
-8.644349449e-05
-0.0001024647479
-3.63676119e-05
0.0001342917579
4.063110855e-05
0.0001960751891
-6.059001065e-05
6.393255408e-05
-0.0001781610997
-0.0002002093719
-6.872160657e-05
0.0002103133141
7.177105653e-05
-8.130297867e-05
8.51129197e-05
-0.0002263621605
-0.0002476093188
-9.013066788e-05
0.0002410005395
-8.440042529e-05
-0.0002410092494
-7.653133132e-05
0.0001196305795
3.925014127e-05
3.728119e-05
0.00012136996
3.728119e-05
0.0001248479131
-0.0001248479131
-3.728119002e-05
-2.742658689e-05
-0.0001230517564
6.174309883e-05
6.130865755e-05
-1.248166603e-05
6.130865755e-05
1.248166603e-05
-6.130865755e-05
1.248273387e-05
6.26113173e-05
-6.261238514e-05
-1.248166603e-05
-1.018331596e-05
2.072270757e-05
9.831795604e-06
6.974363495e-05
-2.257097987e-05
2.544299567e-05
-5.116392876e-05
-7.872881581e-05
-3.036929232e-05
8.943054953e-05
3.082716751e-05
0.0001459231555
-4.362913763e-05
4.820504981e-05
-0.0001283900452
-0.0001678639853
-5.677730575e-05
0.0001612351091
5.402219018e-05
0.0001908180738
-6.028539216e-05
6.61826267e-05
-0.0001837343145
-0.0002180390063
-7.680725168e-05
0.0001954455368
6.69902324e-05
0.0001994969837
-5.415933021e-05
5.758039977e-05
-0.0001992536714
-0.000220129589
-6.076760265e-05
0.0001992017283
5.13589185e-05
-3.797227238e-07
2.924598778e-06
1.873256805e-06
2.603562696e-05
-9.465792374e-06
1.281185671e-05
-1.597449029e-05
-4.15163587e-05
-1.946699506e-05
3.789512009e-05
1.705952586e-05
7.831718797e-05
-2.461910352e-05
2.940273893e-05
-6.467117132e-05
-0.0001129786024
-3.89434482e-05
9.133155475e-05
3.318474643e-05
0.0001222442828
-3.549883376e-05
4.16591711e-05
-0.0001135996929
-0.0001685760032
-5.415574551e-05
0.0001290461817
4.285376117e-05
0.0001387618734
-3.37782637e-05
3.945058274e-05
-0.0001372095933
-0.0001877311542
-4.987011606e-05
0.0001387795444
3.593020042e-05
0
0
0
1.896464531e-06
-3.005250838e-07
1.46903771e-06
-3.549261998e-07
-9.702874895e-06
-6.314414828e-06
4.930856389e-06
3.46091726e-06
2.094745672e-05
-7.160607283e-06
1.102689565e-05
-1.474253426e-05
-4.960370042e-05
-1.989859664e-05
2.755466154e-05
1.340242497e-05
4.628790491e-05
-1.36496574e-05
1.850729796e-05
-4.054415154e-05
-9.385675477e-05
-2.95264604e-05
5.119422092e-05
1.92467634e-05
5.948090795e-05
-1.311540345e-05
1.762496991e-05
-5.786887404e-05
-0.0001169882748
-2.811401311e-05
5.992816284e-05
1.573077502e-05
0
0
0
0
0
0
0
0
0
0
0
2.842664685e-07
0
2.348539813e-07
-1.857247191e-08
-7.66608254e-06
-3.924493292e-06
8.729203158e-07
7.763125736e-07
4.58040151e-06
-9.928716544e-07
2.921069047e-06
-3.151840744e-06
-2.690571347e-05
-9.361666912e-06
6.011877792e-06
3.418352941e-06
9.171924224e-06
-1.67712134e-06
3.509058841e-06
-8.397661628e-06
-4.132840685e-05
-9.233198992e-06
9.59608202e-06
3.05791994e-06
0
0
0
0
0
0
0
0
0
0
0
0
0
0
0
0
0
0
0
0
0
0
0
-6.694065553e-07
-7.733137555e-08
0
0
0
0
0
0
-3.265108605e-06
-5.170301471e-07
0
0
0
0
0
0
0
0
0
0
0
0
0
0
0
0
0
0
0
0
0
0
0
0
0
0
0
0
0
0
0
0
0
0
0
0
0
0
0
0
0
0
0
0
0
0
0
0
0
0
0
0
0
0
0
0
0
0
0
0
0
0
0
0
0
0
0
0
0
0
0
0
0
0
0
0
0
0
0
0
0
0
0
0
0
0
0
0
0
0
0
0
0
0
0
0
0
0
0
0
0
0
0
0
0
0
0
0
0
0
0
0
0
0
0
0
0
0
0
0
0
0
0
0
0
0
0
0
0
0
0
0
0
0
0
0
0
0
0
0
0
0
0
0
0
0
0
0
0
0
0
0
0
0
0
0
0
0
0
0
0
0
0
0
0
0
0
0
0
0
0
0
0
0
0
0
0
0
0
0
0
0
0
0
0
0
0
0
0
0
0
0
0
0
0
0
0
0
0
0
0
0
0
0
0
0
0
0
0
0
0
0
0
0
0
0
0
0
0
0
0
0
0
0
0
0
0
0
0
0
0
0
0
0
0
0
0
0
0
0
0
0
0
0
0
0
0
0
0
0
0
0
0
0
0
0
0
0
0
0
0
0
0
0
0
0
0
0
0
0
0
0
0
0
0
0
0
0
0
0
0
0
0
0
0
0
0
0
0
0
0
0
0
0
0
0
0
0
0
0
0
0
0
0
0
0
0
0
0
0
0
0
0
0
0
0
0
0
0
0
0
0
0
0
0
0
0
0
0
0
0
0
0
0
0
0
0
0
0
0
0
0
0
0
0
0
0
0
0
0
0
0
0
0
0
0
0
0
0
0
0
0
0
0
0
0
0
0
0
0
0
0
0
0
0
0
0
0
0
0
0
0
0
0
0
0
0
0
0
0
0
0
0
0
0
0
0
0
0
0
0
0
0
0
0
0
0
0
0
0
0
0
0
0
0
0
0
0
0
0
0
0
0
0
0
0
0
0
0
0
0
0
0
0
0
0
0
0
0
0
0
0
0
0
0
0
0
0
0
0
0
0
0
0
0
0
0
0
0
0
0
0
0
0
0
0
0
0
0
0
0
0
0
0
0
0
0
0
0
0
0
0
0
0
0
0
0
0
0
0
0
0
0
0
0
0
0
0
0
0
0
0
0
0
0
0
0
0
0
0
0
0
0
0
0
0
0
0
0
0
0
0
0
0
0
0
0
0
0
0
0
0
0
0
0
0
0
0
0
0
0
0
0
0
0
0
0
0
0
0
0
0
0
0
0
0
0
0
0
0
0
0
0
0
0
0
0
0
0
0
0
0
0
0
0
0
0
0
0
0
0
0
0
0
0
0
0
0
0
0
0
0
0
1.245779636e-05
-7.003999958e-05
1.245468279e-05
-7.141318402e-05
-1.245835727e-05
1.398673422e-05
-7.141049449e-05
-1.39936073e-05
7.141736758e-05
1.248482655e-05
-6.310451136e-05
1.23479631e-05
-6.489306191e-05
-1.249012261e-05
1.376332474e-05
-6.494579014e-05
-1.395961033e-05
6.514207573e-05
-8.110164972e-06
8.115910423e-06
0.0001405932534
3.752884556e-05
-0.0001405853285
0.0001457727305
-0.0001457702771
-3.752610335e-05
-0.0002897665827
0.0001457689192
0.0001440089664
7.262353352e-05
-0.0001457757246
-2.951693044e-05
-3.552370564e-05
0.0001457762667
-3.554089396e-05
0.0001405957821
3.553836529e-05
0.0001265872936
3.728119001e-05
-0.0001265872936
0.0001327053243
-0.0001327099186
-3.755094742e-05
-0.0002705022896
0.0001329171061
0.0001385556123
2.949143835e-05
6.581021447e-05
-0.0001327441188
-2.864330885e-05
3.555758167e-05
-3.55849111e-05
0.0001327326537
-3.531048295e-05
0.0001265872936
3.531048295e-05
-3.554562399e-05
0.0001387693678
0.0001336425107
3.555383851e-05
6.707011628e-05
2.952953084e-05
-0.0001336578098
-1.241895082e-05
1.242842415e-05
-6.654411776e-05
-6.783435319e-05
-1.242043089e-05
-6.783380829e-05
-1.399380023e-05
6.783437027e-05
-3.316157048e-05
5.677273504e-06
-5.782352291e-06
5.85980737e-06
-3.323902556e-05
-5.64197706e-06
-3.301553033e-05
-5.747650587e-06
5.827688846e-06
-3.465839368e-05
3.442277256e-05
-3.451718343e-05
-5.653239714e-06
-5.59579571e-06
0.0001126738653
-2.151507845e-05
2.151507844e-05
-0.0001126738653
0.000117891199
-0.000117891199
-2.151507845e-05
-0.0001178911989
-2.742658689e-05
0.000117891199
-1.954481573e-05
0.0001178911989
-1.954481575e-05
0.0001126738653
1.954481573e-05
-6.267425185e-05
-8.049387688e-06
-6.130872994e-05
8.04812699e-06
-3.523833455e-05
5.863056832e-06
-5.859050708e-06
5.797966365e-06
-3.51772502e-05
-3.492670904e-05
-3.618091618e-05
3.616733935e-05
5.587207498e-06
5.554751981e-06
-3.606375589e-05
-7.180789901e-05
7.180563568e-05
1.398899755e-05
1.246540152e-05
-7.1801451e-05
3.295523641e-05
-3.242200269e-05
-4.576127801e-06
-3.182746131e-05
-5.400005792e-06
3.18629142e-05
-6.315205935e-05
-1.088578277e-05
5.455061632e-06
5.2623469e-06
-5.496948503e-06
-3.283384448e-05
3.255603072e-05
-3.270434919e-05
-7.306706522e-05
7.310696389e-05
1.372342607e-05
1.238122516e-05
-7.335120233e-05
-6.606636168e-05
-1.240981108e-05
6.338876927e-05
-9.713074644e-06
5.00472113e-06
5.035496815e-06
3.23166029e-05
-3.292982239e-05
-5.106991324e-06
-4.627875646e-06
3.382922836e-05
-4.952792712e-06
5.006441519e-06
-3.395535679e-05
3.405271358e-05
-3.400132852e-05
-5.004177772e-06
-4.583288894e-06
6.736222277e-05
-1.186569224e-05
-6.738206407e-05
1.133929603e-05
-5.686453953e-06
3.378709147e-05
-5.765480763e-06
1.131318548e-05
3.389767904e-05
-5.722026614e-06
5.744107153e-06
-3.318182081e-05
-3.366844041e-05
-5.736215275e-06
-6.709726073e-05
3.365610542e-05
3.349914615e-05
6.923717429e-05
-1.191295964e-05
-6.924367367e-05
1.139151285e-05
-1.13917383e-05
3.464217837e-05
1.150986535e-05
3.460839721e-05
1.138515071e-05
3.414678452e-05
-6.880926159e-05
3.431930444e-05
-6.882115446e-05
-3.394444262e-05
5.050257388e-06
-5.099296059e-06
5.201310332e-06
-3.404645689e-05
-3.394165399e-05
-5.178101103e-06
5.213604915e-06
-3.572035266e-05
3.56595092e-05
-3.566812392e-05
-5.169486379e-06
-4.928936203e-06
7.098952783e-05
-1.193097111e-05
-7.099262972e-05
1.140983099e-05
-1.143476519e-05
3.555810283e-05
1.140864166e-05
3.56578237e-05
1.148925175e-05
3.513392908e-05
-7.054235069e-05
3.523365631e-05
-7.05236485e-05
7.25786249e-05
-1.196501084e-05
-7.259804602e-05
-1.147662231e-05
3.636381591e-05
1.140960993e-05
3.593297012e-05
-7.209613924e-05
3.598483229e-05
-7.211859812e-05
-3.582691802e-05
5.260683416e-06
-5.280208725e-06
5.338210828e-06
-3.588492012e-05
-3.58145159e-05
-1.179939975e-05
-6.577724669e-05
3.291443661e-05
3.281009417e-05
-5.587888505e-06
5.611901169e-06
-3.28029774e-05
-3.305700248e-05
-5.679707246e-06
-5.841981723e-06
5.706076413e-06
-3.741007736e-05
-3.275400272e-05
-5.584930675e-06
-6.669142186e-05
3.27570745e-05
3.30441977e-05
-3.145160736e-05
3.205509687e-06
-3.55744663e-06
3.617931276e-06
-3.1512092e-05
-3.05436105e-05
-5.08294218e-06
-3.842376824e-06
3.806223557e-06
3.29150393e-05
-3.703297303e-06
-3.407152524e-06
3.276778043e-05
-3.329803634e-05
3.865187697e-06
3.317306546e-05
-3.836045291e-06
3.969879922e-06
-3.882772168e-06
-3.606641517e-06
7.653133129e-05
0.000227033566
-7.633484715e-05
-0.0002340430174
0.0002340430174
-0.0002345670274
2.939844778e-05
-0.0001178911989
-2.939844778e-05
-6.864884704e-05
3.531048296e-05
0.0001178911989
0.0001161518184
3.33383641e-05
-6.864884705e-05
-3.531048296e-05
0.0001248479131
0.0001196305795
3.531048295e-05
2.939844778e-05
-0.0001196305795
2.545711966e-05
0.0001196305795
-2.545711967e-05
-0.00012136996
0.00012136996
1.297545364e-05
-0.00012136996
-0.00012136996
1.051126714e-05
0.0001213700496
1.100372173e-05
-2.34864126e-05
1.198903227e-05
1.149738035e-05
-2.348641261e-05
-1.199005711e-05
6.266770264e-05
6.130865755e-05
1.198903227e-05
6.130910548e-05
1.051081921e-05
-6.130865755e-05
-5.810607901e-06
-3.396615016e-05
5.581070255e-06
3.367333177e-05
-3.36241323e-05
3.357544748e-05
-5.77693341e-06
-3.353174329e-05
5.790504418e-06
-5.839189232e-06
5.628735509e-06
5.806001213e-06
-5.71540033e-06
-3.327221358e-05
-3.328929787e-05
-1.001861617e-05
6.130933984e-05
1.001838181e-05
-8.540790851e-06
8.541025217e-06
-6.130896429e-05
-6.273852595e-05
-8.543735835e-06
1.757416028e-05
-1.757416029e-05
-0.000121370122
9.033459018e-06
9.526127179e-06
5.255173854e-06
-5.158321373e-06
-3.606908188e-05
-3.617839704e-05
-7.378851525e-06
-3.818969375e-05
2.541378045e-05
-2.848333585e-05
-4.309296126e-06
6.721116302e-06
5.396417145e-06
6.385178911e-05
-1.194690978e-05
-6.391397712e-05
-1.135993389e-05
3.187236996e-05
5.849260092e-06
5.637553682e-06
-3.766375561e-05
-5.940705971e-06
1.138721208e-05
-1.149819019e-05
-6.352549961e-05
3.172531649e-05
-6.347740017e-05
3.282647707e-05
-5.56915945e-06
-3.289429174e-05
5.603827632e-06
-5.48169975e-06
5.368714793e-06
-5.28095664e-06
-3.28007182e-05
-3.28725843e-05
3.053191652e-06
-6.370183624e-05
8.830731599e-06
6.355271423e-05
-9.308333672e-06
5.207813058e-06
-3.218118614e-05
4.896473408e-06
-9.106574399e-06
-4.857501246e-06
2.686782405e-05
3.227819482e-05
5.662680224e-06
3.508663934e-06
1.451521075e-05
4.878604599e-05
-3.213635511e-05
-2.584283396e-05
7.425768654e-06
-2.330084309e-05
2.221462067e-05
-6.339546237e-06
2.46354753e-05
-1.593858089e-05
3.393545669e-05
-5.462249997e-06
5.212169498e-06
-5.278041329e-06
5.226128575e-06
5.428634593e-06
3.401186743e-05
-3.384789465e-05
3.399848791e-05
-3.423782709e-05
-5.243516956e-06
-5.312438578e-06
-3.43829378e-05
5.425565198e-06
3.410845637e-05
-3.421958462e-05
3.429161293e-05
-5.484906987e-06
5.41763601e-06
-5.345607701e-06
5.484323006e-06
5.277427876e-06
-3.411463672e-05
3.56272619e-05
-3.57572948e-05
5.057756669e-06
3.312648715e-05
-5.50059081e-06
-3.306764644e-05
5.2448208e-06
-5.316214507e-06
5.541502141e-06
-6.027355479e-06
-3.435445108e-05
-3.420527347e-05
3.843046332e-06
3.254736568e-05
-4.002900375e-06
-3.274603026e-05
3.283448128e-05
-3.275618721e-05
3.264046855e-05
-3.625003233e-06
-3.637764803e-06
-3.722958458e-06
3.324766559e-05
3.331556185e-05
3.458404069e-05
-5.61435108e-06
5.686806187e-06
-5.619948927e-06
5.738050324e-06
5.552054692e-06
3.450281793e-05
-3.459884231e-05
3.453094807e-05
-3.441746866e-05
-5.539760313e-06
-5.626011535e-06
-3.551954917e-05
5.41519592e-06
3.554985275e-05
-3.537789792e-05
3.528183094e-05
-5.658929924e-06
5.606069075e-06
-5.702136061e-06
5.490750308e-06
5.743199031e-06
-3.513618723e-05
3.565870075e-05
-5.501648369e-06
5.346713266e-06
-5.35613644e-06
5.373372355e-06
5.401668281e-06
3.559336074e-05
-3.557824077e-05
3.562377261e-05
-3.569821536e-05
-5.243929123e-06
-5.41061892e-06
-3.598731873e-05
5.473619036e-06
3.585965005e-05
-3.593205815e-05
3.596167821e-05
-5.53188741e-06
5.466937749e-06
-5.437317685e-06
5.505324406e-06
5.401044412e-06
-3.592119339e-05
-3.579718345e-06
-3.236956249e-05
3.218465581e-05
-3.214644288e-05
3.1333093e-05
-4.206017368e-06
3.940093309e-06
-4.753443188e-06
4.065792536e-06
-4.205054065e-06
-3.219974265e-05
2.966393194e-05
-5.568801132e-06
-3.009730753e-05
6.383337463e-06
-5.202741376e-06
4.879284783e-06
3.194939577e-05
-4.944531882e-06
-3.163651233e-05
3.131305574e-05
-3.117841273e-05
4.11125645e-05
-4.174653114e-06
-4.475533335e-06
6.798424894e-06
3.442664115e-05
-5.509581564e-06
-5.127443047e-05
3.477201228e-05
-3.344800079e-05
1.533574584e-05
2.448311421e-05
-6.959225485e-06
8.283236978e-06
-5.916294763e-06
-1.432873446e-05
1.616912319e-05
2.716753564e-05
0
0
0
0
0
0
5.18280241e-06
5.9783178e-06
-1.097200538e-05
1.083560919e-05
-1.704302324e-05
0
0
0
0
0
0
0
0
7.849315134e-06
8.107223351e-06
-1.290933327e-05
1.261220858e-05
-1.991723089e-05
-1.736830051e-05
-1.172805184e-05
5.453742999e-05
-1.798092861e-05
-3.449308813e-05
2.327142588e-05
-2.381992239e-05
7.773324338e-05
2.239687888e-05
7.567210928e-05
0.0001564368206
-0.0001297114243
-4.320273545e-05
5.019440075e-05
-5.1119146e-05
0.0001822628826
4.91096187e-05
0.0001863962176
0.0002467945299
-0.0002273351488
-7.738251444e-05
8.338483739e-05
-8.460394609e-05
0.0002598756035
8.26126981e-05
0.0002652949343
6.925129283e-05
-1.398596143e-05
1.347374998e-05
-1.347296333e-05
6.925050618e-05
1.348119453e-05
6.951531773e-05
0
0
0
0
0
0
0
0
5.759847085e-06
4.471804735e-06
-9.770427179e-06
1.09434238e-05
-1.32467884e-05
-1.90728536e-05
-1.253082813e-05
5.193676649e-05
-1.757066203e-05
-3.281049063e-05
2.410297216e-05
-2.333727965e-05
7.415327671e-05
2.454401873e-05
7.757813475e-05
0.0001490087635
-0.0001238185401
-4.222064879e-05
5.124679354e-05
-4.981734366e-05
0.0001728989882
5.211580539e-05
0.0001782875438
0.0002267157856
-0.0002126004862
-7.48667855e-05
8.419819044e-05
-8.177488305e-05
0.0002362349349
8.564062276e-05
0.000242939412
0
0
0
0
0
0
0
0
8.898524506e-07
2.446010562e-07
-3.606825676e-06
5.216870067e-06
-3.312223261e-06
-1.06697564e-05
-8.386434777e-06
3.253522062e-05
-1.183954532e-05
-1.834996811e-05
1.915239211e-05
-1.716795699e-05
5.003308263e-05
2.085330588e-05
5.728362669e-05
0.0001139887317
-9.174397802e-05
-3.372380673e-05
4.277275782e-05
-3.972482134e-05
0.0001357510154
4.55132307e-05
0.0001472400959
0.0001888392979
-0.000173939728
-5.899136051e-05
6.978323009e-05
-6.468976959e-05
0.0002003293371
7.442806071e-05
0.0002111228866
0.0002148524697
-0.0002129891473
-7.213354122e-05
7.388932374e-05
-7.017448195e-05