/*--------------------------------*- C++ -*----------------------------------*\
| =========                 |                                                 |
| \\      /  F ield         | OpenFOAM: The Open Source CFD Toolbox           |
|  \\    /   O peration     | Version:  v2012                                 |
|   \\  /    A nd           | Website:  www.openfoam.com                      |
|    \\/     M anipulation  |                                                 |
\*---------------------------------------------------------------------------*/
FoamFile
{
    version     2.0;
    format      ascii;
    class       surfaceVectorField;
    location    "0.05";
    object      Uf;
}
// * * * * * * * * * * * * * * * * * * * * * * * * * * * * * * * * * * * * * //

dimensions      [0 1 -1 0 0 0 0];


internalField   nonuniform List<vector> 
6430
(
(101.1343248 -0.3312103926 5.225756524e-20)
(101.3237371 -0.1713623833 3.111496483e-21)
(101.0611727 -0.6717944705 -4.815596546e-20)
(101.2784836 -0.5182110477 4.918738149e-20)
(100.9338478 -1.030382945 -9.125149727e-20)
(101.1907364 -0.8767767494 -9.914610147e-20)
(100.6663889 -1.396659527 -1.413065941e-21)
(101.0460823 -1.274777542 -3.065392751e-22)
(100.8016301 -1.437289748 2.943554488e-19)
(100.4816797 -1.449447614 -7.812679624e-22)
(100.6666721 -1.531077798 1.989739575e-19)
(100.4943694 -1.591332455 -7.840169087e-22)
(100.1181776 -1.878242856 0)
(100.3245248 -1.817221016 0)
(100.3500514 -1.986955354 0)
(100.1219205 -2.060725047 0)
(99.62620668 -2.395012024 -5.353474459e-20)
(99.88781595 -2.325641558 -5.301390428e-20)
(99.90547791 -2.537834521 -2.182880206e-19)
(99.57079344 -2.593263009 -3.525292118e-20)
(99.67271408 -2.645123299 -3.523377383e-20)
(99.10289944 -2.946298799 -4.793409479e-21)
(99.25764179 -2.906708982 -5.437168238e-20)
(99.26788313 -3.031230713 -5.309844753e-20)
(99.10659085 -3.079623475 -2.611797354e-20)
(98.31769932 -3.708459184 -1.785437722e-19)
(98.53562494 -3.659682216 5.93019316e-22)
(98.52672655 -3.81568319 -2.952900472e-20)
(98.29243242 -3.877151815 3.678553986e-21)
(97.12115538 -4.672895553 4.137620933e-21)
(97.41537672 -4.613886894 0)
(97.38586261 -4.815704017 -7.472705232e-21)
(97.07134806 -4.890587156 -3.339627905e-20)
(95.48109392 -5.880935934 6.388318099e-20)
(95.8630984 -5.826202085 5.262216318e-20)
(95.81014728 -6.102673064 8.482166762e-20)
(95.3422876 -6.123711125 3.506035212e-20)
(95.45540802 -6.224051511 2.002467342e-19)
(93.84277399 -7.131103001 -1.452910347e-19)
(93.94708708 -7.144347462 -1.303046302e-19)
(93.91500601 -7.222808244 2.72384495e-20)
(93.81567719 -7.220385075 -1.153598175e-19)
(101.4645838 -0.3576189915 0)
(101.659684 -0.1819313574 0)
(101.4049705 -0.7256748074 0)
(101.624216 -0.5510963305 0)
(101.301387 -1.115126429 0)
(101.5565869 -0.9313392986 0)
(101.0711229 -1.521138329 0)
(101.4440557 -1.349842611 0)
(101.2175225 -1.556408176 0)
(100.8872933 -1.600548702 1.991350219e-19)
(101.0950344 -1.653668604 0)
(100.9232391 -1.742293009 0)
(100.5816665 -2.078252206 0)
(100.781205 -1.989866399 0)
(100.831815 -2.148247399 0)
(100.6145162 -2.256137562 0)
(100.1802148 -2.656593531 -1.554033118e-19)
(100.4260732 -2.545807961 1.274032605e-20)
(100.4793075 -2.740228693 1.198081997e-20)
(100.1680631 -2.852004176 -5.644771814e-20)
(100.2774557 -2.874207177 8.458315602e-21)
(99.77574273 -3.252282937 0)
(99.92048792 -3.189748291 5.634158635e-22)
(99.95482957 -3.304851509 0)
(99.80475967 -3.377095337 0)
(99.16748114 -4.086188265 2.167884706e-19)
(99.36921347 -4.005282934 6.489346932e-20)
(99.39575924 -4.145695446 4.909145681e-20)
(99.17933553 -4.242798543 0)
(98.21564724 -5.171871832 -2.153868635e-19)
(98.492397 -5.062128251 4.679371677e-22)
(98.51830379 -5.243747101 5.31242503e-20)
(98.22512078 -5.37917861 8.279891577e-20)
(96.93558976 -6.692804637 -6.995311511e-20)
(97.31021242 -6.521102835 -7.322450572e-20)
(97.37496569 -6.796636032 -7.045165681e-20)
(96.89663 -6.977885552 -4.499159561e-20)
(97.06938441 -6.995625108 9.128585799e-20)
(95.64796948 -8.892981047 -2.243856163e-20)
(95.89536984 -8.853675274 -3.264951338e-20)
(96.01426522 -9.139928608 3.903658652e-20)
(95.54228477 -9.043896304 4.919987477e-20)
(95.54735413 -9.267106409 5.131378284e-20)
(95.70404284 -9.330734911 -1.999443119e-20)
(101.8156916 -0.374459137 0)
(102.0114505 -0.1876663434 0)
(101.7711739 -0.7592918644 0)
(101.9857077 -0.5690354032 0)
(101.6931696 -1.1651078 0)
(101.9378099 -0.9607023708 0)
(101.5022637 -1.590508226 0)
(101.8553385 -1.384765926 0)
(101.6529444 -1.615337057 0)
(101.3213455 -1.693308361 0)
(101.5443703 -1.719336809 0)
(101.3813681 -1.827933387 0)
(101.0864402 -2.197921266 0)
(101.2728845 -2.085099536 0)
(101.3434177 -2.228461695 0)
(101.1465611 -2.358639851 0)
(100.7812938 -2.793065 -7.481828222e-22)
(101.0054722 -2.654310068 0)
(101.0834189 -2.81934234 -6.63848319e-22)
(100.8074026 -2.967769668 5.069801693e-20)
(100.9164248 -2.983075438 -8.655978384e-22)
(100.4965044 -3.402377592 3.16437374e-20)
(100.6264075 -3.319908536 4.70626739e-20)
(100.6762064 -3.41746638 -4.151739031e-20)
(100.5456508 -3.508109472 5.539780347e-20)
(100.0827025 -4.235429041 -4.705625835e-20)
(100.2562853 -4.127637006 -4.525632246e-20)
(100.3071904 -4.239172235 -4.525961435e-20)
(100.1267489 -4.361179307 -5.08104112e-20)
(99.42940581 -5.313653217 -1.442662542e-20)
(99.66233626 -5.161186299 -4.137907813e-21)
(99.72301898 -5.293699657 -5.203033233e-21)
(99.49182351 -5.468093658 2.747126522e-21)
(98.72073899 -6.800732843 -4.669786307e-20)
(99.00295626 -6.558477845 -6.67812701e-20)
(99.13697661 -6.716995175 2.522519277e-20)
(98.89740773 -6.998376164 4.047958423e-20)
(98.69608014 -8.936425146 1.67595358e-20)
(98.69635289 -8.599106303 6.504726005e-20)
(98.23026041 -8.623972789 -7.160115961e-22)
(93.26111256 -8.324996962 -1.736048636e-20)
(98.1704285 -9.145335984 1.395126315e-20)
(102.1778764 -0.3815721875 0)
(102.3699198 -0.1889075245 0)
(102.1479461 -0.7726390065 0)
(102.3530767 -0.5728316539 0)
(102.0945489 -1.182662851 0)
(102.3230082 -0.966229384 0)
(101.9415909 -1.61677533 0)
(102.2678574 -1.384293992 0)
(102.0906944 -1.62676021 0)
(101.7695617 -1.733254366 0)
(101.9952918 -1.735752714 0)
(101.8462853 -1.857080564 0)
(101.5989819 -2.241240402 0)
(101.7682752 -2.112621325 0)
(101.8516012 -2.237816262 0)
(101.6782142 -2.381522578 0)
(101.3816572 -2.821277155 -7.027210569e-22)
(101.5795989 -2.669392064 -3.894842995e-23)
(101.6725017 -2.801437703 -3.895054948e-23)
(101.4332073 -2.981838746 1.309311554e-20)
(101.5363683 -2.976184862 -3.089537396e-21)
(101.2013411 -3.414417281 1.844217065e-21)
(101.3113617 -3.321078986 -7.655025263e-20)
(101.3700922 -3.398451119 -2.036281139e-20)
(101.2609132 -3.498704635 -5.711326949e-20)
(100.9439302 -4.187929382 -3.606484161e-20)
(101.0809944 -4.071543135 -7.345968644e-20)
(101.1425236 -4.152245347 3.604143044e-20)
(101.0033135 -4.278511479 8.810517373e-22)
(100.5386119 -5.131513055 -5.43161811e-20)
(100.7170037 -4.969091792 -2.705521878e-20)
(100.7846623 -5.051556819 -6.034828302e-20)
(100.6154192 -5.225769104 -4.370618189e-20)
(100.2066587 -6.311891845 2.194885328e-21)
(100.3822402 -6.078573663 -1.630748449e-20)
(100.4979622 -6.141702984 -1.632498943e-20)
(100.364168 -6.383615841 -3.199763747e-20)
(97.56547413 -7.338774647 1.775500378e-20)
(98.88881207 -7.16510154 -2.267223092e-20)
(97.32103587 -6.951464129 2.869607834e-21)
(94.11970008 -6.907955681 -4.406062201e-20)
(102.5419562 -0.3799202417 0)
(102.7268164 -0.1862861549 0)
(102.5246919 -0.7680394664 0)
(102.7176556 -0.5644544966 0)
(102.4925679 -1.172142936 0)
(102.7026226 -0.9511805836 0)
(102.373368 -1.604551731 0)
(102.6703968 -1.354065508 0)
(102.5165896 -1.59674909 0)
(102.2140609 -1.727458343 0)
(102.4331978 -1.709825965 0)
(102.3005687 -1.837838025 0)
(102.0980852 -2.219721411 0)
(102.2482014 -2.082962725 0)
(102.3376283 -2.188685501 0)
(102.1877719 -2.33794492 0)
(101.9532594 -2.762749937 0)
(102.1232085 -2.607388773 0)
(102.221755 -2.708203281 0)
(102.0179483 -2.907010937 0)
(102.1115369 -2.879433648 0)
(101.8500363 -3.312324886 -8.617479191e-21)
(101.9402195 -3.214944758 0)
(102.0004401 -3.272707383 9.73598809e-22)
(101.9119533 -3.374790347 0)
(101.6944998 -3.996136712 -6.958363431e-24)
(101.8034867 -3.878058749 2.396885173e-22)
(101.8625955 -3.930944552 -1.40085529e-20)
(101.7536346 -4.054501029 4.628297181e-20)
(101.4331652 -4.763474606 -5.534198246e-20)
(101.5647783 -4.61365074 -5.533695192e-20)
(101.6203013 -4.655259462 -1.094713461e-19)
(101.4961992 -4.809592063 -5.999289609e-20)
(101.2139163 -5.60461755 2.227245235e-20)
(101.3309923 -5.413846253 -5.809294891e-21)
(101.4089619 -5.427091853 -4.620575284e-20)
(101.3266428 -5.617436407 -6.005753848e-20)
(96.62599508 -5.955806562 0)
(98.47808032 -5.942830453 9.190832803e-21)
(96.42847173 -5.674964988 7.675043217e-21)
(94.70839728 -5.8034158 1.493152781e-20)
(102.9000088 -0.3709721263 0)
(103.0753073 -0.180536565 0)
(102.8930018 -0.7486082102 0)
(103.0723872 -0.5462735901 0)
(102.8778923 -1.138730743 0)
(103.0691032 -0.9195950901 0)
(102.7868597 -1.559132043 0)
(103.0546425 -1.30050147 0)
(102.9212324 -1.536396687 0)
(102.6420866 -1.683194093 0)
(102.8487429 -1.649733654 0)
(102.7322268 -1.779131817 0)
(102.5679464 -2.14660035 0)
(102.6992663 -2.008084271 0)
(102.7890177 -2.095315713 0)
(102.6606257 -2.243404222 0)
(102.4766063 -2.640697887 0)
(102.620362 -2.488475795 0)
(102.7168488 -2.562951506 0)
(102.5444429 -2.764627569 0)
(102.6267622 -2.723837969 0)
(102.4202702 -3.129529655 0)
(102.4939814 -3.034784515 0)
(102.5499325 -3.075596407 0)
(102.4779084 -3.172831921 0)
(102.3182831 -3.709015555 -1.114468386e-20)
(102.4052266 -3.597684836 -1.283309949e-20)
(102.454486 -3.628939539 -1.27122795e-20)
(102.3672059 -3.742311284 4.664209582e-21)
(102.1050997 -4.313405626 -5.51918664e-21)
(102.2082005 -4.181808188 5.916994626e-22)
(102.2439557 -4.197170847 -1.254413441e-20)
(102.1447332 -4.328685868 5.564595234e-21)
(101.8898681 -4.91315362 7.313151616e-20)
(101.9757224 -4.760759638 3.416850228e-20)
(102.0203555 -4.749812146 1.069511559e-19)
(101.9478823 -4.89832062 3.634798244e-20)
(96.0153155 -4.965234674 1.018369538e-20)
(97.95272401 -4.985945386 -6.099517554e-22)
(95.94630859 -4.766589558 1.45990954e-21)
(95.35561932 -4.976788493 3.074289637e-21)
(103.245795 -0.3563016895 0)
(103.4100167 -0.1724066382 0)
(103.2465577 -0.7176302109 0)
(103.4118003 -0.5206979621 0)
(103.2440262 -1.087804291 0)
(103.4168444 -0.8756383547 0)
(103.1745396 -1.48791423 0)
(103.4148558 -1.230360478 0)
(103.298391 -1.454595867 0)
(103.0440628 -1.60948958 0)
(103.235334 -1.564945146 0)
(103.1332492 -1.691535544 0)
(102.9992829 -2.036625727 0)
(103.113488 -1.901311008 0)
(103.1993267 -1.972147717 0)
(103.0890725 -2.114248051 0)
(102.9422675 -2.477491229 0)
(103.063791 -2.332862102 0)
(103.1531919 -2.386728581 0)
(103.0062047 -2.581086691 0)
(103.0770347 -2.53371886 0)
(102.9079914 -2.901670051 0)
(102.9691834 -2.813386188 0)
(103.0176328 -2.840923935 0)
(102.9574827 -2.930090858 0)
(102.82056 -3.38035631 0)
(102.8928085 -3.280296129 0)
(102.9295909 -3.296527551 0)
(102.8559567 -3.396348489 0)
(102.6044867 -3.851293721 -9.438967463e-21)
(102.6918627 -3.738569498 0)
(102.708565 -3.738701304 0)
(102.6224272 -3.849345405 2.689595975e-21)
(102.3396741 -4.286608023 -6.797676797e-21)
(102.4150368 -4.164140907 5.984367319e-21)
(102.425832 -4.141408323 6.224696309e-21)
(102.3275594 -4.256201274 -1.273728859e-20)
(95.92875261 -4.254806748 -7.362989606e-23)
(97.67338435 -4.254477727 -7.359748686e-23)
(95.97244067 -4.105242635 -4.861776497e-21)
(96.04867044 -4.319431732 7.639356193e-21)
(103.5747001 -0.3374893257 0)
(103.7270538 -0.1626248598 0)
(103.5808007 -0.6784312197 0)
(103.7320633 -0.4900553831 0)
(103.5865896 -1.02483339 0)
(103.7422542 -0.8232879088 0)
(103.5321799 -1.399354508 0)
(103.7479112 -1.149877679 0)
(103.6448191 -1.359394276 0)
(103.4149266 -1.515753814 0)
(103.5894685 -1.464433954 0)
(103.4997431 -1.585166375 0)
(103.3881464 -1.903392222 0)
(103.487702 -1.774720287 0)
(103.5667029 -1.831695393 0)
(103.4710702 -1.964785201 0)
(103.3498606 -2.292775254 0)
(103.4533511 -2.15711529 0)
(103.5325562 -2.197190452 0)
(103.4047339 -2.374287624 0)
(103.4652832 -2.328921771 0)
(103.318722 -2.654776233 0)
(103.3710571 -2.574486362 0)
(103.4106787 -2.592292798 0)
(103.3585209 -2.672367004 0)
(103.2222935 -3.04724139 0)
(103.2853912 -2.959397859 0)
(103.3094901 -2.965695301 0)
(103.2439053 -3.052209805 0)
(102.9808611 -3.41410764 0)
(103.059519 -3.318982063 0)
(103.0600204 -3.310807418 0)
(102.9808047 -3.403239081 0)
(102.6379334 -3.733938867 0)
(102.7178902 -3.635076 0)
(102.6953649 -3.607337037 0)
(102.5586872 -3.696207413 0)
(96.17978061 -3.694782597 0)
(97.69353072 -3.670018233 0)
(96.25779825 -3.569163179 0)
(96.63545488 -3.753060101 0)
(103.883629 -0.3160235106 0)
(104.0239431 -0.1518543501 0)
(103.8928415 -0.6341051041 0)
(104.0308698 -0.4564547918 0)
(103.9031419 -0.9546999921 0)
(104.0434382 -0.7660925834 0)
(103.8581303 -1.300377184 0)
(104.052523 -1.064255759 0)
(103.95972 -1.257507626 0)
(103.7525006 -1.410289039 0)
(103.9105004 -1.35572081 0)
(103.8307632 -1.468559186 0)
(103.734397 -1.75827178 0)
(103.8219866 -1.638284079 0)
(103.8924336 -1.684108418 0)
(103.8079791 -1.806487085 0)
(103.7020538 -2.101122715 0)
(103.7918716 -1.97449882 0)
(103.8591761 -2.005519162 0)
(103.7463076 -2.161638279 0)
(103.797858 -2.121855461 0)
(103.6627489 -2.406444841 0)
(103.7092795 -2.334565512 0)
(103.739708 -2.345541337 0)
(103.6925669 -2.416482482 0)
(103.5439942 -2.728296633 0)
(103.6017595 -2.651932977 0)
(103.6140425 -2.651958902 0)
(103.5529208 -2.726492256 0)
(103.2685841 -3.016750774 0)
(103.3426583 -2.936498475 0)
(103.3296906 -2.924061645 0)
(103.2537077 -3.001540175 0)
(102.8363964 -3.254554798 0)
(102.9282701 -3.17477567 0)
(102.8745545 -3.145403833 0)
(102.697691 -3.215391973 0)
(96.49944269 -3.221436888 0)
(97.78938524 -3.182353942 0)
(96.58067338 -3.114671137 0)
(97.11086171 -3.268815773 0)
(104.1708238 -0.293196835 0)
(104.2993719 -0.1406550758 0)
(104.1812604 -0.5872789264 0)
(104.3071152 -0.4216738061 0)
(104.1928765 -0.881489599 0)
(104.3198193 -0.7070411839 0)
(104.1527131 -1.197300068 0)
(104.328897 -0.9775616821 0)
(104.2437823 -1.154085104 0)
(104.0571228 -1.299785183 0)
(104.199266 -1.244686219 0)
(104.1274484 -1.348621194 0)
(104.040399 -1.610069404 0)
(104.1185258 -1.499708378 0)
(104.1795576 -1.536816706 0)
(104.1034643 -1.64783615 0)
(104.0047134 -1.911195673 0)
(104.0847177 -1.794104655 0)
(104.1394879 -1.818759772 0)
(104.0378252 -1.95452776 0)
(104.081674 -1.92063882 0)
(103.9506498 -2.16759489 0)
(103.9935631 -2.103879456 0)
(104.0151186 -2.110170105 0)
(103.970882 -2.172517374 0)
(103.8030848 -2.432497603 0)
(103.858024 -2.366428244 0)
(103.8597574 -2.362689332 0)
(103.8008591 -2.426764498 0)
(103.4919464 -2.661916143 0)
(103.5638771 -2.594019788 0)
(103.5398482 -2.579745103 0)
(103.464901 -2.645018264 0)
(102.967577 -2.841169208 0)
(103.0750198 -2.776194334 0)
(102.9924374 -2.74701864 0)
(102.7776847 -2.80266242 0)
(96.82100858 -2.818727064 0)
(97.91394396 -2.772257137 0)
(96.89912935 -2.727513426 0)
(97.50047323 -2.855428092 0)
(104.4356573 -0.2700578109 0)
(104.5530639 -0.1294686965 0)
(104.445824 -0.5400542842 0)
(104.5607357 -0.3870996034 0)
(104.4562481 -0.8083627278 0)
(104.571868 -0.6484734989 0)
(104.4173871 -1.094877285 0)
(104.5783337 -0.8928289056 0)
(104.4987041 -1.052904171 0)
(104.3303599 -1.189313846 0)
(104.4576568 -1.135640355 0)
(104.3920192 -1.230393562 0)
(104.3096626 -1.464927558 0)
(104.380529 -1.364429267 0)
(104.4319378 -1.39482763 0)
(104.3619022 -1.494585363 0)
(104.2642502 -1.72865459 0)
(104.3376566 -1.621830525 0)
(104.379856 -1.641242991 0)
(104.2865598 -1.759655936 0)
(104.3239506 -1.730149128 0)
(104.1920412 -1.944377312 0)
(104.2329124 -1.888275904 0)
(104.2462084 -1.89143277 0)
(104.203421 -1.945946058 0)
(104.0133644 -2.16357044 0)
(104.0670775 -2.106514157 0)
(104.0596135 -2.100674264 0)
(104.0015683 -2.155753159 0)
(103.6680102 -2.348204809 0)
(103.7392364 -2.290558067 0)
(103.7061303 -2.275879608 0)
(103.630857 -2.331142505 0)
(103.0521914 -2.484530209 0)
(103.1766457 -2.431298719 0)
(103.0678888 -2.403351257 0)
(102.8196405 -2.44801126 0)
(97.12514652 -2.473778736 0)
(98.05179494 -2.424354568 0)
(97.19729397 -2.395408556 0)
(97.82086617 -2.501166044 0)
(104.6783891 -0.2474081864 0)
(104.7854789 -0.1186306079 0)
(104.6871632 -0.4940183655 0)
(104.7923884 -0.3537616962 0)
(104.6945516 -0.7376208465 0)
(104.8007079 -0.5921148 0)
(104.6543176 -0.996268921 0)
(104.8026834 -0.8122328784 0)
(104.7267822 -0.9566180929 0)
(104.5744883 -1.082490147 0)
(104.688181 -1.031594278 0)
(104.6272801 -1.117302692 0)
(104.5462068 -1.326864844 0)
(104.6116268 -1.236044086 0)
(104.6536022 -1.26127424 0)
(104.5878671 -1.350361372 0)
(104.4871861 -1.556918172 0)
(104.5564772 -1.461163936 0)
(104.5868436 -1.476024156 0)
(104.498976 -1.580840971 0)
(104.5308126 -1.553668277 0)
(104.3950289 -1.739824526 0)
(104.4348816 -1.690654475 0)
(104.4406996 -1.69172781 0)
(104.3984231 -1.739267313 0)
(104.1855081 -1.922268742 0)
(104.2389694 -1.87302192 0)
(104.223596 -1.866181321 0)
(104.1656013 -1.913562587 0)
(103.8088333 -2.072664731 0)
(103.880225 -2.023549373 0)
(103.8395975 -2.009328688 0)
(103.763045 -2.05629473 0)
(103.1049273 -2.177217263 0)
(103.2463473 -2.133364018 0)
(103.1144368 -2.107290935 0)
(102.8376868 -2.143486143 0)
(97.40312358 -2.177108617 0)
(98.19315941 -2.127637933 0)
(97.46804767 -2.109536192 0)
(98.08500393 -2.196743031 0)
(104.8999095 -0.225830388 0)
(104.9976361 -0.1083846816 0)
(104.9064797 -0.450309001 0)
(105.0032641 -0.3223876359 0)
(104.9095495 -0.670868618 0)
(105.0079134 -0.539163549 0)
(104.8660115 -0.9036056766 0)
(105.0041201 -0.737235387 0)
(104.9305496 -0.8669717104 0)
(104.7921485 -0.9817701817 0)
(104.8935626 -0.9345245264 0)
(104.8362357 -1.011567933 0)
(104.7539727 -1.198273557 0)
(104.8154157 -1.116739706 0)
(104.8483577 -1.138002631 0)
(104.7855418 -1.217208005 0)
(104.6794493 -1.398778273 0)
(104.7462373 -1.313775389 0)
(104.7655555 -1.325303843 0)
(104.681029 -1.417728001 0)
(104.7082989 -1.393152028 0)
(104.566441 -1.55488249 0)
(104.606021 -1.511910012 0)
(104.6051431 -1.511722339 0)
(104.5627447 -1.553105321 0)
(104.3277184 -1.70779838 0)
(104.3814913 -1.665295579 0)
(104.359371 -1.658196183 0)
(104.3009936 -1.698986629 0)
(103.9229137 -1.831734506 0)
(103.9950343 -1.789768036 0)
(103.9479892 -1.776464093 0)
(103.8694984 -1.816458329 0)
(103.13635 -1.912530407 0)
(103.2937687 -1.876139656 0)
(103.141848 -1.852298234 0)
(102.8415501 -1.88199181 0)
(97.65164738 -1.920862607 0)
(98.3311149 -1.8731314 0)
(97.70925271 -1.862309426 0)
(98.30352132 -1.934446427 0)
(105.101531 -0.2057288787 0)
(105.1908975 -0.09890177622 0)
(105.1053349 -0.4097041799 0)
(105.1948678 -0.2934728954 0)
(105.1032416 -0.6091685166 0)
(105.19529 -0.4904187974 0)
(105.0550637 -0.8182179 0)
(105.1849173 -0.6687628606 0)
(105.1125775 -0.7850401399 0)
(104.9860843 -0.888704247 0)
(105.0765605 -0.8456274029 0)
(105.0218475 -0.9145360036 0)
(104.9366375 -1.080580886 0)
(104.9952788 -1.007782005 0)
(105.0197362 -1.026077991 0)
(104.9587143 -1.096236573 0)
(104.8457025 -1.255652708 0)
(104.9111377 -1.1806041 0)
(104.920342 -1.189858434 0)
(104.8377208 -1.271018111 0)
(104.8611874 -1.249110433 0)
(104.711973 -1.389571483 0)
(104.7517941 -1.352109715 0)
(104.7449408 -1.351262162 0)
(104.7020123 -1.387209462 0)
(104.4462946 -1.518631509 0)
(104.5006834 -1.481965926 0)
(104.4728321 -1.475106615 0)
(104.4138514 -1.51021899 0)
(104.0161487 -1.621766823 0)
(104.0894126 -1.585883497 0)
(104.0367363 -1.573764723 0)
(103.9558716 -1.607801971 0)
(103.1543311 -1.684751826 0)
(103.3261142 -1.654436961 0)
(103.1574296 -1.633096956 0)
(102.8382533 -1.657735917 0)
(97.87196312 -1.698806324 0)
(98.46128846 -1.654108124 0)
(97.92300088 -1.648224813 0)
(98.48595053 -1.708445253 0)
(105.2848574 -0.1873679423 0)
(105.3669108 -0.09029138878 0)
(105.285526 -0.3727016001 0)
(105.3689606 -0.2673244174 0)
(105.2777551 -0.5531735511 0)
(105.3648251 -0.4463634883 0)
(105.2240318 -0.7408847422 0)
(105.347409 -0.6073252975 0)
(105.2753974 -0.7114106578 0)
(105.1589769 -0.8042085712 0)
(105.2398253 -0.7655727612 0)
(105.1869294 -0.8269533258 0)
(105.0975457 -0.9745426048 0)
(105.1543276 -0.9098148926 0)
(105.1709218 -0.9259781261 0)
(105.110821 -0.9879202143 0)
(104.9899441 -1.127900072 0)
(105.0549114 -1.061897742 0)
(105.0549166 -1.069742873 0)
(104.9731651 -1.140692186 0)
(104.9934609 -1.121440818 0)
(104.8362125 -1.24338467 0)
(104.8766279 -1.210806598 0)
(104.864471 -1.209738987 0)
(104.8207461 -1.240892569 0)
(104.5460699 -1.353134559 0)
(104.6012333 -1.321541051 0)
(104.5685464 -1.315277862 0)
(104.5088379 -1.345470515 0)
(104.092992 -1.4398639 0)
(104.1677113 -1.409215898 0)
(104.1100908 -1.398490021 0)
(104.0266034 -1.427420096 0)
(103.1643183 -1.489829284 0)
(103.3485953 -1.46452275 0)
(103.1659294 -1.44578006 0)
(102.8315304 -1.466238073 0)
(98.06730883 -1.507588815 0)
(98.58257436 -1.466398992 0)
(98.11262797 -1.464265058 0)
(98.63988667 -1.514647816 0)
(105.4516817 -0.1709048666 0)
(105.5274586 -0.08261848303 0)
(105.4489918 -0.3395872243 0)
(105.5274119 -0.2441147256 0)
(105.4352699 -0.503231337 0)
(105.5185522 -0.407260341 0)
(105.3754145 -0.6719713435 0)
(105.4938788 -0.5531584972 0)
(105.4214567 -0.6463286271 0)
(105.3134363 -0.7287263146 0)
(105.3859113 -0.6946340085 0)
(105.334163 -0.7491258808 0)
(105.2397556 -0.8803959153 0)
(105.2954419 -0.8230341799 0)
(105.3048236 -0.8377679222 0)
(105.2449548 -0.8922960321 0)
(105.1156598 -1.015336327 0)
(105.1808407 -0.9574819782 0)
(105.1725286 -0.9646174975 0)
(105.0908606 -1.026351249 0)
(105.1085251 -1.009692207 0)
(104.9429695 -1.115543896 0)
(104.9842128 -1.087290198 0)
(104.9673784 -1.086343583 0)
(104.9226949 -1.113271522 0)
(104.63093 -1.209746644 0)
(104.6869417 -1.18257607 0)
(104.6501994 -1.177174628 0)
(104.5896902 -1.203086326 0)
(104.1571374 -1.283600483 0)
(104.2334952 -1.257475135 0)
(104.171543 -1.248266103 0)
(104.0853564 -1.272808446 0)
(103.1689884 -1.323865802 0)
(103.3641947 -1.302769944 0)
(103.1694716 -1.286472347 0)
(102.8224951 -1.303284341 0)
(98.24102345 -1.344183011 0)
(98.6957035 -1.306385476 0)
(98.28145836 -1.307307092 0)
(98.77106612 -1.34942433 0)
(105.6038722 -0.1564210287 0)
(105.6744004 -0.07591467481 0)
(105.5977073 -0.3104993855 0)
(105.6721451 -0.2239175916 0)
(105.5779334 -0.4594857004 0)
(105.6585098 -0.3732134621 0)
(105.5115838 -0.6115838328 0)
(105.6265378 -0.5063078203 0)
(105.5530797 -0.5898213073 0)
(105.4519253 -0.6624016268 0)
(105.5172189 -0.6328499445 0)
(105.4660448 -0.6810933657 0)
(105.3660255 -0.7980787958 0)
(105.4212474 -0.7473746257 0)
(105.4240693 -0.7612836655 0)
(105.3638725 -0.8091593938 0)
(105.2258708 -0.9175106047 0)
(105.2917911 -0.8669648591 0)
(105.2759811 -0.8739171841 0)
(105.193819 -0.927399497 0)
(105.2093317 -0.9132202798 0)
(105.0354688 -1.005173479 0)
(105.0776862 -0.98074457 0)
(105.0567558 -0.9801983245 0)
(105.0110264 -1.003402931 0)
(104.7040109 -1.086968022 0)
(104.7608976 -1.063667995 0)
(104.7207464 -1.05931505 0)
(104.659393 -1.081481336 0)
(104.2114268 -1.150687518 0)
(104.2895085 -1.128496764 0)
(104.2237167 -1.12084819 0)
(104.1348376 -1.141578116 0)
(103.1694986 -1.183377974 0)
(103.3744597 -1.165938433 0)
(103.1690747 -1.151891431 0)
(102.8115933 -1.165487146 0)
(98.39631638 -1.20555199 0)
(98.80163937 -1.171011171 0)
(98.43261799 -1.174451253 0)
(98.88407549 -1.209650554 0)
(105.7433798 -0.1439412124 0)
(105.8096264 -0.07018963889 0)
(105.7336935 -0.2854694752 0)
(105.805097 -0.2067401911 0)
(105.7078844 -0.4219314946 0)
(105.7867095 -0.3442129111 0)
(105.6348031 -0.5596815418 0)
(105.747538 -0.4667097509 0)
(105.6724722 -0.5417774076 0)
(105.5767684 -0.6051870506 0)
(105.6359943 -0.5800950231 0)
(105.5849049 -0.6227242688 0)
(105.4788637 -0.7273515984 0)
(105.5341568 -0.6826037993 0)
(105.5310665 -0.6962170507 0)
(105.4700625 -0.7381647355 0)
(105.3231124 -0.8337032163 0)
(105.3902489 -0.7898944925 0)
(105.3676362 -0.7967539905 0)
(105.2847 -0.8435009472 0)
(105.2984807 -0.8310741976 0)
(105.1164785 -0.9113715698 0)
(105.1597664 -0.8903298024 0)
(105.1352526 -0.890397759 0)
(105.0884377 -0.9103133103 0)
(104.7677937 -0.9833063248 0)
(104.8255709 -0.9634007857 0)
(104.7825245 -0.9602032557 0)
(104.7202887 -0.9790801961 0)
(104.2579283 -1.038974278 0)
(104.3377832 -1.020229264 0)
(104.2685248 -1.014123057 0)
(104.1769708 -1.03150816 0)
(103.1666756 -1.065556415 0)
(103.380445 -1.051338995 0)
(103.1655363 -1.039360577 0)
(102.7993386 -1.050126281 0)
(98.5361145 -1.089124106 0)
(98.90125416 -1.057713097 0)
(98.56894279 -1.063215437 0)
(98.98262442 -1.092655485 0)
(105.8719775 -0.1334604701 0)
(105.934999 -0.06543362384 0)
(105.8587804 -0.2644651699 0)
(105.928156 -0.1925402206 0)
(105.8270371 -0.3904729491 0)
(105.9050811 -0.3201729564 0)
(105.7471478 -0.5159778701 0)
(105.8588453 -0.4341767942 0)
(105.7816818 -0.5019436101 0)
(105.6901178 -0.5568929222 0)
(105.7443659 -0.5361467656 0)
(105.6929078 -0.573728611 0)
(105.5805805 -0.6678292884 0)
(105.6363953 -0.6283631913 0)
(105.628007 -0.64211117 0)
(105.565829 -0.67884644 0)
(105.4098204 -0.763018077 0)
(105.4785941 -0.7256702263 0)
(105.449928 -0.7324439025 0)
(105.3656906 -0.7741750908 0)
(105.3780455 -0.7625613274 0)
(105.1882485 -0.8331872966 0)
(105.2326288 -0.815144173 0)
(105.2050055 -0.8159601172 0)
(105.1571042 -0.8329848331 0)
(104.8242121 -0.8973024438 0)
(104.8828934 -0.8803875653 0)
(104.8373505 -0.8784036326 0)
(104.7741923 -0.8943752883 0)
(104.298162 -0.946524435 0)
(104.3798333 -0.9308271953 0)
(104.3073825 -0.9262294706 0)
(104.2131581 -0.9406438203 0)
(103.161233 -0.9680967379 0)
(103.3829808 -0.9567557356 0)
(103.1595299 -0.9466978948 0)
(102.7862035 -0.9549424774 0)
(98.66281283 -0.992637865 0)
(98.99525013 -0.9642217182 0)
(98.69264444 -0.9713947481 0)
(99.06951448 -0.9959818118 0)
(105.9920266 -0.1249268455 0)
(106.0523552 -0.06164488953 0)
(105.9753158 -0.2473888266 0)
(106.0431904 -0.1812819333 0)
(105.9377467 -0.3649174308 0)
(106.0154873 -0.3009809399 0)
(105.8507527 -0.4803655097 0)
(105.9624993 -0.4086510608 0)
(105.8827223 -0.4701509386 0)
(105.7940501 -0.5172609997 0)
(105.8442387 -0.5006659227 0)
(105.7920727 -0.533794735 0)
(105.6732561 -0.6190008783 0)
(105.7299892 -0.5842032793 0)
(105.7168745 -0.5984227978 0)
(105.6532106 -0.6306329842 0)
(105.4882332 -0.7050077177 0)
(105.5589682 -0.6735759783 0)
(105.5250608 -0.6807421579 0)
(105.438841 -0.7182629587 0)
(105.4499959 -0.7073012228 0)
(105.2526713 -0.7696089919 0)
(105.2981618 -0.7542127037 0)
(105.267846 -0.7558742644 0)
(105.2188588 -0.7703687545 0)
(104.8748093 -0.8276281898 0)
(104.9344283 -0.8133531559 0)
(104.8867087 -0.8126250889 0)
(104.8225666 -0.8260217593 0)
(104.3333117 -0.8717405345 0)
(104.4168608 -0.8587622153 0)
(104.341428 -0.855653957 0)
(104.2445072 -0.8674031944 0)
(103.1537143 -0.8892217418 0)
(103.3827175 -0.8804844027 0)
(103.1515627 -0.8722468045 0)
(102.7724638 -0.8781936534 0)
(98.77805638 -0.9141242973 0)
(99.08393899 -0.8886076625 0)
(98.80519787 -0.8971095167 0)
(99.14661412 -0.9175037329 0)
(106.1034953 -0.1183627021 0)
(106.163545 -0.05876191886 0)
(106.0833905 -0.2342078786 0)
(106.1520093 -0.172827982 0)
(106.0402032 -0.3452026767 0)
(106.1197557 -0.286462553 0)
(105.9469402 -0.4515358123 0)
(106.059627 -0.3892273891 0)
(105.9772682 -0.4456564686 0)
(105.8902263 -0.4858931757 0)
(105.9379213 -0.4733837004 0)
(105.8842915 -0.5023103937 0)
(105.7587762 -0.5803258322 0)
(105.8168174 -0.5496297207 0)
(105.7994728 -0.564708543 0)
(105.7339897 -0.5929493034 0)
(105.5605216 -0.659655998 0)
(105.6332057 -0.632810271 0)
(105.594668 -0.6416300927 0)
(105.5059859 -0.6732797657 0)
(105.5163873 -0.6650422161 0)
(105.3114568 -0.7196208536 0)
(105.3581212 -0.7065027586 0)
(105.325508 -0.7091650304 0)
(105.2753714 -0.7214591047 0)
(104.9209398 -0.7731615663 0)
(104.9815607 -0.7612249408 0)
(104.9319257 -0.7618160508 0)
(104.8667093 -0.772918346 0)
(104.3644223 -0.8133898576 0)
(104.4499373 -0.8028605148 0)
(104.3716855 -0.8012585949 0)
(104.2720075 -0.8105914572 0)
(103.1445284 -0.8275991048 0)
(103.3801873 -0.8212530137 0)
(103.1420002 -0.8147640793 0)
(102.7582135 -0.8185619478 0)
(98.88275615 -0.8519449473 0)
(99.16711764 -0.8293196752 0)
(98.90734268 -0.8387891068 0)
(99.21502993 -0.8554895375 0)
(106.2151171 -0.1135129531 0)
(106.2701851 -0.05690937212 0)
(106.1913497 -0.2245914926 0)
(106.2563567 -0.1673547542 0)
(106.142132 -0.3309127529 0)
(106.2196396 -0.2768518181 0)
(106.0396313 -0.4321066098 0)
(106.1532128 -0.3771711373 0)
(106.0685137 -0.4289536325 0)
(105.9815005 -0.4626396578 0)
(106.0264024 -0.45368687 0)
(105.9714634 -0.4799077598 0)
(105.8388308 -0.5515580347 0)
(105.8984598 -0.524509877 0)
(105.8773101 -0.5407542965 0)
(105.8097318 -0.5654692581 0)
(105.6277625 -0.6265158132 0)
(105.7026154 -0.6031405993 0)
(105.6599886 -0.614209703 0)
(105.5688915 -0.6401532046 0)
(105.5787239 -0.6347411457 0)
(105.3662938 -0.6825945304 0)
(105.4142176 -0.6714942401 0)
(105.3795648 -0.6752999026 0)
(105.3282249 -0.6856201778 0)
(104.9638658 -0.7330644764 0)
(105.0255783 -0.7232141342 0)
(104.9742378 -0.7252065458 0)
(104.9078365 -0.7342541238 0)
(104.3924813 -0.7705921202 0)
(104.4800837 -0.7622853112 0)
(104.3991375 -0.7622447322 0)
(104.2965945 -0.76937017 0)
(103.1338901 -0.782279328 0)
(103.3757595 -0.7781960896 0)
(103.1310131 -0.7734276824 0)
(102.7433174 -0.7751337703 0)
(98.97746235 -0.8047933078 0)
(99.24424704 -0.7850467734 0)
(98.99967075 -0.7952062687 0)
(99.27560834 -0.808685371 0)
(106.3014726 -0.1110709922 0)
(106.3745251 -0.05566907975 0)
(106.2750572 -0.2192224352 0)
(106.3579485 -0.1640620067 0)
(106.2217552 -0.3228475825 0)
(106.3169849 -0.2709668167 0)
(106.1218352 -0.4206666727 0)
(106.2439357 -0.3691940405 0)
(106.149854 -0.4181795155 0)
(106.0680284 -0.4466295886 0)
(106.1096448 -0.4427285891 0)
(106.0540071 -0.4649701848 0)
(105.9149194 -0.5322388538 0)
(105.976249 -0.5081965682 0)
(105.9520689 -0.5260240711 0)