/*--------------------------------*- C++ -*----------------------------------*\
| =========                 |                                                 |
| \\      /  F ield         | OpenFOAM: The Open Source CFD Toolbox           |
|  \\    /   O peration     | Version:  v2012                                 |
|   \\  /    A nd           | Website:  www.openfoam.com                      |
|    \\/     M anipulation  |                                                 |
\*---------------------------------------------------------------------------*/
FoamFile
{
    version     2.0;
    format      ascii;
    class       surfaceScalarField;
    location    "0.61";
    object      phi;
}
// * * * * * * * * * * * * * * * * * * * * * * * * * * * * * * * * * * * * * //

dimensions      [0 3 -1 0 0 0 0];
oriented        oriented;


internalField   nonuniform List<scalar> 
6464
(
0.4583065764
0.002350607975
-0.002323925804
0.458407963
0.002250962815
-0.002137094136
0.4584788411
0.001988253048
-0.001827772694
0.4585042758
0.001658496929
-0.001478108119
0.4584989981
0.001314110006
-0.001155560985
0.4584937221
0.000976838899
-0.0008991091489
0.4584597926
0.0007893165244
-0.0006475219282
0.4584655392
0.0005319827154
-0.001715083781
0.9186594543
0.0001843573499
-0.0004787278345
-0.001074328225
0.9187092444
4.055423872e-07
0.9157752662
0.9138004055
-0.004404067968
-0.2290986033
0.2289754393
0.004527353408
-0.004702602122
-0.2292904165
0.2293239876
0.004669030978
-0.004297636457
-0.2294137294
0.2295541344
0.004157231425
-0.00362880911
-0.2294673498
0.2296638253
0.003432333601
-0.002864672005
-0.2294574704
0.2296579194
0.002664223076
-0.002161486859
-0.2294075068
0.229579195
0.001989798656
-0.4588921514
-0.002989895888
0.4603405721
0.001541475135
-0.0002244993117
0.4609524127
-0.001465567417
-0.4592623459
-0.001718445878
0.9181819391
0.0004996877143
0.001696273335
-0.001060623229
0.9180514218
0.0003173440113
0.914397299
0.9141177496
-0.2283794236
0.005668056201
0.2281554794
-0.005441332938
-0.2264865164
0.003875960142
0.2257045116
-0.003077576921
-0.2274543863
-0.0002759899892
0.2260396584
0.001707321693
-0.2305286046
-0.006397794056
0.2305623299
0.006365020788
-0.2305043919
-0.005225511231
0.2308779726
0.004851930558
-0.003536512973
-0.230347558
0.2310391559
0.002844915174
-0.4629870575
9.814430006e-05
0.4618427044
0.00104620885
-0.4600549782
-0.001171494107
0.4600522302
0.001174242033
2.589857599e-05
0.9199105283
-0.001022112042
-0.0007323756902
0.001512594993
0.9165647254
0.0006978550299
0.915212039
0.9148156046
-0.2274000773
-0.0008760557685
0.2271115416
0.001171016984
-0.2245258141
-0.00146793717
0.22461337
0.001415398589
-0.2235865803
-0.001328680353
0.2235105219
0.001455190281
-0.2263571441
-0.002722346189
0.2256463691
0.003472334899
-0.2345893617
-0.001959745517
0.2380515041
-0.001500928408
-0.003674934643
-0.2319676741
0.2320032111
0.00363939756
-0.461860435
-0.005426691394
0.4630943162
0.004192810175
-0.4607864362
-0.002970346159
0.4617787274
0.001978054988
0.002752054639
0.9198584684
-0.001438053916
-0.001261940879
0.001918619046
0.917398161
0.0008782176249
0.9162524404
0.9156938222
-0.2259647556
-0.0207609213
0.2254889871
0.02124386103
-0.2265154895
-0.01992883943
0.2278869091
0.01859858137
-0.2258678668
-0.01282807062
0.2276746028
0.01109387692
-0.2344640205
0.001525223255
0.2309256802
0.002083849189
-0.2297268274
-0.004770399786
0.229663906
0.004874346199
-0.005268092401
-0.23344278
0.2340045689
0.004706303469
-0.4647678767
-0.006172408699
0.4663593337
0.004580951687
-0.4627066749
-0.003448990329
0.4636547222
0.002500943062
0.003398550102
0.9216543151
-0.002943307907
-0.002251088869
0.001824547002
0.9189721641
0.0008158743172
0.9172611131
0.9165096965
-0.2235191944
-0.04385913103
0.222692871
0.04468684641
-0.2354660507
-0.03868043504
0.2374832294
0.03668642153
-0.2414082557
-0.02214282343
0.2411679087
0.02245316044
-0.2325909086
-0.01712653961
0.2351241542
0.01468779411
-0.2319960671
-0.008787041233
0.2335475621
0.007312098629
-0.004409931606
-0.2354671805
0.2357794951
0.004108704819
-0.4677260822
-0.006134450255
0.4690755021
0.004785030401
-0.4641991799
-0.003792492055
0.4646831876
0.00330848437
0.002608549014
0.923764536
-0.002236806275
-0.002481963643
0.001367978877
0.9202127342
0.0005370995534
0.9180919924
0.9170467961
-0.03322452023
-0.1087021638
0.1081384781
0.03378820587
-0.02682521835
-0.2515139765
0.05062495266
-0.02721033854
0.1270653787
0.127859202
-0.03854353231
-0.2492112287
0.2535763578
0.03422438359
-0.2444797377
-0.02248699596
0.2477484448
0.01931853493
-0.2394928789
-0.01175685673
0.2416905037
0.009650614309
-0.005002274474
-0.2372783782
0.2382522941
0.00406355815
-0.4703924038
-0.00486160227
0.4711460083
0.004107997765
-0.4655958754
-0.003026275982
0.4664750315
0.00214711993
0.001111826677
0.9251342805
-0.001095661484
-0.001385909688
0.000387789346
0.9209367716
8.329695014e-05
0.9183964848
0.917130093
-0.0335692116
-0.1412896761
0.1442571848
0.03060170285
-0.03658533986
-0.2668715084
0.2709112572
0.03256861758
-0.2573077749
-0.02253130743
0.2603333385
0.01959698783
-0.2490126873
-0.01180881241
0.2513649602
0.009559607943
-0.004466641165
-0.2417536175
0.242990923
0.003275731044
-0.4722418507
-0.002361174495
0.4730929699
0.001510055223
-0.4671414615
-0.0009446789468
0.4676615836
0.0004245568318
-0.001166891675
0.9255560637
0.0006731249968
7.198348383e-05
-0.001004619541
0.9207744994
-0.0005544794871
0.9179463447
0.9165756136
-0.01488461388
-0.157398149
0.1578908354
0.01439192749
-0.02082408619
-0.279441254
0.2807989099
0.01947803493
-0.2677788113
-0.01477478396
0.2695775216
0.01305383029
-0.2575106917
-0.007689504511
0.259217816
0.006075984757
-0.001948845166
-0.2463545566
0.24737847
0.0009750748342
-0.4741538374
0.001007683381
0.4749529622
-0.001806808103
-0.4678439804
0.002090088089
0.4678724642
-0.002118571898
-0.003865054633
0.9245620175
0.002695652671
0.002163448199
-0.002674185363
0.9195836302
-0.001372800843
0.9166449602
0.9152028127
0.003669849276
-0.1548416157
0.15377628
-0.002604513495
-0.002341271333
-0.2809863319
0.2799599267
0.003378708682
-0.2730633697
-0.003834330919
0.2736216636
0.003346425289
-0.2633669448
-0.0009709109253
0.2643434735
7.975881033e-05
0.00207567255
-0.2494451527
0.249924088
-0.002508573143
-0.4747454369
0.005557814312
0.4740513619
-0.004863739229
-0.4675240694
0.004543742065
0.467675081
-0.004694753712
-0.00678469599
0.9221203318
0.00494622911
0.0042801525
-0.004449221338
0.9172481555
-0.002240873228
0.9144366121
0.9129619395
0.01349611776
-0.1446231743
0.143197267
-0.01207021044
0.01120174665
-0.2752574488
0.2734803416
-0.009408088855
-0.27432644
0.007402872194
0.2731774107
-0.006188573865
-0.2662294337
0.006212021687
0.2663862485
-0.006294200846
0.006331486486
-0.2499275421
0.2497785402
-0.006146458822
-0.4729944462
0.009810646156
0.4716226162
-0.008438816249
-0.4676770578
0.007215626597
0.4665605543
-0.006099123082
-0.009455350157
0.9184675847
0.006786600643
0.006321496666
-0.006147949961
0.9139407553
-0.003025353345
0.9113140155
0.9099365861
0.0167451731
-0.1335992793
0.132229368
-0.01537526177
0.01844134283
-0.2681404706
0.2667364892
-0.01701460672
-0.2719998776
0.01279556765
0.2733429567
-0.01408099343
-0.2659688848
0.01402011706
0.2655541196
-0.0135391602
0.01004331316
-0.2475295535
0.2464480709
-0.008936962616
-0.469990982
0.01327912297
-0.01140239426
-0.4653721824
0.009755926568
-0.008324631078
-0.01180863581
0.007169306494
-0.007614010198
-0.003703844153
0.160750667
0.01767683727
-0.1599546922
-0.00893575022
-0.009537061886
-0.1425336541
-0.03703915961
0.1460036021
0.1571171023
-0.001784726913
-0.1582726435
0.001659736884
0.001280531261
0.1611670137
-0.007367295147
-0.00793366542
0.145776554
-0.01278265684
-0.1472846363
0.007214985845
0.007075753279
0.1558830989
0.002638890999
0.002264961692
0.1340617033
-0.01655635523
-0.13541551
0.01791016191
0.01501379869
0.144258873
0.01833871355
0.1324681628
-0.1050962331
0.1037307479
0.03414818304
-0.13884661
-0.03783522715
-0.123752757
-0.02853522507
0.1254627637
0.04349131976
0.009839787151
-0.04318342458
-0.01014768233
0.0272000201
-0.07288002241
-0.02954330742
0.07522330973
0.0168830801
-0.1566043918
0.2844661265
0.02553561003
-0.2820155074
-0.02798599677
-0.2698489316
-0.04117754259
0.2744449487
0.04931098834
0.0008830272135
-0.04941204681
-0.0007819687355
-0.0462126496
0.00368285499
-0.003038377216
0.04556817183
-0.0008488025179
-0.1557775401
0.2849807354
0.006708139437
-0.2861022989
-0.00558651634
-0.02230022949
0.2859423398
0.03943879184
-0.004224062653
-0.03980416518
0.004589435993
-0.04270530332
-0.001651231564
0.001201478185
0.0431550567
-0.01135338274
-0.1460524484
0.2755544581
-0.00827293318
-0.2783801781
0.01110025805
-0.0005888760635
0.2832285147
0.07066656857
-0.01090015028
-0.07118731417
0.01142089588
-0.07457937062
-0.01004051045
0.07408525979
0.005338665483
0.005195955802
0.007961886095
0.03054120584
-0.007718664557
-0.03078442738
0.06389045075
-0.01110778372
-0.06433407749
0.01155141047
-0.06716183001
-0.0114144873
0.01180478664
0.06677153067
0.00425775747
-0.04660804765
-0.003862359419
0.009423006155
-0.009630593796
0.0436989074
-0.1550390389
0.02591293872
0.1571355432
-0.01374047167
-0.0142689713
-0.08494529803
-0.00899978007
0.08563815987
0.01772992439
0.0450467003
0.004449069117
-0.04523801194
-0.001467167712
-0.04224004015
0.001001904546
0.0002171996148
-5.810678386e-05
0.0491518955
-0.07993787618
0.002525846761
-0.00245669028
0.0798687197
-0.04777849594
0.04757883206
0.0004168634942
0.04205831491
-0.001698437135
-0.04182704548
0.04469429008
0.004035265208
0.0009008089001
-0.04779627762
0.00326216093
-0.08010663038
-0.003093406729
-0.009856352382
-0.07510497015
0.005210919936
0.005171031974
-0.004089479312
0.004278832683
0.03924943847
-0.151755747
-0.009649220446
0.1502671423
0.005688074522
0.005449750628
-0.07841887041
0.004074518357
0.07786763027
-0.007612757522
0.07435989262
-0.009374593775
-0.07484165123
0.04227290108
-0.00186581774
0.004065497929
-0.007343156968
-0.03980838745
-0.03955688658
-0.008416241615
-0.1531287376
0.005014699193
0.004774533056
-0.01133731865
-0.06763505203
0.01181054067
-0.01112735694
0.0115437229
0.07025020261
-0.02893695792
-0.00730796001
0.006820442799
-0.02921654809
0.008241476261
0.01134778042
-0.007326584204
0.03211681235
0.01388253966
-0.04577548163
-0.000223870388
0.02125365709
-0.03732028473
-0.02344217832
0.03950880596
0.04510782262
-0.007679049147
-0.03725138412
-0.0001773893492
-0.01526969411
-0.1348859404
0.2651958333
-0.01707507113
-0.2675646093
0.0194518799
0.01395345207
0.2728055208
0.03786101835
-0.007249773533
-0.0304004845
-0.000210760314
0.06503741741
-0.01309008963
-0.06565148966
0.006883711379
0.006820450504
-0.03348532666
-0.006578161187
0.006677047048
0.0333864408
-0.07273612253
0.07464938438
0.02528675824
-0.01015645013
0.01902857763
-0.08397763838
0.02837178773
-0.1524306698
-0.01528029822
-0.01569985866
-0.006626850521
-0.03363877695
0.00678030082
-0.03567459478
-0.006828345164
0.007287791011
0.03521514893
-0.1398219265
-0.01578926279
0.01727902884
0.1383321605
-0.07071291376
0.07021876733
-0.0106332105
0.06721868408
-0.0108890171
-0.06766698563
0.07389872734
-0.009579345161
-0.01050152519
-0.07111153886
-0.01535007144
-0.1413176114
0.01684575629
0.02321865915
-0.05199386845
-0.02189294506
0.05066815436
0.02727447248
-0.0706239795
-0.02953051539
0.0426854421
-0.1236965377
-0.02238204237
-0.02351589919
0.06291721892
0.06399181828
-0.0558585867
0.05485786055
0.0242193853
0.03312567343
-0.001008861075
-0.08150479183
0.0240641067
0.08336006301
-0.01281608273
-0.01310329515
-0.04374085981
0.05986838099
0.01699815225
-0.03703965186
0.03879807857
0.01949523039
0.01580596615
-0.0456642863
0.02521561724
-0.07956424941
-0.0134476949
-0.01370846476
-0.04155289645
0.002675941354
-0.002657073183
0.04153402827
0.002357589789
-0.04187719961
-0.002033286622
-0.04017027977
-0.00319679893
0.003117664879
0.04024941382
-0.003435227567
-0.04048886909
0.00375381689
-0.006165872203
0.03657295509
-0.03560563683
0.005198553948
-0.009672326152
0.02184090305
0.03293924573
-0.07259060652
-0.0106482601
0.01106090227
0.07217796434
-0.03845763587
0.03664914743
-0.007863837705
0.03664121391
-0.006371012872
-0.03643607324
-0.03399858718
0.03802293906
-0.003790544963
-0.0002338069189
-0.006895124374
-0.03924156065
-0.01049993629
-0.07304586677
0.005511427259
0.005443769283
0.06298835388
-0.01272065177
-0.06350994299
0.01324224088
-0.01303631983
0.06447083521
0.006809465972
0.006793436063
0.01843278046
0.02826473553
-0.008836497636
-0.04464975699
0.006478307142
-0.006221554128
0.04439300397
0.00692225787
-0.04471165087
-0.006860363985
-0.04002192624
-0.000929359741
0.0008267350276
0.04012455095
-0.001288622542
-0.04021455237
0.001481248672
0.04083057553
-0.0009949219924
-0.04112427608
0.0819993573
-8.098583672e-05
-0.08232665426
0.0004082827926
-0.08315311815
0.001918618436
-0.001685062159
0.08291956187
0.08063789586
-0.002382220711
-0.08099875879
0.002743083634
-0.0006912217673
0.001015041944
0.08167553713
0.04080738328
-0.0009061674923
0.04226569276
0.002518716066
-0.04242681904
0.08368148067
0.005706426984
-0.08375546356
-0.005632444088
-0.08373719409
0.00822498153
-0.008282851348
0.08379506391
0.002634943011
-0.08335049863
-0.002437562532
0.004914860031
-0.004830659393
0.08359728003
0.04237724449
0.002564389629
-0.03842138852
-0.004614274293
0.004803521997
0.03823214082
-0.001854176139
-0.03206505371
-7.935733332e-05
-0.004644152114
-0.03865188694
0.004874650533
0.006157125523
0.03679944145
-0.006315353071
0.006926067059
0.035149842
-0.00660463506
-0.035471274
0.06891044468
-0.01126020141
-0.06935684334
0.01170660007
-0.03617668146
0.007428153741
0.005469512587
0.03726056803
0.01867759551
-0.0002448150557
-0.01261558976
0.01299268951
0.03892142359
-0.04066167236
0.001740248763
0.03441276
-0.006947507869
-0.03444971837
0.006984466237
-0.03193180985
-0.006907420143
0.006533120571
0.03230610942
-0.006705108435
-0.01026057247
0.009563205274
0.007402475642
-0.007610679438
-0.03282083744
0.008499707026
-0.02990502675
-0.007600971351
0.006293300425
0.03121269768
0.03066995254
-0.04731027031
-0.02877291225
0.02225288678
0.02316034324
0.02068645711
-0.03538188772
-0.02262485412
0.0311201733
-0.05919219442
-0.03308730247
0.06115932359
-0.05220399122
0.03332537539
0.02418304679
0.02536552158
-0.04648859959
0.003986358307
-0.005927841648
0.04843008293
-0.0421180172
0.04133723432
0.0009180992022
-0.0001373163205
0.04015961952
0.0006259306128
-0.04042841511
-0.0003571350192
0.04350588457
0.002778522016
-0.04415563442
-0.002128772171
-0.04090038371
-0.003665766009
0.003818339702
0.04074781002
-0.04301295876
0.00352598469
0.0434016986
-0.003914724532
0.03821720298
0.006978156441
-0.006020643606
-0.03917471581
-0.03782353435
0.03793264084
2.778909058e-05
-0.000136895581
0.04358976653
-0.003561334516
-0.03979747902
-0.0002309530019
0.04331464956
-0.002950047265
-0.04365991301
0.003295310711
-0.04489020976
0.006213073608
-0.007132073297
0.04580920945
-0.04093970416
-0.02865755469
0.05781952969
0.01177772916
0.001913325901
-0.04385172173
-0.0001796213638
0.04392938092
0.006866895687
-0.04387401874
0.08283951027
0.01283225658
-0.0824507233
-0.01322104355
-0.08072702482
0.01562896799
-0.01629542041
0.08139347724
0.009117211937
-0.08361719066
-0.009237215374
0.01187981765
-0.01220456845
0.08316426106
0.04387961848
0.006528069584
-0.04100446634
-0.001089619345
0.0007088490297
0.04138523666
-0.03743807597
0.037510067
0.0001972068662
-0.0002691978943
0.0001629866489
-0.03769804397
-0.0002884770279
0.04567057656
-0.002711869793
-0.04775606314
0.004797356375
0.003680327007
0.03888719261
-0.004350316639
0.002565750781
0.04212042218
-0.003501404917
-0.04118476804
0.0392878679
-0.00421421685
-0.03925287868
0.004179227627
0.07632126872
0.004533671433
-0.008520135923
-0.07697895634
-0.007115165498
0.07545091956
-0.07589412098
0.007558366916
-0.07722110378
-0.006228811647
0.006667978797
0.07678193663
0.04021853694
-0.003168783628
-0.04048498088
0.0789823373
-0.004340479132
-0.07944152268
0.004799664512
-0.002909443674
0.003280337234
0.0802670023
-0.005866871495
-0.07767914408
0.0063249118
-0.004756039276
0.005175086225
0.07856329035
0.04016862646
-0.003146888449
-0.01129297919
0.0116775223
0.06852590157
0.03487655777
-0.006555060939
0.06691292789
0.006626501036
-0.01275334444
-0.067412935
-0.0370756998
-0.00923917689
0.01849961316
0.02781526353
-0.04320709182
0.02053019434
-0.02094277836
0.04361967584
-0.03311319058
0.04367889378
0.02835572039
0.02089143634
-0.04235989693
-0.02173863123
-0.02877143952
-0.002254583617
0.03121503411
-0.000189010975
-0.006106668862
-0.02243724848
-0.0002275221695
0.03353637627
-0.007252628353
-0.03369670259
0.007412954671
-0.007442644904
0.007961484931
0.03389391998
0.01921556726
-0.01894279814
-0.0002727691209
0.01197234244
-0.01390630775
0.002812871736
-0.011751267
0.0108205902
0.002417812367
0.006533086875
-0.03121679593
0.03255545927
-0.007871750217
0.009196424134
0.03317931553
-0.008118401122
-0.03425733854
0.03431353669
-0.006739407983
-0.03464187874
0.00706775003
-0.04057656065
0.01986795804
-0.02074034605
0.02745157109
-0.0001781381684
0.033055865
-0.03212456058
-0.0009313044156
0.04714687307
0.01347305949
-0.04606774639
-0.01455218617
-0.04365987002
0.0144186908
-0.01522319662
0.04446437585
0.048814552
0.01223914422
-0.04673970759
-0.01431398863
0.01259083997
-0.01286594212
0.04742197523
0.01469225236
-0.0429553274
-0.01539679498
-0.04025478749
0.01573918635
-0.01665491092
0.04117051206
-0.04333534282
0.04465124962
0.01921428755
-0.03866799472
0.03776103905
0.001229511828
-0.000322556165
0.0268956084
-0.02679770786
-9.790053395e-05
0.004525032461
-0.04404365632
-0.006969975724
0.002587723022
-0.001980874322
0.04289903587
0.03983257968
0.0005554285171
-0.0002283886792
0.0006799137802
-0.03917233599
-0.000175572505
0.0003988310666
-0.03819711969
0.03960595336
-0.00180766473
0.001048737314
-0.002184150188
-0.04187754588
-0.003420790441
-0.04076080505
0.003281211777
0.03796114626
-0.03655297992
-0.0003594290259
-0.0345664016
0.03553182686
-0.0005665941913
0.03601126274
-0.03557659425
0.006543487958
0.04188551495
-0.0003983839969
-0.002165089742
-0.03225263664
-0.0001486752168
-0.003508366854
0.004402012761
0.04242100366
0.05155441349
-0.007741790053
-0.0002228569034
-0.003599661939
-0.0367625475
-0.03772276818
-0.007022036244
0.007555606809
0.03718919762
-0.005455526861
-0.03625803082
0.003990789494
0.03795351457
-0.006077533642
-0.03733150779
0.03625387318
-0.005959381451
-0.03636641099
0.006071919257
-0.037283329
-0.005839699491
0.006280893728
0.03684213476
0.03403903582
-0.006921348336
-0.03322435634
0.03741975456
-0.005851992852
-0.03777991617
0.006212154462
-0.03856619153
-0.005353857437
0.005222143361
0.03869790561
-0.005793457485
-0.03753065512
0.006040783606
-0.005649249751
0.005654860548
0.03741414377
0.036130627
-0.004346174802
0.007207403435
0.03195349136
-0.007475179078
-0.03168571572
0.03249597748
-0.007047297436
-0.03274523544
0.00729655539
-0.00729228707
0.007635251536
0.0331934118
-0.002326035299
-0.04754839869
0.04559699107
0.004277442924
-0.008546761858
0.008996990621
-0.04138993292
0.006330909352
-0.04428216382
-0.006938955288
0.02862276743
-0.03693909825
-0.0002304310387
-0.04374558465
0.04154968439
-0.0001301350418
-3.478726247e-05
0.04255338743
0.006427499214
-0.04532694625
-0.003653940394
0.01052450437
-0.01133741984
0.04962746747
0.005244399609
-0.04881219997
-0.0001777842883
0.009499416796
-0.008559358307
0.04161332894
-0.04386204612
0.008107804521
-0.008368131321
0.04412237292
-0.04416823537
0.04452849313
0.009139159032
0.006166580005
-0.04847057909
-0.03689671374
0.03718817536
4.089031298e-05
-0.0003323519323
0.000270113203
-0.0372774141
-0.0004307750756
-0.0009697786758
-0.04066119001
0.0006265023384
-0.003215518488
0.005811948625
0.04307414642
0.02598426274
-0.02565498604
-0.0003292766983
-0.0005554866637
-0.036263536
-7.76910752e-05
0.03971253288
-0.00589968862
-0.04045079639
0.006637952132
-0.03835596961
-0.005170759363
0.004378901373
0.0391478276
-0.005187056993
-0.03816256279
0.004783428255
-0.006283771165
0.00745145989
0.03854484415
0.02299854281
-0.02262376074
-0.0003747820752
0.04210596179
-0.04072355397
0.00118334296
0.001963418473
0.03772817127
-0.006602572497
-0.03905072175
0.007297324637
-0.004282326741
0.003655744222
0.04273254431
-0.02045875821
-0.0002815878375
-0.0359633994
-0.006527606182
0.006273271663
0.03621773392
-0.02704216801
0.0301371904
-0.002967717913
-0.0001273044699
-0.009547784699
-0.04212776944
-0.005938412252
-0.02094599725
-0.0001577585087
-0.006926282445
-0.03624421672
0.007207099771
-0.02963018062
-0.0002381157492
0.03104716717
-0.1381886602
0.03839662639
-0.2649819559
-0.04325548886
-0.250004994
-0.04308668036
0.2545761993
-0.02487423954
0.02773651064
-0.002622163914
-0.0002401071851
-0.01937511414
-0.005311027222
-0.0001880981797
0.02049096673
0.2631564504
-0.01906669052
-0.0003084236149
0.06682863734
-0.01102444055
-0.02071060176
-0.1297025798
0.01110809934
-0.01657923341
-0.1297468993
0.01790435447
0.02066464995
-0.01974065937
-0.01961018018
0.01868618959
-0.01898311795
-0.01226507017
0.01704479593
0.01420339219
-0.009164996413
0.0104777295
-0.01157330556
0.02738414223
-0.03053366816
-0.03751214643
0.02199714863
-0.02751644637
-0.02300507867
0.02852437641
-0.02258160438
0.02114849016
0.02209776418
-0.130159686
0.03340866929
-0.03575990997
0.1325109267
-0.1267616312
0.1288541826
0.0405928907
0.02531712754
-0.07077877759
0.01083630812
-0.04223802321
-0.01114587512
0.04254759021
-0.04558210615
0.04605440118
0.01211854493
0.04776104742
0.01119391384
-0.04671581704
0.03134580726
-0.00692434106
-0.03156374089
0.00714227469
-0.006984476309
0.0073814969
0.03209895689
0.03110953152
-0.008395217055
0.006548139691
0.06640561134
-0.01261898433
0.06508393174
-0.01258809315
-0.06558592822
0.06551940008
-0.01131961689
-0.06596040169
0.0117606185
0.04817294733
0.01011260446
0.007822556205
-0.04556329236
0.00836347342
-0.0438000924
-0.008425427145
-0.02582962621
0.00531468448
0.00773199918
-0.02887674919
-0.008071798074
0.03473781954
-0.02672300137
-0.0002828189981
0.01714966959
-0.006838063846
0.006972774279
-0.06087021674
0.01595256118
-0.0008578260708
-0.03322453657
-0.003787396921
-0.0002394506316
-0.03239499124
0.03258662493
-0.007441407228
0.004705657784
-0.03057464149
-0.006526007533
-0.02542648038
-0.0002683463446
-0.03331359924
0.03333978293
-0.006933603832
0.03413641401
-0.00688530771
-0.03419861417
0.03307773653
-0.006544386409
-0.03318352372
0.006650173595
0.01653175407
-0.07994908829
-0.0173096906
-0.07702972003
0.01897776217
-0.02005317159
0.07810512945
-0.08005762414
0.08158317275
0.02253855809
-0.006646353596
0.006966869416
0.03399302087
0.03323974537
-0.007661401189
-0.007231842414
-0.03369243627
-0.06548452044
0.02572358798
-0.02694586356
0.06670679603
-0.06178152211
0.06297297138
0.02992872403
0.01920603638
-0.03555923113
0.01491398377
0.04569599577
-0.0007415985457
-0.04617803645
0.04584605454
0.01524596568
-0.04520180202
0.01602191782
-0.03081246673
0.0310760387
-0.0002635719718
0.01027965902
-0.04078774756
-0.0003043781942
0.007154775038
-0.03562861826
-0.007131793614
0.03317968587
-0.03206360106
0.00603869023
0.002942052382
0.03543618744
0.02197311674
-0.0001322136923
-0.006348966381
0.02839085445
-6.877132821e-05
0.03399198587
-0.007401706521
-0.006004040958
0.03552027233
-0.0356548481
0.006138616733
-0.005911403406
0.006119977839
0.03604529875
0.03757212717
-0.006640648842
-0.007552518985
0.04592528042
-0.000349822371
-0.03955054042
0.03862218842
-0.006624166988
-0.03857893558
-0.004762149804
-0.007297755781
0.00574907739
0.02981341392
-0.0318198399
0.03215584112
-0.007633757001
-0.008069712602
-0.03310183423
0.03512466772
-0.001787425111
-0.000235408381
-0.03045540905
-0.002327955401
-0.0003184697759
-0.03671481863
-0.003718293085
0.002364853081
-0.03469657929
-0.004383092418
-0.02954539478
-0.0001548058513
-0.02359511528
-0.00656915632
-0.0002911374545
-0.02339577899
-0.0001993362847
-0.004259875919
0.004412892524
0.0391348513
0.0423217138
-0.004483618367
0.03928672249
-0.005871886405
-0.04001740858
0.02474552293
-0.0003188500268
-0.03175353859
0.03908088282
-0.007077472031
-0.000249872194
-0.003701397364
-0.000315630585
0.02991843087
-0.02869633752
-0.004886330091
0.03218259704
0.03353189555
-0.006112116224
0.007796362559
-0.003576342392
0.005343185111
-0.006640709025
0.01404318467
0.001118348928
0.006678013634
0.007304547825
-0.03286986027
-0.007255524995
0.03926332101
-0.03166545905
-0.0002933141427
0.02659170081
-0.02013263382
-0.0001657665585
-0.004902973485
-0.0001707847541
-0.006560136076
-0.03176332622
0.0186812736
-0.01944611178
0.03252816441
-0.02971393724
0.03064405342
0.02106703245
0.02660580242
-0.03233485077
-0.047049715
0.04316855478
0.00407304576
-0.0001918855342
-0.05515450844
0.008436601814
-0.0003318083738
-0.04188803834
0.04149430672
0.0004812453753
-8.751375134e-05
0.001467957516
-0.0001874410793
0.0006646495033
0.04087102562
-0.0001984408056
-0.04627704736
0.04532704731
0.001614649557
-0.04743045209
0.002071503928
-0.04448565858
0.04378951177
0.001322077427
-0.0005632052298
0.001404593955
-0.0001205947238
-6.608488229e-05
0.038463534
-0.0004648082796
-0.04347497268
0.04430888516
-0.0008999973553
-0.04288693686
-0.0005602467366
-0.04516594343
0.04521769333
-0.003613084413
0.0009580482867
-0.001815106562
-0.0003758967273
0.009406322879
0.04839630242
1.690439398e-05
-0.04723357193
0.04901328126
0.007626613553
-0.04425617783
0.008800335052
-0.04864360511
0.003126478921
-0.004772819168
0.005142495318
-0.0002282384819
0.0001218356346
0.0374958356
-0.0001076042346
-0.04141059575
0.04180636665
-0.0002739352651
-0.04100221262
-0.0002111762606
-0.04234541692
-0.0003785332889
-0.0002608765183
-0.000278173753
-0.0004630848889
-0.04157690275
0.04270501875
-0.0007447730357
-0.0003833429655
4.924422497e-05
-0.0001318402591
-0.04616842705
0.05388342752
-0.007392173414
-0.0003228270626
-0.003304401239
-0.0001590070551
-0.01749877464
-0.000232503847
0.01890715835
-0.0004075451894
-0.00750910046
-0.0003067425554
-0.008570586118
-0.0003491050435
0.03615621746
-0.056409744
-0.0006892518191
0.03768404871
-0.001527831247
0.02043350781
0.04444803675
-0.0007691429725
-0.038097797
0.05670731122
0.02583852253
0.02600662256
-0.03574869917
-0.03583188783
0.03645903143
-0.0006271436016
0.02142861043
-0.0005531870367
-0.001749562986
-0.000259939478
-0.02204658322
-0.0003906652604
-0.005954223346
-0.0002566897667
-0.02910530156
-0.007423563272
-0.008967216886
-0.0109545707
-0.03271094159
-0.007601061624
-0.0002645574371
-0.000264675782
-0.005067990014
-0.0001913804852
-0.04446986131
0.06118319544
0.01634253087
-0.01386981281
0.01524600603
-0.0002983776226
-0.01206360836
-0.04669837308
0.01202227385
0.04405494231
-0.04583889165
0.06081699239
-0.04888400936
0.008595355732
-0.0004990939237
0.01293860984
-0.0006394237612
0.002958324005
0.0349781937
-0.0001754786481
-0.04005400388
0.03883827317
0.00417405472
-0.04105744123
0.002232949171
-0.03897179786
0.01071289782
-0.008389410791
0.008255886095
-0.0002089249542
0.0005096229785
0.03948353944
-0.0001605827321
-0.04311736717
0.04246028347
0.00116670668
0.001227573115
-0.04182344125
0.001445913802
-0.0005718456266
0.001208687848
-0.0002606421823
-0.001248455425
9.540225011e-05
0.04075900653
-0.04008066289
-0.002263382147
0.04109558961
-0.03916356226
-0.002724765358
-0.03601649715
-0.0002691244156
-0.0002673583569
-0.0003892680375
0.02392772962
-0.04985375214
-0.009650571735
0.02417896267
-0.0002512330422
0.03116879417
-0.0004463435447
-0.007700231176
-0.0002680060216
-0.02506366358
-0.007060837052
-0.0001281360127
-0.02469655852
-0.0003671050519
-0.009773999018
0.03663185399
-0.04327302313
0.04024684128
-0.006747817163
-0.005797119859
-0.03881601805
-0.003947206144
0.007191530561
-0.005760707334
0.04385441433
-0.03603033546
-0.0002684720659
-0.00936217102
0.0211529843
-0.007801591659
0.02145740094
-0.0003044166416
-0.02768471556
0.03083508253
-0.0002083145872
-0.0001886243932
0.002992766926
-0.005258811874
0.03167656591
-0.0002929445304
-0.0003629800586
-0.03673347114
-0.006632983357
0.03644510617
0.009345659149
-0.007456941872
0.00393495447
0.04339613457
-0.001734097972
-0.04536903559
0.04395587169
0.005348118373
0.005560240863
-0.04665183353
-0.04314680761
0.007887620405
-0.00541467031
0.006223734389
-0.003408468658
-0.03978926645
-0.0005583004568
2.631997039e-05
-0.003231371405
-0.04802464728
0.005929072435
0.04122306014
-0.04404158169
-0.0004128498564
0.03775854519
-0.0001894254456
0.04973758027
-0.0002580077225
0.006056599532
-0.0003606009494
0.00765941972
-0.05878522549
0.01023912779
-0.0002661022667
0.02925805306
-5.886617536e-05
0.0296375386
-0.0003794855452
0.01246564206
0.0001612745317
0.03730534697
-0.0002784461448
-0.03986802478
0.04025873189
-0.0002294325734
-0.03934212968
-0.0004850047893
-0.04057541705
-0.000156682365
-0.0001294125728
-0.0001872725886
-0.0001014796974
-0.007554678461
0.03376168707
-0.0002227458666
-0.03792914434
0.03761700595
-0.007242540076
-0.009700702853
-0.03860044144
-0.001297174905
0.002240952559
-0.003224388047
-0.0002608963728
-0.03915506371
0.04704039378
-0.007784642298
-0.0001006877671
-0.003871565247
-0.0001588307455
-0.006338845711
-0.0002080062556
-0.03395243308
-0.007082991923
-0.009535800037
0.0005030135605
-0.03930230545
-0.001924262073
0.03517891887
-0.03445982378
-0.0002160815224
0.03670280825
-0.0003405464217
0.03353383993
-0.0004016272827
-0.0006260947828
-0.0002998890759
-0.002200228965
0.009912103099
-0.04143525828
-0.007527566563
0.0352099327
-0.04869360859
0.03593810102
0.04066421529
-0.0003056628187
-0.007810157918
-0.0002192353855
-0.006512871892
-0.004011811552
0.03436951668
-0.000220514733
-0.03489441515
0.03644820277
-0.005565599178
-0.03261247
-0.00524966306
-0.03616454425
-0.008185345489
0.03480210504
0.0074885763
-0.007204917781
-0.0002696764572
-0.03511545247
0.04284263867
-0.00749414396
-0.0002330422334
-0.003974425057
-0.0003059448854
-0.03143311636
-0.007117765886
0.02070325613