/*--------------------------------*- C++ -*----------------------------------*\
| =========                 |                                                 |
| \\      /  F ield         | OpenFOAM: The Open Source CFD Toolbox           |
|  \\    /   O peration     | Version:  v2012                                 |
|   \\  /    A nd           | Website:  www.openfoam.com                      |
|    \\/     M anipulation  |                                                 |
\*---------------------------------------------------------------------------*/
FoamFile
{
    version     2.0;
    format      ascii;
    class       volScalarField;
    location    "0.92";
    object      k;
}
// * * * * * * * * * * * * * * * * * * * * * * * * * * * * * * * * * * * * * //

dimensions      [0 2 -2 0 0 0 0];


internalField   nonuniform List<scalar> 
3259
(
36.99446419
36.99443778
36.98828959
36.97851816
36.96938411
36.96249625
36.95857782
36.95616516
36.91007616
36.90915067
36.90870177
36.9084261
36.99291886
36.99500805
36.96739063
36.92015555
36.87510473
36.84101085
36.79789272
36.78410679
36.73235442
36.72950135
36.72807349
36.72731408
37.02642987
37.03232679
36.9890275
36.90535464
36.80482337
36.72745397
36.65220797
36.62113145
36.56048869
36.55362387
36.55039187
36.5490674
37.14329526
37.1477911
37.07942368
36.95636119
36.80753993
36.66244228
36.53512448
36.47458654
36.39535953
36.38265095
36.37635509
36.3738697
37.43254776
37.42623106
37.29751623
37.09747852
36.87779896
36.66897729
36.46254107
36.35039626
36.24075653
36.21661906
36.20533328
36.20090572
38.13572736
38.06878368
37.73866869
37.37897955
37.0348085
36.73101313
36.44352562
36.25399107
36.09834191
36.05529942
36.03648535
36.02905363
39.84319333
39.66300497
38.56705876
37.85045106
37.29439743
36.85280022
36.46215749
36.1906627
35.96717797
35.89909115
35.86934429
35.85766106
42.3097564
39.93020274
38.53346785
37.65698777
37.03148353
36.51235621
36.15605812
35.8498324
35.74892043
35.70457502
35.68734718
46.67685023
41.62608614
39.36416517
38.09534827
37.25252403
36.58489373
36.14349194
35.74625869
35.60678322
35.54458674
35.52063039
49.81443909
43.18084553
40.20232547
38.55513311
37.49245927
36.67167431
36.14691126
35.65755654
35.4757654
35.39315024
35.36131573
51.39238731
44.34737013
40.93087955
38.98060534
37.7248401
36.76068751
36.15832966
35.58247539
35.35820087
35.25406975
35.21355926
52.07408751
45.12262186
41.4941508
39.3354719
37.9287486
36.84207712
36.17043699
35.52123268
35.25466088
35.12940357
35.07987913
47.15655107
42.66455967
50.64586766
47.59809517
52.32660797
50.9426177
53.01113925
52.4408158
53.05108886
39.78173374
42.22459101
39.59260143
50.3183061
44.10316406
46.18146208
42.02061017
40.44809243
55.11371663
56.08586607
49.52243394
43.96596953
42.54378009
54.41187886
53.87416933
51.26388149
45.38382245
44.37610831
55.61715384
54.95022162
39.68132525
56.29405088
56.07518145
55.95287307
50.6318775
45.1815046
49.7543113
54.63055622
53.93504937
54.95617512
49.30545385
55.73258433
55.14219612
54.85048299
55.79130728
49.06805853
54.82619914
54.48838289
51.86116434
55.63448832
55.84144118
55.11377829
55.58543964
51.67430752
56.04011664
55.68432882
40.24690667
40.84007812
56.32297988
39.66678574
59.94858649
46.41631999
45.40648821
52.03427488
46.28433715
45.65512724
51.17486689
50.19233527
48.82915793
43.73194104
48.86399754
44.58392756
48.43986609
44.85222178
52.80674073
55.98723955
56.10718945
55.85715924
55.97258444
52.73694687
41.33018656
43.64580801
41.39919358
41.38995366
63.99261065
47.51540541
59.57288283
45.65171741
56.46632476
46.72269526
56.18520963
56.26280278
54.08309813
54.04878247
41.18784505
43.67537919
55.37574695
41.52713888
43.44836504
44.99020706
41.57905368
55.29578158
52.73991237
50.93421773
46.91643829
53.90191018
53.5193286
54.52611064
54.61925405
55.43541991
53.07533729
52.46706287
53.69175857
53.24666521
55.39003676
55.84522288
51.13133796
50.12302363
52.23573088
51.43130382
55.89964812
54.95417152
45.50816001
54.8986864
43.9590425
47.73374523
55.85920429
44.17356369
41.24132582
52.33550984
53.23783978
58.40020871
39.9618973
40.24240155
52.34420674
40.48462971
42.7951394
42.91758108
45.66128842
42.68180671
42.95731746
55.64789664
58.16238684
57.24491728
56.32375874
54.20776235
45.79975399
46.26394132
48.44406118
47.70032769
53.79747789
55.24977554
59.10014221
58.39254866
52.11938147
48.0948931
46.70866227
49.74989222
48.53230264
52.47084549
54.15546489
49.61593826
48.77062163
54.70891349
46.52066565
46.86568897
54.66355488
55.74932793
54.54818678
54.43729648
55.16816857
54.11692964
53.81168457
54.39187016
54.19495502
55.18437965
55.9038822
48.26104339
51.66823825
47.56493795
53.99613444
52.91654105
52.99201976
45.65576814
45.70231888
40.68343832
40.01035514
51.4037982
56.10342354
47.59048152
56.51562148
42.51329509
40.59326216
46.56125859
44.91805969
48.27462898
64.57615091
53.87867584
50.50889171
57.51211039
54.62433934
49.86200098
47.0489117
51.74991346
55.53585034
54.97327805
55.85241504
56.34040762
56.94551045
55.91735589
46.57075443
45.94284161
54.1491152
46.65587586
47.10721214
45.31784209
46.39286641
47.26742863
53.84349301
47.58091908
46.79614941
41.29512761
41.53884715
41.81510232
51.42705606
50.65129837
42.86332336
49.04022314
47.74310733
50.34279496
49.44750691
42.40536595
41.23330333
42.75350048
41.23554727
58.71768015
58.37449624
54.92181638
59.81752392
60.49582142
60.74168114
59.41046858
58.36630707
60.68801764
59.30399436
52.29077121
57.52208841
58.75337528
50.73685287
49.81125486
54.24408095
54.72092186
52.08928164
51.07923898
45.48877652
44.70106994
47.3604474
45.98160189
46.07428285
44.29669789
45.02886707
44.452075
44.11748709
48.2766756
42.5901627
47.56704254
44.46326482
47.35871368
42.11659419
52.09578027
41.91399409
39.96580654
38.78464599
50.38841363
50.04700511
46.44967141
50.30598312
56.11457813
56.00918468
53.18723649
44.63891059
44.13182026
46.57410083
51.23983306
44.58766377
44.6905986
40.89256863
41.22058798
43.40975783
49.02290884
52.23304202
54.81932299
45.1521897
43.38771445
40.40991888
52.24591092
53.59579665
56.19959036
55.55840221
57.24763393
51.91230851
44.96516959
42.05846931
53.18713012
48.41771684
45.68612105
60.38818962
45.35946902
41.06556507
42.06151096
50.62206144
40.45800243
41.3437278
50.39078103
46.22923884
44.74948922
46.53292076
47.07714384
40.42767623
40.31787259
42.42822517
42.67580401
45.11749312
61.46388963
57.29312988
55.01502216
64.4164957
61.99918772
41.14594844
42.37038233
41.75734922
46.47598259
45.84275175
42.45037127
52.38184959
51.69695273
42.0796753
45.0867147
42.30078266
42.47089765
43.86790438
40.01890762
40.35071056
45.73643123
45.68511323
42.76895317
43.07498706
45.45536413
45.80009934
46.15605017
54.71928712
47.04112091
48.34932621
52.48253753
50.29638166
49.79913915
43.07433575
42.08841003
40.08888505
53.58637511
52.64354521
57.35093467
40.94792179
48.84916432
45.50771778
49.08977288
48.35728376
41.68403572
43.78174668
44.3948411
47.98904348
53.77060611
54.08876501
53.2794325
53.53233047
57.89749621
57.14014683
57.35707738
56.68401419
56.90992514
57.54793825
48.17247203
48.60040902
48.81431394
48.27164695
48.39796724
48.0388965
58.82430816
57.81404552
57.78864198
57.56278675
57.72959594
58.61239824
49.21863204
49.52511624
49.7653785
49.04628091
49.27834742
48.97973085
52.63859947
52.81500288
52.01434083
52.19307687
54.74388119
54.14800076
52.54975131
43.91936679
54.63143537
57.56610896
62.80775882
57.9342977
59.27448547
55.87973716
48.89706837
61.54345744
56.53055338
45.87344858
46.12086019
51.47004537
43.4402543
46.27729357
53.21393801
48.02206994
49.05466291
47.57956427
60.90266685
57.736695
61.18538204
56.40105228
58.86852108
61.21421935
62.39585591
61.7268775
55.07503472
55.20026855
55.4247643
54.65441362
54.78279626
54.8213856
56.58575135
56.2072112
56.44082128
55.70966834
55.94136102
56.25006271
46.35381405
49.07603572
49.06956329
46.78014253
47.03050503
45.68378746
46.69615887
46.47653966
46.25174986
47.64060659
47.97788523
47.16332938
48.45510194
48.25649538
49.00383784
48.79224796
46.96920931
45.78780359
43.77079162
41.14293241
46.95088467
46.7650773
46.59814624
41.95925527
45.97231651
45.60459189
42.37925182
42.28028244
43.73266898
58.61793956
57.41055575
57.28471971
57.6099602
57.58371503
58.51412229
60.15227914
60.27800155
59.16146709
61.85817111
61.81520485
61.65068295
61.81607982
58.96699893
60.79480955
61.39448268
62.97881042
60.7855755
50.48969442
50.52719451
50.78492837
50.01665213
50.27160043
50.11666933
51.71170364
51.46933979
51.64188481
51.04076929
51.27470558
51.45042243
45.16213479
45.34040446
45.64490592
43.4956201
44.1154615
44.51265633
46.06850232
46.07280017
46.2958974
46.31909436
44.77874088
44.21687146
44.75575427
44.26204775
45.77083588
45.56559319
44.08429706
46.94363903
41.1574582
41.72360814
40.62408534
40.83039964
47.24632907
46.51869984
46.31089054
42.42114119
44.13294144
47.70522233
51.58006745
37.00370183
36.98428768
37.01228708
37.02062944
36.99797224
37.01788368
36.99237503
36.97866335
36.97888257
36.92320638
36.93293237
36.90294805
36.83566905
36.88603353
36.81669837
36.76497092
36.84871456
37.0909298
37.01703054
37.1032372
37.11390469
37.03541893
37.10843087
37.06804927
37.00406723
37.04745672
36.9672849
36.92794104
36.93636255
36.83583935
36.82787188
36.80180725
36.70072463
36.74302709
37.32089042
37.12977733
37.339201
37.35225237
37.15304959
37.33545074
37.25996257
37.10291929
37.22591254
37.09979578
36.99044937
37.05182991
36.90255062
36.84602242
36.85269684
36.7090209
36.69634203
37.87138737
37.41004256
37.90250553
37.90745084
37.43262424
37.83924428
37.6686996
37.33910543
37.59866263
37.37142217
37.15159807
37.29271317
37.06091022
36.9326924
36.98642178
36.77726754
36.71999012
39.50264642
38.08466925
39.52337438
39.30975865
38.07887067
38.98874462
38.48708578
37.82597226
38.31431909
37.85127937
37.46936339
37.71204643
37.333908
37.11751999
37.2194958
36.91004319
36.80361868
40.90564795
40.9780678
39.85300848
40.42310598
39.77066627
39.33023072
39.54033366
38.59160361
38.01146481
38.3445455
37.72979215
37.42176273
37.55674292
37.11038692
36.95371728
43.95283258
42.70058237
41.48438525
41.19952437
39.54480188
38.81452616
39.15165355
38.22890135
37.84738014
37.98190516
37.36585631
37.16991244
48.06385848
45.58071373
44.53125332
42.82460368
40.53802566
39.79536043
40.00176881
38.76564169
38.36159787
38.44187867
37.64873433
37.43507025
50.55903834
47.64969697
46.99242044
44.0941425
41.40731701
40.77010599
40.76350268
39.27124042
38.89663569
38.8801603
37.92745055
37.7197076
51.7359407
48.81603961
48.49336676
44.95878112
42.08194366
41.59515582
41.36986283
39.69694797
39.38589398
39.25481729
38.17552525
37.99260107
52.22492393
49.8551399
49.73916033
42.21754895
39.78769605
38.22972288
46.45094733
47.68041357
48.79454383
42.91822891
43.67918553
43.2661502
50.31099657
52.17858886
52.64491447
49.1412641
50.08939707
48.26560858
52.18184025
53.76177401
53.99759608
52.77199926
53.12452421
51.21535102
52.94250193
53.93547861
53.98484912
53.60827642
53.68468659
52.55362436
54.0184187
54.06449392
53.10686205
49.68884583
50.84281904
51.10939585
40.95422609
51.17246446
48.99368551
41.69996855
41.84636718
42.44697401
39.76034346
40.91703353
40.62715513
49.80794696
50.45740258
51.00726761
44.6334936
45.27100467
44.88105947
44.20799372
43.0120451
44.49824204
41.48966153
42.42998952
43.0811049
41.12935225
41.77236567
40.95977264
55.27451581
53.99407363
53.73134564
56.96968092
56.911374
56.19111455
46.73647206
45.87988846
48.45699607
43.52293829
44.86986705
45.37621192
43.71517719
44.31119203
43.04546037
54.32593147
52.66259164
52.82555707
51.69860882
51.59121788
53.82482639
48.33042206
47.85393694
50.7571914
45.08493085
46.61041231
46.92235927
45.83849663
46.24471415
44.74684907
55.53872422
54.13336432
54.3776684
51.12277673
51.80645274
55.07300664
40.09416152
39.89611261
39.81864216
56.21403803
53.97190909
54.86562138
55.70798251
55.80927022
56.11759087
55.7759628
56.97702684
56.98956698
51.54439761
52.0914728
51.10730725
46.03385934
47.28201754
45.9191417
50.29764391
49.02347334
48.39982236
52.26002886
51.78528798
53.79172124
54.00150388
51.95637434
51.82395249
53.45156372
53.22020019
54.82883888
51.38676364
52.00492814
49.72236256
55.57286992
54.87812402
54.75962046
55.72350734
55.66019441
55.22989294
55.38336454
53.08536772
52.66884972
54.66181106
54.42881042
55.9247582
48.44726519
50.37182576
51.16184258
54.68488264
50.02681596
50.89151631
52.93586001
53.03608628
54.55234066
53.54035348
53.71881397
52.03690152
55.67685558
55.99727773
55.9948908
54.64274133
54.56968885
55.77187812
55.08390633
55.82251644
55.77962061
55.9908519
55.98404922
55.2771045
51.45390998
53.21723994
53.47542832
55.99436356
55.49119625
55.60782918
54.57574964
54.7556881
55.75095643
55.10896395
40.50257361
47.32739048
50.8414594
48.55957502
49.60243528
48.96179531
51.80985816
46.10272066
47.64816085
47.82257946
47.20186337
47.43544546
45.8895128
49.42344163
41.83419776
43.50236793
46.06853029
46.45051367
49.264333
45.64016455
44.28349598
43.11200449
47.72008999
47.08821347
48.20674736
43.84611494
44.29251402
45.59468039
48.00168143
44.89035167
45.43180418
41.50378434
41.93653978
45.39305108
53.84953495
53.90046506
52.89090007
56.04532727
55.04479944
54.73191473
55.05621188
55.04758389
56.05562501
55.91088344
54.69804122
54.66191245
54.73403212
54.7107128
55.92585724
52.64117477
53.74244084
53.80179124
42.30859114
43.15079095
43.37721367
43.7799718
41.3267171
42.23530194
42.07403694
42.35361701
42.35597719
41.31603786
48.8753973
51.49427675
48.66917725
50.04285404
46.57478968
45.11103135
53.87830738
52.46770437
55.9688018
45.49310857
46.76946939
48.3333001
55.93520327
55.79925805
56.11941608
56.30220219
56.28597511
56.16469562
52.26218838
52.27316498
54.10116292
53.99454497
52.08238556
52.21606187
53.57611364
53.87523623
55.45977695
41.59878252
44.07117056
43.5348326
47.2710896
46.81646353
42.96876838
43.06394884
42.7749779
41.767677
55.17868557
52.04410795
52.36771275
52.18581199
47.95229644
48.88122775
44.19343529
45.44042616
51.57402838
55.47660974
55.78070672
54.2487122
53.12971187
54.66205198
55.09019694
52.8343539
52.68746331
54.43075672
54.68917585
53.04832649
52.96553994
55.3961954
55.28210584
55.53582165
52.88521683
54.0912477
54.25914384
53.68339394
53.90557258
52.68666045
53.55357106
54.68185158
54.79694756
54.41317722
54.55463843
53.40957566
55.2697572
55.58365222
55.49760134
53.78704799
53.42277599
55.52525429
50.81414877
51.988162
52.31956242
51.24709243
51.63003591
50.47716042
51.98212733
53.19805881
53.45856359
52.63787082
52.92072179
51.71703695
55.9467398
54.38235154
54.0535354
48.74955804
49.66805592
55.2360332
54.84046366
53.51389746
53.63080737
45.69666985
52.2499585
52.56732316
53.13227123
52.72275815
46.25364112
55.80345772
54.92452285
55.08307753
43.60498335
40.88407919
41.10403157
41.31966668
41.01889749
41.38395006
49.73745452
39.96193144
41.30924865
40.66204066
42.73465602
43.46288479
43.94918063
43.47703906
42.61996241
45.8465402
43.84283471
44.7534605
45.12482026
46.18639427
42.81918025
43.73514469
43.42752348
43.94271643
43.87473494
42.9122886
54.67802009
54.31102143
55.45936462
56.26638803
56.81513108
56.71505463
52.38074124
52.51677519
54.24559148
45.79860956
49.43607091
49.18996204
50.18584944
49.80670198
45.94400203
53.79471529
51.5088316
51.50489605
56.64697209
56.84613411
55.53681836
50.23764115
49.61596004
51.18121017
47.64404672
48.47120746
48.99240872
47.39612481
47.95006126
47.1831788
49.36074723
50.41191041
50.84453227
49.48427304
49.96372511
48.95407303
53.46954553
51.30660777
50.77761012
52.23763091
52.09748257
54.07812179
54.72603869
52.99378942
52.89947536
46.66439111
50.59082526
50.43615419
50.81024905
50.69878934
46.7629837
54.6085929
53.10603222
53.19218079
55.99606245
55.99714125
55.71057869
54.51447585
55.41578853
55.42600082
55.3759906
55.3989741
54.481828
55.89287083
55.86405702
55.09515568
54.02315513
55.07235752
55.14335212
54.90012582
54.99171518
53.92647509
54.33221448
55.30747077
55.34597838
55.20646403
55.26161045
54.27159219
55.24310056
55.94753683
55.92961304
55.22887074
55.36763359
55.9543673
49.14617413
53.82040871
53.52419215
54.39235634
54.11540264
51.0703495
49.78929204
52.17849965
57.81173174
40.42300999
39.86983985
39.79944942
40.21587631
40.00154347
40.14004437
48.74546079
41.56495715
40.47422564
40.48370913
40.62580667
40.51131246
40.92831784
46.07680165
42.47464518
43.0537454
52.53157367
54.79102968
56.52042198
52.36083099
54.03881735
51.83522337
57.39514601
58.78324828
55.82637683
48.63677909
50.07358681
51.54913893
47.99980291
49.14989638
48.03928648
53.22650694
50.75817949
49.68829112
55.99945431
55.44151208
55.12708822
56.57873283
56.4614797
56.33348178
49.10257007
49.07059951
46.12677335
54.13060707
52.28439457
52.31649403
51.62277033
51.85411541
53.920098
45.08930274
44.61222154
41.7038872
51.19910051
48.44448149
48.83779954
47.48270174
47.98467882
50.90391399
48.62624896
44.64246979
45.1652102
43.85392914
44.15991044
48.15136945
50.08765402
46.48784535
46.95850453
45.65436381
46.05842316
49.73044556
42.0872419
42.5986096
42.49403431
39.72912637
39.85492444
42.3541352
42.31616496
40.07237334
40.31787731
39.82357525
39.89689485
41.60025701
54.592919
56.09693919
56.36589181
53.64383943
54.15781837
52.70815463
58.15504732
56.18424338
55.63756349
57.03752513
56.68851579
58.60342735
54.33356713
52.53707361
52.38745427
52.95864301
53.04807414
54.72627343
45.13611755
43.33205789
43.20992625
43.87566693
43.60634994
44.90859347
46.98292648
43.50434862
43.65209772
43.22108822
43.35328493
46.52166625
40.76022299
40.7919101
43.03931195
41.70346975
40.85020968
40.75577038
41.24596716
40.5071025
40.68248749
39.52513279
39.92275026
40.51065625
39.02244735
39.45290726
39.13122243
47.97484433
48.10590437
46.58492202
56.20124121
55.07497134
55.06107135
55.10873057
55.08562123
55.98708518
44.36056365
45.20990104
45.54717645
44.59967973
45.16672448
44.11761078
49.7612045
45.94148485
45.86032634
46.84527915
49.09904958
54.95393712
44.65588294
45.54174293
45.2709145
45.79951718
45.75915698
44.67474024
41.84464276
41.6479485
41.15308262
42.83396429
42.10827035
42.21284885
49.42524105
49.93957755
49.52167947
53.17525502
51.35734772
50.65013848
52.73130913
51.99399671
53.91852642
44.57068955
41.70860098
42.23297875
40.71273458
41.14889802
43.95329587
39.97572448
39.76704924
39.72482811
52.7057667
54.86920993
54.63786161
55.26612886
55.07260027
53.17388611
56.29656941
54.04565275
53.37006892
55.13612384
54.56986116
56.69450456
51.45122018
52.60924043
53.12534844
42.90408196
40.64075643
43.20881532
42.7588734
44.36842118
43.89842259
40.97274385
49.56636002
47.21149742
47.14373631
45.73768393
46.27971606
46.84462519
47.24709959
46.3589971
45.74504661
43.67354541
44.27010132
47.54664083
40.26991368
41.1942821
40.89316623
42.11223223
41.68313537
40.27208787
42.50021021
42.8209754
42.74515823
43.07396923
43.03221696
42.57118876
44.31121169
43.4818636
43.93624295
52.16313192
50.01244151
50.25153509
49.25079427
49.59951364
51.91438068
42.45022464
46.19595077
45.65699194
53.27867627
53.39330435
54.7755278
47.36386846
51.18348453
50.96458486
51.68730473
51.45310952
47.85232283
43.90829116
44.56853645
44.33303714
45.12612433
44.87931472
44.16028445
46.9076233
45.64865248
46.05623048
36.99170983
36.99548648
36.9952703
36.99177271
36.9821992
36.99207283
36.9688793
36.95379244
36.98355692
36.9383133
36.92354473
36.97369739
36.91038161
36.89941286
36.96567118
36.89116664
36.88300863
36.96037438
36.87715805
36.87293988
36.95724139
36.99588688
36.99978204
36.99491984
36.99984463
36.9960574
36.99304194
36.96877241
36.95463688
36.95635022
36.90983106
36.89373263
36.90874677
36.85255027
36.83949945
36.86590094
36.75295503
36.73700236
36.80696251
36.72231942
36.71077581
36.79015633
36.70250683
36.69828561
36.7798724
37.04570154
37.05242023
37.03258387
37.05160421
37.04426791
37.02596793
37.00327391
36.98315395
36.97044438
36.91111343
36.88363491
36.87982146
36.79830591
36.77118694
36.78191843
36.6734845
36.62115241
36.67509372
36.5886478
36.5646328
36.63475658
36.54722416
36.53704115
36.6114924
37.19565081
37.20455733
37.15206889
37.19837832
37.18347323
37.13803173
37.11859113
37.08857806
37.05242535
36.98203188
36.94256123
36.92056989
36.81776967
36.77635639
36.76951145
36.66304698
36.55330939
36.58150734
36.49121002
36.44481097
36.50088665
36.41122845
36.3898182
36.45562882
37.55968755
37.56877403
37.44704792
37.53942286
37.49844442
37.4110402
37.38043966
37.32786321
37.25239299
37.15264955
37.09168093
37.04288553
36.90825154
36.84900425
36.82395482
36.712013
36.55333992
36.54782082
36.44345511
36.3600759
36.39782766
36.30004082
36.25914052
36.31739392
38.45720036
38.46127803
38.15926114
38.28909013
38.18822095
38.01477087
37.90302166
37.79493744
37.65002012
37.47703686
37.37581431
37.29015524
37.08949959
37.001091
36.95489403
36.81869372
36.59348516
36.56728273
36.4490351
36.31798634
36.33437648
36.21932049
36.1482395
36.19712433
40.13014018
40.18000026
39.93589007
38.85525818
38.61132974
38.36737312
38.00229852
37.82949705
37.69923438
37.37568517
37.24317745
37.17433646
36.98351076
36.67417335
36.62893603
36.4842999
36.31805506
36.31498518
36.17069965
36.06081176
36.09839449
42.84629608
42.54735582
42.10494834
40.34337136
39.83836738
39.49941655
38.73351754
38.4519587
38.28219352
37.76137255
37.57035332
37.48178876
37.19504622
36.7915843
36.72871376
36.54654099
36.33809754
36.32573438
36.14718624
35.99506787
36.02343599
47.17152425
46.33107719
45.89453583
42.04301935
41.24657416
40.89597778
39.58011284
39.1736768
38.98878736
38.21090861
37.95274411
37.85420197
37.43239603
36.93266853
36.86010146
36.62750368
36.37148967
36.35309055
36.14420353
35.94839265
35.96906765
50.0869174
49.0482377
48.77763795
43.51191014
42.51422109
42.22228213
40.39947695
39.88214323
39.71041301
38.66634775
38.34369911
38.24787906
37.66926591
37.07943654
37.00619943
36.71680891
36.41357371
36.39125428
36.15298176
35.91713133
35.932315
51.52460214
50.51350975
50.37117161
44.57367853
43.47977434
43.26765516
41.08891403
40.49158964
40.35064125
39.0773854
38.70105042
38.61654975
37.8823477
37.21620073
37.14969879
36.80319079
36.45829509
36.43512596
36.16627073
35.89685901
35.90832168
52.13820661
51.1839258
51.13670688
45.26115161
44.13973947
44.00058047
41.60789971
40.96057786
40.85696975
39.41071144
38.99537864
38.92858266
37.27703721
36.47801066
35.89136315
40.1622275
45.44612189
44.97535269
45.62708664
48.49645415
48.18652955
49.20221817
50.24148151
50.07524526
51.10723566
56.26534305
56.16548559
56.22711394
53.64664995
53.38900627
54.3781875
55.67542832
55.72900522
55.71809279
55.65843895
55.66651688
55.16567843
55.05071233
54.07625044
53.84632139
55.70752616
55.68654269
55.84499415
55.9833941
55.98696362
55.82597772
55.09763832
55.65224579
55.6547602
56.27507686
51.06513386
51.00700901
51.95852178
44.35882725
43.9475199
43.58062136
56.01248111
55.91637017
55.91370629
55.84011456
55.85293119
56.08707458
55.87632481
55.97069024
55.97540191
55.92726488
55.9335559
55.95315788
41.26039909
41.59722465
41.60003918
41.60427538
41.61358328
41.39758328
47.02283405
45.97515029
45.26986769
55.73321627
55.739504
55.47169849
55.34978709
55.71589483
55.72481672
55.08030856
54.93008961
55.75327384
55.95146266
55.32772228
55.1976792
53.7494096
53.82550838
55.00067725
44.50692547
48.20975845
47.81246089
50.37267298
50.07045463
47.27805049
51.63173087
51.35481642
51.76483077
52.80776794
52.1510457
51.84965802
55.69863328
55.68550783
55.14076035
55.20510705
55.72924358
55.7130542
48.58837118
51.02149059
50.71086166
41.69997607
41.30104364
41.43464113
56.13098737
55.81679378
55.82778588
53.1414749
54.0988846
54.13768557
40.99208836
41.50100558
41.36421596
43.14033145
42.79782892
42.87914477
56.14357175
55.88962318
55.98167891
45.1485277
45.7045306
45.24318451
44.91283153
44.31055635
44.41859677
36.99432137
36.98810222
37.01793861
37.00729161
37.0022186
37.00970466
37.00976947
37.02069753
36.99795699
37.00223115
37.00221127
37.01217186
37.00233921
37.0072945
36.98438191
36.99477075
37.00385923
36.98464016
36.98853469
36.98026171
36.96159776
36.95666893
36.97223506
36.92132035
36.94112253
36.94418417
36.94419148
36.94035402
36.92389077
36.87876808
36.88324022
36.90308156
36.84804601
36.8666481
36.85753137
36.89656742
36.87991433
36.8650113
36.79719769
36.81645971
36.83282033
36.78961167
36.80326081
36.78086354
36.85658847
36.82875441
36.81787555
37.05934713
37.03539206
37.11110826
37.0778683
37.07058348
37.08043184
37.08115919
37.11499966
37.03558787
37.05572809
37.05533163
37.0984754
37.06845596
37.07637749
37.04122995
37.05677017
37.08515083
37.01670479
37.03384046
37.01994302
37.02327156
37.0005458
37.02258923
36.94962735
36.97640099
36.99659722
36.95066815
36.9613053
36.9367205
36.90366203
36.89148107
36.9215033
36.82985452
36.86111303
36.87033944
36.8546328
36.85641741
36.82728862
36.76709509
36.76630756
36.79874754
36.71041755
36.73715721
36.73220922
36.76191037
36.74721053
36.72516056
37.24038699
37.18082269
37.34877339
37.26829745
37.25723676
37.26476797
37.26931029
37.35481802
37.15497194
37.2094106
37.20743917
37.31104376
37.24651119
37.25833205
37.1982342
37.22517713
37.2880246
37.12279802
37.16607059
37.1445438
37.18718135
37.13334168
37.16757874
37.05614289
37.09610196
37.14499709
37.02275793
37.0555105
37.01974043
37.00233403
36.97022918
37.01410995
36.87848188
36.92473382
36.95255607
36.88391858
36.90195866
36.85993626
36.80363123
36.78783012
36.83275899
36.70121843
36.74410557
36.75578355
36.73280404
36.73645452
36.69747054
37.67102463
37.53646654
37.90990474
37.7231183
37.70367612
37.68576525
37.70922409
37.92470905
37.44358324
37.57803015
37.57308433
37.7741667
37.65470186
37.68066525
37.54008525
37.59807058
37.7290786
37.37787329
37.46739723
37.4277929
37.52480672
37.41799292
37.48075525
37.28616268
37.35288627
37.44900639
37.20375019
37.27142836
37.21273435
37.21467208
37.14872209
37.21760724
37.01147678
37.08004861
37.13742794
36.9880552
37.03048882
36.9688805
36.91423321
36.87903838
36.9443925
36.75400742
36.81567011
36.84453956
36.7714471
36.79140808
36.73545839
38.78776241
38.40953551
39.5704034
38.88610051
38.86950509
38.70717896
38.79273323
39.43337187
38.12212164
38.47974474
38.43114625
38.81923365
38.54283149
38.67109396
38.22981868
38.37034627
38.66729984
37.91534146
38.11056604
38.0095766
38.15160165
37.96121727
38.09411531
37.70825208
37.83259367
37.99750416
37.55990654
37.68732783
37.58128307
37.57999705
37.47218574
37.58791434
37.2537274
37.36078036
37.45411672
37.20295897
37.27742539
37.18169887
37.11093587
37.05322296
37.15123282
36.87005174
36.95960948
37.00779252
36.87793844
36.91634688
36.83516187
40.96545941
40.6055935
40.58017352
40.53593467
40.57320928
41.0397529
39.909856
40.24950421
40.22220745
39.18021742
38.88221586
39.1806394
38.38216971
38.61854177
38.86706327
38.18301694
38.39056788
38.18879138
38.12124736
37.96999857
38.16684657
37.61990471
37.78823645
37.91715996
37.55652445
37.6680931
37.51719021
37.39672873
37.31749379
37.46326565
37.05420739
37.18132547
37.24827532
37.06091102
37.11878581
37.00213748
43.52192098
43.02215115
43.33518579
42.23517055
42.60789569
43.05453684
40.54218597
40.18667931
40.76920999
39.29406565
39.70325851
40.00074206
39.13202217
39.41365406
39.05102085
38.80758577
38.62634544
38.93877874
38.09716423
38.34785503
38.50234192
38.05474815
38.19907149
37.97014023
37.75756537
37.66231744
37.8696855
37.29816185
37.47235594
37.55285981
37.31975921
37.39465891
37.23286105
47.14039609
46.74042202
47.62096753
45.23294337
45.94094072
46.30595598
45.17141562
45.56753971
44.91831339
41.91362534
41.58602087
42.44405687
40.2942034
40.88312244
41.16535898
40.2975702
40.59427277
40.04765972
39.53642734
39.3551538
39.79116631
38.63124055
38.97174439
39.12782548
38.65742833
38.81551912
38.49682905
38.1504171
38.05149701
38.32639854
37.57700377
37.80258967
37.88702735
37.63483753
37.71854753
37.50579748
49.5197863
49.28729087
50.33080184
47.4537192
48.32700277
48.55402325
47.83902115
48.09868401
47.2226023
43.03675571
42.78533008
43.81677872
41.20687396
41.92982009
42.15533257
41.43314342
41.68935346
40.99469619
40.20258274
40.04541323
40.58565586
39.15030225
39.57076329
39.70906048
39.27899695
39.42773387
39.0254529
38.52898971
38.43776462
38.77498379
37.85935821
38.13375275
38.21266286
37.97046682
38.05278413
37.79017666
50.73722722
50.61176683
51.62293055
43.84473022
43.67063684
44.77865354
41.93208815
42.73537081
42.89883124
42.36439732
42.55945262
41.77146854
40.74410987
40.62216788
41.23434867
39.59973231
40.08123618
40.19041894
39.83945917
39.96463926
39.49622329
38.85709398
38.78139008
39.1688162
38.11689381
38.43209687
38.49862077
38.2885396
38.36197405
38.05642768
43.044861
43.17815695
42.34132678
40.29216742
40.38590769
39.87193001
38.56138784
38.62055351
38.28224211
48.06314237
47.41891393
47.01894016
48.06976055
47.7068467
48.43636055
52.34814754
51.41350509
51.2341189
51.73803009
51.57955169
52.49560272
49.47217713
48.68425398
48.35207805
49.25460656
48.9569055
49.78948504
53.81162149
53.12011236
53.07585388
52.90267574
52.02396988
51.8862547
52.27699128
52.15601278
53.01068586
40.48366131
40.1695251
40.12823788
39.74454999
40.81582931
40.38340028
40.41658646
40.20360031
40.27410474
40.71286013
43.78528989
44.34666867
44.76934878
43.48344926
43.92457657
43.46255753
45.09867576
44.50064442
44.00634818
46.46791998
47.27823715
47.57355324
46.64468517
46.9751278
46.18836164
48.85714895
47.86460107
47.5101726
48.19902787
49.0999166
49.26685474
48.74496779
48.94108814
48.01790434
50.94705705
49.91437566
49.71674907
51.35055277
53.28280677
53.15607462
53.56554914
53.43838615
51.59714891
56.04306267
56.11325461
56.23961768
54.30394791
55.58976866
55.43261899
55.8508742
55.72308668
54.60087694
46.45686218
46.00850724
45.54738809
46.72652749
46.29939326
46.87698713
54.09783117
53.17024945
52.88935824
51.60851718
50.66417783
50.44531347
51.04977443
50.84708624
51.80540471
55.74683182
55.73478145
55.61480518
54.92623977
55.33291392
55.48035608
55.18003528
55.28040542
54.81452364
55.2010817
55.67411476
55.6860196
54.45854223
54.25508615
55.22329952
54.59093998
54.9677313
55.0873683
54.68033508
54.8388764
54.50129753