/*--------------------------------*- C++ -*----------------------------------*\
| =========                 |                                                 |
| \\      /  F ield         | OpenFOAM: The Open Source CFD Toolbox           |
|  \\    /   O peration     | Version:  v2012                                 |
|   \\  /    A nd           | Website:  www.openfoam.com                      |
|    \\/     M anipulation  |                                                 |
\*---------------------------------------------------------------------------*/
FoamFile
{
    version     2.0;
    format      ascii;
    class       volScalarField;
    location    "0.62";
    object      k;
}
// * * * * * * * * * * * * * * * * * * * * * * * * * * * * * * * * * * * * * //

dimensions      [0 2 -2 0 0 0 0];


internalField   nonuniform List<scalar> 
3259
(
34.98352257
35.01078414
35.0824853
35.23973321
35.47016763
35.93743448
36.59597048
37.34750102
38.4415526
40.05733448
42.99999583
46.58171271
34.87982509
34.91227102
34.99716133
35.17672735
35.44615391
35.97218814
36.69708093
37.49402889
38.65680931
40.38874137
43.60700264
45.12241498
34.78434605
34.82172399
34.91863166
35.1189345
35.41399009
35.98462359
36.76442137
37.63251468
38.88185255
40.70936848
43.98277722
41.54565028
34.69254914
34.73450542
34.84196656
35.06132091
35.38024247
35.98469111
36.82001674
37.78122252
39.17457544
41.1662245
44.35532267
36.79440589
34.60265118
34.64866073
34.7647938
35.00035216
35.34008272
35.97117854
36.84756906
37.8993395
39.51156299
41.77482895
44.19255526
28.14942588
34.51001797
34.55954931
34.68284282
34.9323218
35.29004761
35.93924338
36.84268568
37.93661635
39.72783647
42.20131967
42.52557235
28.1264101
34.41518989
34.46764614
34.59642759
34.85663795
35.22818078
35.88893574
36.81204587
37.92750342
39.73690517
42.13649381
39.07456572
34.58045711
34.31390461
34.36877275
34.50203798
34.77119546
35.15407265
35.82138255
36.75475494
37.88339362
39.6803374
41.76363865
36.92853208
36.17358446
34.20969319
34.2664461
34.40295528
34.67809216
35.06824152
35.73859695
36.67689005
37.81179665
39.57650057
41.2929125
35.04254691
36.39663348
34.09755731
34.15583352
34.29519858
34.57562393
34.97198738
35.64298805
36.58272014
37.71888809
39.43371119
40.77646603
33.27717426
36.29307794
33.98438215
34.04380609
34.18512712
34.46820957
34.86682061
35.53697715
36.4759353
37.60939322
39.25875457
40.23107996
31.66723496
35.93164259
33.86253696
33.92293769
34.06633051
34.35271547
34.75452756
35.42280166
36.35959131
37.48694686
39.05631626
39.6714934
30.25075414
35.39022828
33.7432308
33.80435461
33.94903126
34.23600704
34.63653434
35.30243658
36.23623045
37.35411952
38.82993703
39.1120704
29.03168617
34.73830644
33.61370914
33.67553068
33.82196299
34.11152167
34.51438288
35.17754286
36.10780726
37.21245514
38.58341056
38.56135886
27.99767481
34.03118712
33.49183544
33.55416261
33.70149758
33.99022359
34.38896703
35.04945681
35.97570196
37.06281034
38.32195446
38.02453522
27.12971009
33.29804261
33.35613429
33.41903836
33.56800805
33.859377
34.26153925
34.91919864
35.84078719
36.90578297
38.05019242
37.50512456
26.4076296
32.55893147
33.23536655
33.2986723
33.44829739
33.7376441
34.1323983
34.78754329
35.70361154
36.74206712
37.77139738
37.00526662
25.81112268
31.82741684
33.09369286
33.15753631
33.3087193
33.60121775
34.00274557
34.65509097
35.56451316
36.57249527
37.48866385
36.52592671
25.3207262
31.11331161
32.97798204
33.04217313
33.19386566
33.483325
33.87225522
34.52229036
35.42374544
36.39800419
37.20487741
36.0673028
24.91856458
30.42245184
32.82882813
32.89356187
33.04669024
33.3398119
33.74244308
34.3895353
35.28158557
36.21953876
36.92212227
35.62906194
24.58861766
29.75701542
32.72303213
32.78807037
32.94169145
33.23142783
33.61222132
34.25716781
35.13838448
36.03795953
36.64173629
35.21050123
24.31784055
29.11795007
32.56271874
32.62833508
32.78320559
33.07591852
33.48421918
34.12580179
34.9946448
35.85414496
36.36417738
34.81090417
24.09575765
28.50671831
32.47303227
32.53893501
32.69436984
32.98598391
33.35683973
33.99657888
34.85180377
35.66884999
36.09016223
34.4297312
23.9130891
27.92515025
32.26793027
32.3345804
32.49149543
32.78546138
33.23672421
33.87247184
34.71466484
35.48325772
35.82159314
34.06941988
23.76225536
27.37595207
46.61821497
45.64546951
42.87997248
46.61281817
43.50057885
46.17398717
46.58664707
46.28697284
33.41578825
36.72809336
44.05647181
36.8984704
34.21743963
40.60312815
33.35194269
46.24105649
32.33312024
86.83268105
34.11485714
32.36896168
62.66095834
35.6727584
44.08958188
43.57410237
44.75419159
44.27803206
35.80387679
38.90658832
45.36004953
44.91171326
45.50079929
39.07455393
36.97777385
36.81188238
43.37626744
42.88519536
32.69829191
32.96142188
43.3435274
48.49601028
33.62929914
86.33471255
50.33751628
77.42289789
33.55187061
58.42490115
43.9887322
43.89734405
45.55748933
46.05771563
44.55382278
37.28704325
42.4617866
33.98240826
40.20932553
39.75369104
79.79214369
60.01237382
37.48791142
35.43793204
38.18440301
41.4302592
40.5462095
39.6065367
39.17880758
33.18733175
43.36328097
32.23166073
99.96528741
46.28514633
43.09370299
44.98442391
33.92794847
32.51869448
40.85235469
40.34401974
34.54891544
36.20744877
41.41838914
40.99573356
37.35002471
36.13842499
33.11383978
38.97743474
38.24307273
86.83179813
91.73270939
32.18689809
95.40361129
79.46384665
45.22351415
33.85750148
86.17657641
58.60515034
94.46441391
62.49967695
32.65975894
41.95709228
41.55127579
36.33209501
37.85293184
42.51897362
42.09077607
32.84039814
32.89101306
34.39698844
32.30012768
34.04764109
32.75312834
32.80098891
32.40404707
43.05362894
42.65606264
38.22514066
39.52000863
43.53155636
43.172402
34.59575046
34.65681254
37.0919748
36.68314424
34.40445266
34.47826153
32.67630942
34.44972585
33.40576903
109.8531456
32.45950665
44.39470249
74.87787665
68.42677374
32.42081273
32.45910942
33.70934316
84.65786152
90.51530762
87.86043256
71.57350141
33.41923138
32.33391915
32.37673291
49.17568359
33.24766403
33.18791909
32.74303734
34.76203014
32.96056703
33.10854795
36.12012123
34.85445064
38.92884023
33.25586016
35.4444047
35.30978982
32.26135048
99.33869717
100.3548255
65.1879296
93.43465729
85.11234067
32.64105188
32.70814215
33.99481426
32.45434414
33.00658857
32.9545087
33.12056892
33.07729085
33.88727959
34.18618217
36.40567769
32.74266192
32.71794223
32.87621115
32.82322697
35.17833562
34.92958451
32.92561931
84.81115975
105.4512934
107.9452897
105.7616836
105.5439921
88.45742602
32.2592579
88.22490331
71.17028925
74.55703964
33.77802804
32.50689644
32.57336568
85.74846208
92.10645372
90.96504044
78.84337271
84.257384
95.66520425
92.84315756
66.93840099
89.14266935
80.8036376
32.44292939
32.31088828
33.12818427
37.3186541
38.09284972
38.39314212
39.50894705
39.9834637
41.93812754
37.46120331
38.28572465
38.13435287
38.60711755
39.80383708
39.57818519
40.31631465
42.47468581
42.0443131
43.14438693
44.62144432
44.39912394
46.46178726
45.25856015
45.60873627
37.59705728
38.47898426
38.33114255
38.82007355
40.08213184
39.86915467
40.62065041
42.86592139
42.58066902
43.71256129
44.88724466
45.06046945
44.98809864
41.58337886
42.41025331
37.74527026
38.72065656
38.53433496
39.09504492
40.46085142
40.16431282
41.03468159
43.32196638
42.96481058
44.25921067
44.02285111
45.35786963
38.78583688
37.87795336
38.99808357
38.78842059
39.42947842
40.9916176
40.57925944
41.62788271
43.83761478
43.46729395
44.32852552
39.01676185
43.53745504
29.08126182
37.93221172
39.19506674
39.06246637
39.69653296
41.46346491
41.12778903
42.12761415
43.55355008
43.87274282
43.20188524
28.41456227
36.12319143
27.47178094
37.93348027
39.21921897
39.21142062
39.74154938
41.57846031
41.53441252
42.20511419
42.11120147
43.29387797
39.96454851
26.57939786
27.59459517
33.1310089
37.89732589
39.18518384
39.21567106
39.69928556
41.39181183
41.54292295
41.86820132
40.61111098
41.6562606
37.42315669
26.01913506
26.51450153
36.06621246
37.83192058
39.10888557
39.16962666
39.60639715
41.11365578
41.32976496
41.41638304
39.26440879
40.27119704
35.49770872
25.39622645
25.81554248
36.37243867
37.74382696
38.99915174
39.08432825
39.47266671
40.76002791
41.03182782
40.90887414
37.97085869
38.9351986
33.70677454
25.1444292
25.30704778
36.34618676
37.63809465
38.86180373
38.96720052
39.30520392
40.35125934
40.66191805
40.36927243
36.74719566
37.65778611
32.05237025
25.08237284
25.11671709
36.04178186
37.51860093
38.70124124
38.82369893
39.1093063
39.91546319
40.24361116
39.81182776
35.60801867
36.45401579
30.58624651
25.09171597
25.08272016
35.53844881
37.38818759
38.52027623
38.65782193
38.88858263
39.46711003
39.80433511
39.25136452
34.56350057
35.33777813
29.31859569
25.09868543
25.09615815
34.90785322
37.24863212
38.3209882
38.47208084
38.64672231
39.01281039
39.3538192
38.69790374
33.61680747
34.31764623
28.2399794
25.06561587
25.09559358
34.21133947
37.10092472
38.10588184
38.26855863
38.388445
38.55907077
38.8990459
38.15721811
32.76572451
33.39525564
27.33241881
24.97263594
25.04802073
33.48247757
36.94568817
37.87831038
38.05002113
38.11887369
38.1113413
38.44641811
37.63321437
32.0047286
32.56727575
26.57581662
24.81836391
24.93970627
32.74337944
36.78356829
37.64142094
37.819842
37.84159299
37.6727831
38.00073263
37.12833208
31.32643017
31.82769746
25.94982693
24.6069537
24.77054589
32.00882772
36.61537483
37.39815686
37.58107192
37.55953301
37.24542265
37.5648238
36.64381541
30.72235523
31.16878624
25.43466808
24.34871429
24.54643869
31.28948953
36.44202443
37.15088263
37.33663466
37.27580717
36.83059505
37.14049893
36.18002256
30.18375838
30.58191754
25.01199925
24.05547495
24.27868014
30.59217472
36.26446984
36.90130414
37.08864746
36.99258977
36.42902412
36.72893837
35.73674097
29.70211144
30.05839264
24.66524369
23.73696229
23.9788281
29.91959994
36.08358542
36.65060588
36.83867147
36.71159222
36.04092007
36.33073168
35.3133057
29.26972369
29.58985756
24.38039867
23.40177647
23.65633643
29.27235099
35.90025661
36.40021118
36.587921
36.43325981
35.66629047
35.94601362
34.90893397
28.88022489
29.16913662
24.14641982
23.05850132
23.32011715
28.65088139
35.71526023
36.15117574
36.33779015
36.15822864
35.30477416
35.57478838
34.5224416
28.52729897
28.79046958
23.95323463
22.71452954
22.97914142
28.05509216
35.52911778
35.90399903
36.08926073
35.8864708
34.95437785
35.21706628
34.15078945
28.20395599
28.44889978
23.79134004
22.37572889
22.6412972
27.48378622
35.33083621
35.64335113
35.84436524
35.60070281
34.59177149
34.87556172
33.76909418
27.88714364
28.14133488
23.64543409
22.02540961
22.31337139
26.90202875
45.72223802
46.04561102
46.72224431
42.61720107
43.26418314
45.84305278
43.08736839
44.31959278
44.04976634
42.7396635
46.66474156
44.7658894
44.98553733
45.01470524
44.68296333
43.23519061
46.43864565
45.30742754
45.60686667
45.05499747
45.25611079
46.48685592
44.75533175
45.13188141
46.42222057
33.49678066
35.95897071
35.80064407
38.92930995
38.77152883
36.58561679
31.87298943
36.50081314
44.29275452
55.75359174
45.44868635
43.30737447
43.63612778
37.12669184
39.30022576
39.10128908
43.6420761
39.67064864
46.7523472
46.14758631
40.51089146
34.50113707
33.5485694
35.67174913
35.54802999
33.29864367
46.08442339
44.19458461
44.61125573
91.74529947
90.65904944
73.00518643
37.68303997
37.46734087
35.44283732
43.94452551
42.38253914
42.50226206
41.19237599
41.77525026
43.74196171
44.59953909
43.22499491
43.43170513
42.79736574
42.9904486
44.43139779
35.95058517
38.01464354
37.85150449
40.62245678
40.45486476
38.73580544
45.21424509
44.070115
44.27025984
43.64827206
43.8597416
45.06418353
45.77254355
44.82753739
44.46177158
44.64725865
45.63818401
39.22258611
40.93512943
40.78251533
43.2425169
40.62256136
41.03859926
39.82395851
40.44087859
42.95069817
43.64017359
47.78212569
47.42761237
60.07507579
57.27975156
47.09666963
52.74529525
66.64021425
63.11298045
54.62837214
47.36178772
45.02452355
44.96665084
43.81078955
45.58508159
45.87741405
45.82965594
45.63594327
45.67702288
45.69907445
41.84735695
42.28367438
44.76481645
39.00365382
37.53182859
37.50427959
40.21570359
39.79137155
47.60657815
36.47259931
36.17448258
33.66042189
40.05537999
38.30513644
38.52651601
37.95832742
38.11872381
39.9016909
68.41712724
44.14424393
45.92916359
49.64637883
49.56670034
68.81301948
34.87512994
34.95399554
37.62566686
34.39317087
34.48881675
38.30633277
41.08993816
37.95079743
38.35681061
37.1924749
37.70749406
40.81045742
39.46407385
37.66923021
37.81377354
37.3761232
37.53956761
39.31265405
42.34098229
46.91284563
64.22968423
60.69716289
69.97791749
77.52422985
47.53199257
80.7232893
97.72660338
40.68221826
39.22709294
39.41429892
38.7717751
39.01267257
40.53118246
35.17542733
37.19846015
36.84717129
38.32181644
38.16727383
36.07134663
41.27292543
39.88969191
40.04241971
39.57799598
39.73628197
41.14084465
37.23047735
34.73913067
34.79782505
38.86999825
36.95011747
37.2438671
35.66115407
36.71074839
38.29768788
65.43500788
67.52530126
81.82308926
45.93085512
54.69881668
52.70868314
75.08889476
70.66272706
55.47714193
41.81888966
40.48801967
40.63846478
40.19221306
40.34063404
41.68952485
36.46095865
38.62236049
38.47240439
39.79430702
39.53492784
37.44755961
42.37182186
41.13951295
41.32489103
40.79504171
40.96076399
42.23221338
42.9229839
41.83390137
41.98277448
41.50529808
41.6763848
42.79659124
38.50447994
40.26370317
40.0426162
41.23541728
41.08663189
39.37484936
43.41161109
42.40669855
42.5463584
42.1262256
42.26740863
43.29714282
50.65293903
49.02608386
43.90658378
73.64514263
60.82193943
62.11287548
57.04857788
58.01913648
71.13566578
51.64680969
35.2259999
34.31228636
34.6906533
33.69555525
34.11214373
35.00706833
38.26190713
34.06638064
33.5902921
95.71329757
89.66960021
57.46797781
95.85927942
106.9498094
107.0587975
105.578367
106.1026936
93.83472113
35.49564377
35.68577207
35.93869011
36.24213599
36.57917487
37.09333276
35.46141642
35.68138835
35.67393821
35.96402768
36.29349616
36.24767414
36.6608409
37.21951725
37.11898631
37.37687226
37.62406002
37.5913188
38.48514167
38.82752561
38.77971701
40.12918483
40.69683025
40.61066344
46.54148748
46.38797073
46.44456375
35.42912919
35.67262043
35.67521231
35.97930047
36.33669561
36.31572603
36.73158575
37.33608953
37.24822569
37.52781389
37.79214225
37.7545577
38.70767579
39.07128235
39.01565799
40.46151677
41.07439887
40.99407805
35.39737648
35.66069567
35.66558802
35.98611724
36.36754905
36.35442643
36.79616345
37.45677841
37.36578302
37.6704175
37.95865187
37.91439872
38.94839291
39.33756167
39.2631926
40.80695463
41.4466375
41.34169219
44.07048615
45.0782925
45.06173824
40.89575297
30.73935165
32.65859342
35.3612483
35.64010026
35.6489549
35.98046607
36.3784885
36.37685068
36.83677575
37.55310658
37.48448565
37.8168624
38.14185124
38.09613593
39.25770922
39.69299232
39.59564938
41.31177669
42.00063707
41.83683894
44.41424997
44.83211755
44.96233707
34.47943255
26.2477154
26.68269717
35.31652525
35.60643199
35.62152633
35.95805421
36.3696559
36.37623763
36.84722215
37.59040444
37.56565228
37.91447216
38.28598838
38.26062269
39.58516184
40.09338115
40.00095269
41.91122987
42.60578489
42.47242801
43.98422429
43.36954803
43.97046986
27.21325006
31.02060422
28.48203695
35.26056679
35.55746788
35.58053854
35.91677061
36.33729606
36.35620633
36.83155501
37.58546652
37.59198136
37.93756982
38.32190018
38.31873825
39.74168812
40.31745818
40.28812845
42.24087602
42.83107411
42.84683091
41.77223732
38.21558764
39.83924566
29.29568636
42.9851868
40.29991226
35.19243359
35.49367449
35.52467516
35.85755166
36.28393104
36.31308171
36.78625389
37.54599668
37.57798299
37.91952695
38.30730302
38.31474526
39.72773831
40.29214368
40.30609483
42.0551591
42.37256555
42.51374596
38.43707154
31.62044519
32.75660316
35.70431498
45.99737159
45.90288595
35.1121483
35.41588349
35.45424855
35.78201828
36.21208541
36.25014001
36.71811226
37.47906279
37.53119823
37.86783099
38.25639614
38.27203902
39.65844388
40.19613551
40.22579109
41.65300672
41.75847124
41.91933612
36.4417398
28.85801439
29.5010549
36.26251755
44.85145492
45.15248734
35.0208319
35.32563327
35.37045923
35.69245261
36.1245128
36.17008834
36.63159264
37.39104216
37.45858492
37.79035517
38.17742885
38.19945498
39.54416853
40.0445248
40.08706234
41.16719289
41.07871526
41.2532422
34.59125543
26.56632143
27.09237158
36.39332788
43.66885053
43.9599255
34.91974232
35.22480566
35.27506279
35.59130007
36.02392321
36.07567629
36.53069858
37.28699968
37.36623533
37.69289834
38.07640551
38.10347993
39.39275355
39.84768034
39.900579
40.64220178
40.36679407
40.54587566
32.85772904
24.76350949
25.1731644
36.22375163
42.54295141
42.81873216
34.81081214
35.11535867
35.16999079
35.48090416
35.91298633
35.96958123
36.41878502
37.17075679
37.25888769
37.57986331
37.9577231
37.98885988
39.2105989
39.61409362
39.67566541
40.09187574
39.65168532
39.82981166
31.29450674
23.34811342
23.67103827
35.81023114
41.47543213
41.73726234
34.69532022
34.99914287
35.05719937
35.36337537
35.79423906
35.85444128
36.29864892
37.04512974
37.14010928
37.45462163
37.82465646
37.85914236
39.00182647
39.34915584
39.41790239
39.53119854
38.94830919
39.12245735
29.92794363
22.22710308
22.48324865
35.23490637
40.4583051
40.70842257
34.57521731
34.87779558
34.93841474
35.24053479
35.66984706
35.73263227
36.17255066
36.91203894
37.01249701
37.31947519
37.6793348
37.71674435
38.7700432
39.05975203
39.13400647
38.97333805
38.26641888
38.43448042
28.75668335
21.33602663
21.53957076
34.56534895
39.48155164
39.72270705
34.45108822
34.75267638
34.81519403
35.1138829
35.54150063
35.60607953
36.04214932
36.77264015
36.87776558
37.17575238
37.52294323
37.56303543
38.51922968
38.75153806
38.82999784
38.42568215
37.61221397
37.77293446
27.76608544
20.62748739
20.78905132
33.8493636
38.53795675
38.77066279
34.32485001
34.62489364
34.68871355
34.98458145
35.41043344
35.47624727
35.90855274
36.62756658
36.73691531
37.02420632
37.35636399
37.39891483
38.25481452
38.43176782
38.51237978
37.89294269
36.98919149
37.14191221
26.93651847
20.06628059
20.19361764
33.11314218
37.62880722
37.8528624
34.19610872
34.49530156
34.56005307
34.85352724
35.27751108
35.34416548
35.77245143
36.47725696
36.59050056
36.86543527
37.18066032
37.22537366
37.98105893
38.10691156
38.1883158
37.37827191
36.39898141
36.54341998
26.24776676
19.62615077
19.7251853
32.37477709
36.75402756
36.96955673
34.06718246
34.36460661
34.42986078
34.72138145
35.14333409
35.2105631
35.63427518
36.3221787
36.43896377
36.70017126
36.99716459
37.04369494
37.70094295
37.78192484
37.86308977
36.88348433
35.84184462
35.97805873
25.67958725
19.28663082
19.36193733
31.64671739
35.9132761
36.12033033
33.93632736
34.233302
34.29894332
34.5886531
35.00830186
35.07594234
35.49428193
36.16287187
36.28278007
36.52927751
36.80731264
36.85529719
37.41772132
37.45822274
37.53896231
36.40931908
35.31695832
35.44524327
25.21285927
19.03169098
19.08697886
30.93780835
35.10672433
35.30531674
33.80703539
34.10183488
34.16754063
34.45568263
34.87268482
34.94066638
35.35270602
35.99993754
36.12251287
36.35371141
36.6125325
36.66162001
37.13397681
37.1372073
37.21713151
35.95585105
34.82281195
34.94358176
24.83010171
18.84772536
18.88634847
30.25273444
34.33388862
34.52435218
33.67535767
33.97037983
34.03642856
34.322686
34.73660314
34.80502263
35.20974083
35.83396185
35.95877039
36.17438763
36.41405921
36.46396628
36.85179484
36.82005304
36.89891618
35.52259146
34.35741502
34.47121145
24.51583572
18.72300746
18.74781998
29.59278043
33.59306353
33.77615413
33.54713809
33.83906114
33.9055297
34.18960022
34.59999308
34.66932843
35.06540067
35.66561095
35.7921387
35.99217043
36.21299152
36.26344235
36.57204951
36.50785335
36.58539014
35.10879527
33.91874051
34.02611928
24.25770362
18.64880194
18.66207456
28.95836906
32.88261933
33.05938205
33.41421233
33.70735937
33.77613715
34.05601197
34.46234119
34.53415062
34.91921971
35.4954789
35.62329576
35.80792112
36.01034475
36.06111
36.29529588
36.20135421
36.27743306
34.71355968
33.50473651
33.60653727
24.0453505
18.61800024
18.62181121
28.34981664
32.20125713
32.37384993
33.28570142
33.57385669
33.64856938
33.92028844
34.32193241
34.40076295
34.76913277
35.32396723
35.4528241
35.62234457
35.8069038
35.85783433
36.02205727
35.90082234
35.9756362
34.33517554
33.11246942
33.21110901
23.86897221
18.62500853
18.6195622
27.76651035
31.54672942
31.72052048
33.13551762
33.42783218
33.52685795
33.77188137
34.16789002
34.27226908
34.60392406
35.14104227
35.28165323
35.43463202
35.6016246
35.65497057
35.74959342
35.60247737
35.68222879
33.96674348
32.7345915
32.84141832
23.71932697
18.66192156
18.64721024
27.20643035
30.91415481
31.10264477
46.50177954
46.55533113
46.65418475
44.88559943
45.08050033
45.64198578
46.63698687
46.22247034
46.25196596
46.24902086
46.31008904
46.28903837
46.27715252
46.29775085
46.55736573
46.01250017
46.07746843
46.33498807
46.81477528
46.80837849
46.18889567
45.87331252
45.94084318
44.85715883
46.25406858
46.21437132
45.95000584
33.57738901
33.68959632
43.74688193
74.26328676
85.14486213
87.95604003
42.89906103
45.38195172
50.78518902
43.34915276
37.55927596
37.51814934
37.28317536
38.04355119
37.77005374
37.81717409
38.72464369
38.66912825
38.34162728
39.44237113
39.03317238
39.09355953
40.53125772
40.4429644
39.90728732
41.81708391
41.0697536
41.17166663
37.71724213
37.65590587
37.40502353
38.21194229
37.92354985
37.99069506
37.85244944
37.88847727
38.17396044
38.96138384
38.87116122
38.52575041
39.68978591
39.25593037
39.35683518
39.15547575
39.20886631
39.63863621
40.91275368
40.76019043
40.18561269
42.25575765
41.43668022
41.61893161
41.26141997
41.36397195
42.16852602
46.26860603
46.32782517
46.50457798
45.37550122
45.97550039
45.89065371
46.14198013
46.06044895
45.49487836
37.87198143
37.83112476
37.5611653
38.42666337
38.11810939
38.16457625
38.03207089
38.07396065
38.37748709
39.19455546
39.13097281
38.76207147
40.00620233
39.54198083
39.61154997
39.41614809
39.47700174
39.93559785
41.24651702
41.15814928
40.53849689
42.77177027
41.8917324
41.98528452
41.71200692
41.80127435
42.67742975
43.84575781
43.68809285
42.19543974
38.05003101
38.00380159
37.70713553
38.6553088
38.31852377
38.37400536
38.21362021
38.26494323
38.593078
39.50373882
39.41762681
39.0194624
40.35248196
39.85828865
39.95528356
39.68710975
39.7691324
40.25406824
41.69363567
41.56293467
40.91464748
43.19093277
42.31714785
42.454078
42.08526624
42.19505112
43.07211559
45.03180264
45.07011251
44.16085326
44.71506633
45.48315744
45.2224405
45.75566423
45.60362167
44.95991841
27.59606264
28.92915352
40.05483815
42.53227279
41.2764636
46.78501474
44.34311373
38.22650927
38.18521569
37.84948907
38.92799827
38.54378868
38.59895804
38.43065251
38.48795985
38.85820887
39.90022989
39.79412238
39.34251954
40.84745506
40.29199758
40.41817719
40.06022193
40.17253266
40.70740916
42.32731402
42.16735087
41.47143482
43.71248417
42.92475211
43.07569068
42.60571762
42.77622197
43.60575611
44.3927639
44.63862159
44.39100494
41.29480266
44.07955745
43.34860934
45.02449093
44.58185858
42.21618169
27.03078162
26.32001461
31.6978815
42.56587648
44.16812605
40.97035395
41.27646453
38.31234926
38.30232829
37.92479122
39.16327666
38.7159304
38.73321239
38.64723099
38.68703332
39.11829228
40.24085134
40.17409071
39.64746175
41.36820807
40.74728272
40.83077699
40.53755232
40.6486432
41.25492659
42.79890441
42.71584489
42.03084051
43.7268396
43.37573288
43.35045515
43.197092
43.30793869
43.8355674
41.35717096
42.50218139
43.64905266
30.06620843
38.63133331
35.79966261
42.17628818
40.70805678
32.78927378
37.31714147
34.04695304
27.20218064
48.04585642
48.72321741
45.71227937
47.06891211
38.31942473
38.32149754
37.93646229
39.22041304
38.74790369
38.74650736
38.74204172
38.74729251
39.21874326
40.31485704
40.31865931
39.74322745
41.59701599
40.94331842
40.93400249
40.89175585
40.93626426
41.5862712
42.65118384
42.76529858
42.23977556
42.5472782
42.92888519
42.7202167
43.2620023
43.11446666
42.96893441
34.37110791
36.23302169
40.85567286
26.6293049
28.6683442
27.59546896
32.86058097
30.38602806
27.02231895
45.50695041
44.58708791
31.11449503
49.39161078
49.31409476
49.13132865
49.35039078
38.28580937
38.29761345
37.9093281
39.19816469
38.72614166
38.71419345
38.74277524
38.7357195
39.2084193
40.25180401
40.27398295
39.71513951
41.4483756
40.86206479
40.82753738
40.91554229
40.89153466
41.49935535
42.0755238
42.22661541
41.96580389
40.95224744
42.05046147
41.82116346
42.4917119
42.27392692
41.29370521
30.17711696
30.88170916
37.92615079
26.2613277
25.77419295
25.27610276
26.85033848
26.30056188
26.52203836
45.45334452
45.75068235
35.93528832
48.57464563
48.234065
49.13590015
48.90753614
38.22000044
38.23902774
37.85060676
39.13135914
38.6655822
38.64551191
38.70003653
38.6837895
39.15164478
40.12659403
40.16300502
39.63375342
41.19023904
40.69652394
40.64462168
40.78826247
40.74452127
41.26248627
41.42504104
41.59342587
41.53729565
39.59731339
41.11304123
40.8738797
41.58764816
41.35124072
39.93292669
27.65444133
28.24010203
35.96553163
25.50854212
23.93787764
23.54144001
24.8042488
24.35876715
25.64691958
44.2541564
44.55167905
36.32809584
47.25512107
46.94176423
47.90077735
47.57464019
38.12937034
38.15405934
37.76767859
39.02937572
38.5751665
38.54860791
38.62369919
38.60021774
39.05779552
39.95110496
39.99913573
39.50952141
40.85470397
40.46670545
40.401117
40.58891493
40.52946825
40.94535787
40.72449847
40.90227107
41.0391766
38.28824851
40.15650275
39.91885227
40.63441619
40.39513593
38.60978486
25.60910048
26.07236672
34.1450558
25.18356972
22.48425336
22.17309001
23.16744799
22.81567065
25.23703223
43.09825035
43.38157138
36.37873911
46.03497748
45.7428773
46.63418391
46.33201257
38.01903998
38.04825288
37.6659603
38.89846046
38.46066575
38.42879429
38.52063258
38.4912953
38.93361558
39.73514196
39.79249982
39.34989139
40.45720897
40.18764139
40.11126385
40.33269707
40.2615109
40.56084453
40.00850412
40.18757816
40.50637037
37.04572235
39.21481346
38.98393662
39.68250427
39.44774302
37.34935213
24.01408645
24.37735474
32.449223
25.08789138
21.34726336
21.10541035
21.88017351
21.60559131
25.09849752
42.00232965
42.27086508
36.1396021
44.89374527
44.61910688
45.45538301
45.17243453
37.89282514
37.92570647
37.549599
38.7433818
38.32631442
38.29000004
38.39575168
38.36157767
38.78421762
39.48499907
39.5503948
39.16075124
40.02574341
39.86684832
39.78080511
40.03233687
39.95069684
40.13513094
39.29783135
39.47428448
39.95202385
35.88427182
38.30569529
38.08499123
38.755348
38.52922012
36.16627438
22.75532025
23.04278469
30.93402332
25.08774247
20.46517744
20.27828593
20.8779603
20.66526032
25.08429355
40.96110984
41.21679716
35.67886038
43.81781919
43.55798582
44.3483156
44.08130198
37.75343705
37.7894225
37.42171048
38.56731432
38.17509317
38.13487102
38.2526781
38.21436722
38.61317324
39.20709559
39.27884813
38.94589699
39.58003705
39.51285449
39.42107165
39.69293666
39.60354068
39.69248989
38.60421345
38.77552017
39.39111214
34.81548308
37.44085317
37.23248748
37.86719553
37.65244061
35.07361928
21.75607448
21.98443638
29.61708768
25.0997751
19.7838568
19.63981218
20.10243544
19.93845585
25.09968749
39.96591329
40.21113208
35.07360934
42.79822112
42.55080767
43.30143749
43.04842554
37.60246525
37.64124531
37.28432683
38.37240824
38.00876665
37.96496606
38.09373391
38.05169301
38.4227838
38.90756474
38.9842324
38.708955
39.1266266
39.14106047
39.04700631
39.32840696
39.23490068
39.24033032
37.93557418
38.10010374
38.83526665
33.84434892
36.62740574
36.43251431
37.02742374
36.82572848
34.07796685
20.96140564
21.14284825
28.49268284
25.07919319
19.25806399
19.14702075
19.50393199
19.37759975
25.08919086
39.00549367
39.24248344
34.38959861
41.82490618
41.58827645
42.30613353
42.06419477
37.4408669
37.48222039
37.13858965
38.16095617
37.82863335
37.78162234
37.92033226
37.87487911
38.21519971
38.59260772
38.67236166
38.4542238
38.6721006
38.76360793
38.66878788
38.95275206
38.85827855
38.78545149
37.2966709
37.45344685
38.29095233
32.96979242
35.86854632
35.68744716
36.24108303
36.0530919
33.17962282
20.33025808
20.4738812
27.54419534
25.0015647
18.85102151
18.76511888
19.04163659
18.94399053
25.02679019
38.07905013
38.30742816
33.66641711
40.89414637
40.6680692
41.35420234
41.12282515
37.26957521
37.31324804
36.98517909
37.93619092
37.63637047
37.58664695
37.73388939
37.68546173
37.99344431
38.26968743
38.35084394
38.18710192
38.22251104
38.38401641
38.28915914
38.57388073
38.47894094
38.33421964
36.68995304
36.83853849
37.76249161
32.18689062
35.16465845
34.99714386
35.50977907
35.33552321
32.37438408
19.83248567
19.94502509
26.75171507
24.86254461
18.53464846
18.4679163
18.68299725
18.60734478
24.90306823
37.18717283
37.40693938
32.92828659
40.00469997
39.78828392
40.44452227
40.22341922
37.08979845
37.13546469
36.82470985
37.70137289
37.43407331
37.38217955
37.53633213
37.48546644
37.76085807
37.94431106
38.02558255
37.91149194
37.78143713
38.00542173
37.91123689
38.19442215
38.09983929
37.89076447
36.11631146
36.25661294
37.25267009
31.48868982
34.51425295
34.35969454
34.83291569
34.67197733
31.65575322
19.44489331
19.53157372
26.09493746
24.66474176
18.28708093
18.23503126
18.40339472
18.3444645
24.71926167
36.32939483
36.54069115
32.19153485
39.15243276
38.94480355
39.57411815
39.36217871
36.90294212
36.95024178
36.65795229
37.45941999
37.22390215
37.17037812
37.32983173
37.27706288
37.52040139
37.61983718
37.70083179
37.63030569
37.35112571
37.63056229
37.53772943
37.81734278
37.72377627
37.457601
35.57545975
35.70765522
36.76300375
30.8668851
33.91444193
33.77196132
34.20824483
34.05984544
31.01566228
19.14947783
19.21434058
25.55381577
24.41725342
18.09250886
18.05207768
18.18393049
18.13802379
24.48291353
35.50573332
35.70852389
31.46771368
38.33467611
38.1354336
38.73933012
38.5359348
36.71045597
36.75902883
36.48579935
37.21297105
37.00794471
36.9532599
37.11652992
37.06237408
37.27489569
37.29728993
37.37765964
37.3467641
36.93307292
37.26176786
37.17068835
37.44530895
37.35331048
37.03637514
35.0661629
35.19061861
36.29402648
30.31276
33.36144863
33.2300125
33.63235503
33.49551669
30.44540711