/*--------------------------------*- C++ -*----------------------------------*\
| =========                 |                                                 |
| \\      /  F ield         | OpenFOAM: The Open Source CFD Toolbox           |
|  \\    /   O peration     | Version:  v2012                                 |
|   \\  /    A nd           | Website:  www.openfoam.com                      |
|    \\/     M anipulation  |                                                 |
\*---------------------------------------------------------------------------*/
FoamFile
{
    version     2.0;
    format      ascii;
    class       volScalarField;
    location    "0.62";
    object      p;
}
// * * * * * * * * * * * * * * * * * * * * * * * * * * * * * * * * * * * * * //

dimensions      [0 2 -2 0 0 0 0];


internalField   nonuniform List<scalar> 
3259
(
803.6710308
807.978872
816.8931302
829.5254141
859.4062097
884.2850576
915.9171788
967.3801331
1021.61434
1078.247693
1131.389641
1219.149048
755.480966
758.276246
764.2556972
772.2803525
796.4049649
811.477729
828.0462532
862.7418218
891.7914031
913.0809371
912.8312931
910.454384
704.2606385
705.4771067
708.1874487
711.4030502
730.0811511
734.8025933
737.4686188
753.5333948
758.5565393
749.1983439
702.8784531
571.2015625
651.3536536
651.1296222
650.7568073
649.5289574
663.088699
659.1383346
650.6162665
649.0314048
632.7893563
600.6172364
532.8449348
410.5815675
598.0570428
596.6445824
593.7239137
588.8531199
597.622942
586.8621671
569.8429407
555.4836327
521.0760097
472.2196853
397.3658323
289.554422
545.5144342
543.1788545
538.2803678
530.6386429
535.3751895
519.6896208
496.9167898
475.5588115
429.6263001
370.1644899
293.5567255
200.0508544
494.6196078
491.6118685
485.2729882
475.6823158
477.3393122
458.519569
432.452812
407.714615
360.5214647
299.5034562
224.3534608
144.974297
446.0284277
442.5859478
435.3140178
424.5123369
423.9933519
403.5250254
375.9394542
350.34959
304.7377583
248.7366803
182.5929699
114.3111399
400.186502
396.5188542
388.765352
377.3802658
375.4283611
354.4589009
326.8131407
301.7535046
259.0911988
208.7704832
151.5200463
92.75563177
357.3557253
353.6311993
345.762322
334.3043263
331.4614476
310.8476734
284.2063303
260.3752118
221.3184275
176.6049267
126.812691
76.64182343
317.6379661
313.9833081
306.2713904
295.1202774
291.8213689
272.1317865
247.1841923
224.9538796
189.6943153
150.2106035
106.8975423
63.87685862
281.0092117
277.5163481
270.1539504
259.572639
256.1459486
237.7450803
214.7815797
194.4421255
162.9259307
128.2061814
90.55171381
53.53251187
247.3569898
244.0898018
237.2079711
227.368172
224.0553771
207.1539049
186.3147585
167.9757369
140.0343737
109.6157418
76.92021
45.01072617
216.5095696
213.5092811
207.1915197
198.196629
195.1654598
179.8634724
161.1790495
144.8529141
120.263406
93.72163114
65.39242946
37.89246682
188.2532296
185.5434674
179.8370308
171.7405135
169.1104939
155.4349304
138.8686916
124.5077079
103.0268738
79.98537454
55.52450409
31.87467901
162.3470361
159.9386903
154.8646662
147.685313
145.5393426
133.470931
118.9476595
106.4735518
87.86070616
67.99003343
46.98187191
26.73052124
138.5370183
136.4324637
131.9943543
125.7280201
124.1257812
113.618371
101.0440762
90.36318626
74.39427864
57.41009891
39.50658928
22.28618684
116.5647908
114.7608915
110.9510252
105.5796675
104.564898
95.55974077
84.85073933
75.84317328
62.32330382
47.98351315
32.89383683
18.40385152
96.16795783
94.6592245
91.46417434
86.95939428
86.57982717
79.00486228
70.11334016
62.63825181
51.39712914
39.49573821
26.97798726
14.97293241
77.1079236
75.88584243
73.2896081
69.62261658
69.89465992
63.68635372
56.51898542
50.52859687
41.40573004
31.76684473
21.62182205
11.90326186
59.07066541
58.13459698
56.12782498
53.26048832
54.3077086
49.36186077
43.74413376
39.30654218
32.1595848
24.63897555
16.70693202
9.11880701
42.05089363
41.37685195
39.94147806
37.90071831
39.3783483
35.80874827
31.68205164
28.74808088
23.48287171
17.97068566
12.13049576
6.554938732
24.95528493
24.61109439
23.76181731
22.53614689
25.14766768
22.8250582
20.13182577
18.67483207
15.21529631
11.62977814
7.799457703
4.156267339
11.28980053
11.02637637
10.6200842
10.03583228
11.25206531
10.1072882
8.818580975
8.922551739
7.207167696
5.480820189
3.625139676
1.882741527
1237.008464
940.8204416
1183.719765
1233.837468
967.8400736
948.9135251
1201.307352
1094.159664
1133.342093
1289.382538
642.593852
1298.183374
1304.154958
1024.871112
1120.694519
1073.974392
1126.628642
946.5757906
1295.355873
1138.529416
-255.2155972
1214.203892
1176.940448
1112.694554
1251.417049
1196.506796
1223.749595
1352.379805
1317.702083
1268.526108
1333.529881
1361.492782
1366.308182
1356.691481
1089.300742
1018.102472
946.5773797
970.6181555
499.1302009
213.7060018
1230.255996
-242.3526351
172.8884076
-156.2866607
1221.329298
-191.8751245
140.5658873
751.5809117
685.7521339
910.8891334
791.7193011
808.7650933
983.7548619
1169.824669
1154.766579
1118.706155
900.5319652
701.4213969
1401.179166
1320.014298
784.7784779
995.555797
946.8205476
1105.706781
1061.877833
1071.286995
181.6580916
1078.906424
446.7473383
731.3475244
537.6134774
578.4364402
1263.492693
1174.453393
1197.82478
1166.63877
1178.096872
1249.491515
1236.084353
1208.199771
1393.814889
1329.90462
1048.99798
1045.71209
995.6395799
620.6405839
538.6218699
1058.349348
287.1327595
430.1906927
338.2975598
1252.374915
-394.0093641
29.22430886
236.2025195
-13.18088225
1177.707246
1272.441454
1245.922675
1259.748557
1318.338738
1305.389242
1281.365292
1309.537776
1318.733953
1311.968911
1112.995332
1286.481969
1293.721694
1301.357348
1147.254018
1338.256632
1314.004451
1326.398948
1387.412769
1370.303658
1346.883153
1370.852061
1381.955754
1376.13689
1347.52867
1351.548212
1360.642619
976.1321431
989.7033054
957.6641736
660.4406445
983.7319594
378.7259378
493.6464799
604.7454623
1236.919887
1242.163822
1237.490859
-306.7400577
-148.6776086
-128.3397644
-144.1087758
1210.209673
1217.474404
1228.784435
-49.04612088
1418.613537
1414.316097
1324.228845
1316.337038
1322.710345
1318.369417
977.8424565
994.8393215
1073.285585
1090.042514
1083.961852
1065.892966
1097.792214
396.6611005
385.3939114
1037.741274
926.8727601
714.6537998
1265.423999
1281.641534
1275.861603
1160.694304
1387.556627
1374.433887
1408.943883
1400.157709
1334.946988
1342.589028
1338.420527
1345.789406
1338.5416
1363.445104
1354.402081
1045.08716
1022.020362
1023.889165
583.7360556
590.8480844
640.948766
540.1886759
545.0265899
533.2122155
1035.671731
378.6654289
331.8021908
268.2398025
1244.118441
1246.214385
1252.557713
-373.0277946
115.0965864
59.90644445
221.3679118
212.3368101
222.2582211
43.51171506
-86.47406864
-67.42919524
32.3997747
1191.074804
1206.983283
1199.199243
992.5092285
1037.259637
1053.228414
1102.298022
1118.74254
1168.091958
888.5615074
914.8164672
1007.526517
923.5752564
947.1564743
1064.21905
953.4915862
965.2187406
1119.143263
1077.898486
1075.995047
1164.936901
1169.012206
1188.247009
1242.516843
780.5156572
789.2407079
884.7279814
791.3933655
791.508603
909.2339694
788.799163
765.8494666
915.5568481
856.9695217
848.5924851
922.7454445
870.5655773
854.4601741
922.6924306
674.2642056
666.848395
758.045208
663.2346705
645.3098486
753.941384
635.9926332
592.7267128
719.6295507
571.9188919
488.5924402
625.5919007
445.7540983
577.6354461
555.9188739
637.7258813
547.4951926
515.8114272
611.124979
502.3227894
449.8578049
554.2933998
428.1939258
346.6924116
447.6431713
317.5314372
494.3296266
462.2887284
530.5599663
450.0733418
408.5601701
486.4814849
392.715249
338.1529055
418.8377997
316.4586007
245.6847279
318.1637922
218.8304031
423.6113896
389.5313762
442.4931796
376.3622128
331.1913492
386.369372
314.4674047
259.9425877
315.398791
238.2744878
178.382281
225.6405269
156.0715318
363.7876625
330.2384942
373.5923691
317.6339798
275.5890133
315.9848377
260.3041987
210.3639647
245.7102247
191.7250116
139.0669331
166.6875737
120.5047452
313.1511068
281.3813957
317.1392405
269.6854351
231.5191448
263.6083158
217.9330897
174.27585
200.340875
158.6675464
113.3063313
131.9251439
97.45091868
270.0996761
240.7620853
270.5303665
230.1260851
196.0088221
221.9391365
184.0393111
145.9003215
166.5536891
132.4849512
93.7730182
107.9495433
80.30844819
233.2951074
206.6479053
231.6816825
197.1006813
166.8710512
188.1957282
156.3519636
123.0560972
139.7347485
111.5010119
78.33214721
89.5826533
66.81243853
201.6459169
177.7125862
198.9732204
169.2205208
142.5834167
160.3930723
133.3542232
104.3261002
118.032513
94.35535177
65.83532388
74.96621056
55.92801719
174.2414742
152.9369845
171.163209
145.43841
122.0629971
137.1352392
113.9860475
88.72235041
100.1636351
80.11057229
55.53776782
63.07797516
46.99556379
150.3417078
131.5272277
147.2959804
124.9479017
104.5178951
117.4238327
97.47419781
75.53985962
85.22261252
68.10347926
46.92517924
53.24305116
39.55850528
129.3506827
112.8625901
126.6250681
107.1255458
89.35652557
100.5239142
83.24166424
64.26522752
72.55944183
57.85567808
39.63026719
44.98996394
33.28941535
110.7792968
96.44780273
108.5650431
91.48004384
76.12209072
85.88274845
70.84498545
54.51145855
61.69709857
49.00861359
33.38019204
37.97883291
27.94498762
94.22167857
81.88332897
92.64675673
77.61918703
64.45545967
73.07042461
59.93767223
45.98119165
52.27403024
41.28731456
27.96696434
31.95530773
23.33973165
79.3336321
68.8421534
78.49180272
65.224726
54.06972642
61.74895962
50.24442263
38.44129842
44.01142959
34.47576356
23.2280768
26.72459539
19.32818452
65.82338468
57.05262398
65.78693412
54.03325659
44.7293438
51.64492504
41.53993018
31.70290462
36.6881585
28.39944753
19.03308614
22.13286412
15.79353286
53.46035857
46.29098493
54.27393707
43.82650791
36.23802512
42.53397663
33.63687902
25.6104856
30.12480718
22.91513902
15.27557859
18.05646491
12.6411789
42.03857099
36.35800201
43.73763851
34.41109242
28.42455655
34.22740898
26.37249181
20.03074542
24.17233165
17.90007737
11.86559525
14.39371584
9.791863543
31.33215057
27.06494265
33.98182418
25.6076475
21.13545964
26.55886416
19.60200493
14.84731458
18.70205551
13.24807546
8.726406769
11.05817972
7.178423641
21.1541322
18.24096241
24.82128679
17.252064
14.22842814
19.37826665
13.19131485
9.954786718
13.60091466
8.863987201
5.791048902
7.975851492
4.743043747
11.33957777
9.731628914
16.08989798
9.1936868
7.56551583
12.54542401
7.009279475
5.255047229
8.765575738
4.661687911
3.005145404
5.082200856
2.440250768
2.025387418
1.63868565
7.634939326
1.509991336
1.105956897
5.918813978
0.9757869913
0.7663996348
4.096759895
0.8278399042
0.4881673377
2.324932283
0.2356436478
1259.549952
1308.442251
1283.145582
943.1091225
995.9328062
993.1809393
648.3997279
1193.59029
1275.122882
1235.099407
1324.514491
1286.56286
1202.929861
953.4324777
1045.7499
1022.253853
1060.461662
1049.1448
952.8037807
1173.391225
1081.006941
1096.915123
1107.166031
1169.007235
1149.461811
1145.191994
1140.638745
1127.859236
1283.370158
1274.316081
1280.154196
502.9400478
712.8526403
752.0302296
654.9493469
458.8693729
629.9825046
618.7461225
1305.747254
1299.82703
1291.994784
1378.333061
1394.95454
1299.604346
1324.097862
950.2835823
985.4436437
944.8841421
1114.578312
1100.051023
1106.232816
1015.776468
1017.980516
1085.377393
928.4601939
897.0096804
1044.777345
1208.280803
1197.632879
1203.176985
1156.495178
1164.76435
1185.496617
1114.965375
1151.34902
1135.004274
1233.71662
1242.857257
1260.741799
1205.283935
1224.31176
1215.396022
1232.22576
1227.173965
1218.053603
1347.845378
1339.222729
1343.463967
1301.571663
1310.792496
1327.128888
1277.854973
1294.412515
1285.199468
1363.893877
1374.043555
1343.258914
1358.908173
1348.936342
1370.589271
1365.169783
1356.543427
1065.535913
1061.142382
1102.388923
1004.697542
1046.711311
1041.711748
453.588395
494.9534316
530.4320158
243.7612795
293.0066124
257.1238353
126.7571763
164.5869134
203.793545
-154.7609594
-0.09752069443
733.3781535
789.5308522
802.9128349
760.9640271
774.0319187
712.3222286
919.9688219
824.3576816
797.4549431
783.7450398
820.2786848
830.9677429
890.3390102
794.4604805
739.2254405
927.8684967
856.2973297
773.5438632
1164.587935
1153.185648
1158.447396
1142.845611
1147.807197
1159.337152
1122.995056
1135.690841
1131.009619
724.684689
711.7798185
713.7822277
650.1781886
677.1320116
732.7657002
1407.956802
1413.992258
1408.105133
941.9904027
937.4783168
616.9575008
979.6155372
981.9238416
990.413677
947.5019157
967.4799761
964.1592739
1091.945144
1095.447006
1109.681818
1063.181942
1080.007585
1077.351545
296.5663889
750.9046407
852.8038606
814.0031504
640.0295623
858.7099908
672.9886131
721.556878
673.0971926
1188.113712
1192.532035
1202.977484
1170.635686
1181.790091
1176.933702
1191.519938
1186.615587
1175.371269
1245.421431
1236.113667
1240.430108
1227.201125
1231.516204
1240.923812
1212.800736
1222.265372
1217.263215
1385.483573
1392.522929
1401.177443
1029.123482
1025.465038
1044.85295
985.2736924
1005.382829
1012.755885
405.810596
367.8455273
384.9378803
299.3317853
335.6461819
374.5636525
45.09247313
96.04990647
72.86895557
1264.101354
1268.932272
1277.841269
1250.384411
1259.819676
1254.663723
1270.298033
1264.929763
1255.170849
1314.518513
1307.011079
1311.780646
1297.741932
1302.219348
1310.136339
1286.34123
1294.453822
1289.200339
1330.450726
1334.757823
1343.188134
1318.19655
1326.429342
1321.743711
1334.694968
1330.729476
1322.519203
1381.476651
1373.518783
1379.309842
1362.971258
1367.997633
1375.856247
1351.570801
1359.914041
1354.592784
417.2714885
459.5773209
423.6066024
517.0179186
490.3928564
454.3980856
563.0142987
534.1598585
565.9241208
-106.9628128
969.6784139
958.8717334
972.8158954
1010.195099
992.6796254
982.5376981
1277.248654
1078.023796
1042.736389
974.3769923
906.7821421
1011.941276
892.0687636
963.3871332
976.1723714
721.2401448
738.4075772
700.6750717
891.2882855
903.064383
918.910904
937.2326139
958.3589881
978.9404476
829.5824303
837.3910289
870.9516533
848.0233679
859.4640616
899.1733871
871.3940729
880.3712569
955.2251671
941.6573585
953.1195138
980.2861934
989.5279078
1001.846602
1035.829643
1037.309628
1048.246872
1091.998614
1203.759667
1208.99438
1226.071384
763.7411532
768.1442266
803.5764256
773.3165478
778.4178988
819.8571854
782.782015
777.3342735
855.556034
835.270453
841.154454
870.023869
858.2278083
863.0157914
898.3772564
871.3164864
870.7387441
915.4814821
696.3660404
696.741244
732.6726712
696.6216751
695.5970616
736.6508568
693.3372949
676.1967425
751.8940312
726.7425517
727.0951279
755.2467176
725.8446489
724.3544859
757.9244434
710.390457
701.5910875
742.1512025
656.7433086
633.4409312
681.4535388
521.4729963
517.5874069
578.8743556
629.7987435
626.7461483
661.7503348
622.4357222
616.5688118
655.5116363
609.368309
584.1177782
652.4166869
624.4682738
619.8696933
645.6406902
603.3053377
596.2037439
626.8962643
566.5603396
552.8631746
587.908243
495.875769
470.994516
507.8189135
378.1541029
332.4925396
366.0395891
565.8047676
560.021378
593.166738
552.5338086
543.0961762
579.013347
532.3092339
503.1596961
563.0283647
534.2434301
525.4639725
547.6051407
495.856517
484.5279144
510.7023681
443.7794475
427.3900302
456.2554613
368.4735538
343.8239854
372.8202974
263.6005304
226.0888511
247.8774583
505.5933294
497.9128569
528.6178847
488.30792
476.6153238
508.9460665
463.668926
433.298253
484.8554638
457.5081031
447.2602474
465.4967877
410.734973
396.6394633
416.0178853
349.6205723
332.352423
352.992528
272.8768338
249.7883097
269.7890363
183.4443093
156.3448405
171.7981345
449.8770384
441.0400548
469.0703862
430.2348825
417.366808
446.0901076
403.220902
373.5798106
417.6547454
392.4446146
381.885483
397.1507219
345.4833336
331.7132591
346.5576647
285.6358981
268.9240207
282.4099493
212.9483093
191.9497873
202.8282333
135.2969075
110.8645224
119.5411336
398.9194609
389.5330402
414.8710302
378.2565189
365.0947878
390.3937917
350.5103931
322.5770668
360.2867443
337.4251401
327.1287475
339.9305589
292.4729729
279.6697415
291.6660648
237.8623091
222.9429819
233.3362575
174.2303595
157.2078604
164.5576824
108.1749922
89.21300935
94.31883035
352.6610856
343.2046198
365.976576
331.9845173
319.1251365
341.3665598
304.7416859
278.8987372
311.2751808
290.7683996
281.0636987
291.8602291
248.9850904
237.3479255
247.1542792
200.0897495
186.9738041
195.2238932
144.8068006
130.4988487
136.6096499
88.34823999
72.55296168
76.26253118
310.8948132
301.7062469
322.0988412
290.8958751
278.704418
298.2707468
265.0706034
241.3690432
269.2363302
250.9882084
242.0482374
251.2166538
212.8927818
202.4622023
210.5876398
169.5279258
158.0118122
164.7071161
121.4389868
109.236391
114.123099
73.18146713
59.81554764
62.71439577
273.28518
264.5870826
282.8321051
254.4146447
243.0622017
260.3244354
230.4498196
208.965927
233.0577114
216.8879889
208.7726751
216.6138421
182.5899179
173.3277897
180.1461026
144.341709
134.2458373
139.7748482
102.5152485
92.05402088
96.02981703
61.09119564
49.72478783
52.04408955
239.4571979
231.3846093
247.7116925
221.992066
211.585655
226.8386119
200.0967161
180.8072784
201.767145
187.4630572
180.1767008
186.9353579
156.872496
148.7036899
154.4919927
123.2702276
114.4409765
119.073766
86.91695161
77.92144062
81.21214957
51.25003834
41.55901726
43.44898066
209.0241874
201.6516849
216.2830538
193.1109638
183.6996097
197.2262868
173.3642905
156.1761753
174.5301848
161.8940162
155.4108959
161.2820232
134.8245943
127.6582269
132.6261453
105.4131428
97.7141389
101.6461123
73.86068298
66.11547933
68.87991198
43.1130797
34.84146898
36.40525145
181.6083294
174.9688156
188.1101087
167.3051292
158.8952461
170.9397442
149.6999263
134.4897874
150.6654054
139.5154561
133.7949396
138.9343032
115.7366371
109.4810868
113.7884221
90.10332702
83.41401306
86.79032388
62.78452472
56.11832507
58.47064906
36.29481671
29.23750228
30.54851897
156.8487801
150.9474562
162.7913581
144.1566778
136.7280618
147.5064467
128.6343474
115.2646616
129.6177806
119.7895383
114.7841067
119.3176819
99.05715473
93.62798856
97.39850015
76.83749457
71.05346612
73.98403794
53.27581725
47.54996971
49.57503037
30.51430059
24.50553814
25.61746251
134.4059362
129.2307443
139.9526864
123.2911196
116.8083659
126.5084702
109.7649552
98.09642799
110.9251563
102.2711838
97.93157159
101.9627869
84.34767954
79.67022836
83.00177892
65.22359297
60.25508983
62.82536588
45.02179341
40.1242011
41.88649065
25.55976473
20.46557962
21.4187744
113.9641019
109.4933199
119.2538375
104.3743805
98.79677372
107.5824589
92.74916406
82.63686122
94.20069881
86.58879635
82.86778006
86.48343203
71.25632672
67.2660011
70.23767284
54.95439961
50.7249193
53.00235367
37.77958143
33.61926078
35.1694795
21.26764029
16.97959259
17.80556433
95.23121795
91.43655664
100.3832021
87.10297017
82.39087747
90.41059037
77.32009354
68.59250782
79.10351153
72.42133837
69.27839226
72.5520679
59.49292076
56.13482568
58.81182332
45.78088545
42.2260671
44.26551099
31.35516057
27.85840123
29.23725801
17.50753734
13.93800449
14.66190263
77.93117029
74.78266146
83.05458555
71.19876599
67.2966149
74.69623321
63.1924788
55.73697221
65.35252924
59.51155801
56.90864646
59.898164
48.81929156
46.04612189
48.48182534
37.49885564
34.56442031
36.41078723
25.59139159
22.69880069
23.93920681
14.1748359
11.25326542
11.89516216
61.82271462
59.27689486
66.99824602
56.40712132
53.25698072
60.15828791
50.04113391
43.86099847
52.7366121
47.64605448
45.54497582
48.30176062
39.03151402
36.80221603
39.04393532
29.93431935
27.57526209
29.26766331
20.35599943
18.02044889
19.1508058
11.18312533
8.853367629
9.430109488
46.58330363
44.64879178
51.96511689
42.4937057
40.08181307
46.57104201
37.63398246
32.70210521
41.05704274
36.60842651
34.97919471
37.5572197
29.94353655
28.2249928
30.31596762
22.93412287
21.11455734
22.68743873
15.53486098
13.72023763
14.76483818
8.459491382
6.677852306
7.203623804
32.07982525
30.7645327
37.70500296
29.26049557
27.56955743
33.75511784
25.86101281
22.09092317
30.04804041
26.18796896
25.00978343
27.45524131
21.38365046
20.15109482
22.13080971
16.35983007
15.05273513
16.53754773
11.02821247
9.709015506
10.68922423
5.941732653
4.675369363
5.16229045
18.26080687
17.37028128
24.08993874
16.51185092
15.53391883
21.48433398
14.53227996
11.86056884
19.54330789
16.20925384
15.46609752
17.82043505
13.19477249
12.42897153
14.33445417
10.08043724
9.267647636
10.69464511
6.744973502
5.906281056
6.84124316
3.577114977
2.802731049
3.260651858
5.610419625
5.140621212
10.69320939
4.762403155
4.428169978
9.483118926
4.077625881
2.149101672
9.380178978
6.515166675
6.198012909
8.491937156
5.237603186
4.919239544
6.779469064
3.959218193
3.632123046
5.03294525
2.618836734
2.261709591
3.140355783
1.332825004
1.026713935
1.466672839
1242.814821
1259.133382
1251.780122
940.1017359
960.3190153
959.6930575
1265.182398
1253.565911
1223.129731
986.3031414
984.6916419
950.0383353
1191.702881
1159.307172
1167.553494
1096.959147
1116.698431
1112.249715
1329.130968
1335.880791
1055.081684
1056.925124
1077.114488
92.55775836
913.8506494
877.6367268
873.1294997
921.2124789
900.7021954
917.1235524
850.6861609
864.4648002
903.4356748
224.3169259
580.740762
532.5574009
587.427214
1006.789649
1033.119864
1017.318582
1066.746774
1049.613876
1021.696831
1069.450403
1102.543435
1084.426429
1139.648883
1120.982408
1085.83655
1135.131394
1177.409469
1158.470388
1215.796256
1196.49875
1151.543752
897.1435115
924.9970393
914.9913013
945.8233874
935.2969367
905.9340849
993.6966916
964.9721935
977.1669322
932.0130664
966.7627914
956.3843321
986.3405954
976.8091748
939.9421226
1050.072492
1014.013089
1025.868803
958.7290489
1003.333914
995.236044
1017.093969
1010.530651
962.6347973
1105.535262
1058.671521
1068.98533
1173.433437
1191.386314
1185.073934
1206.88244
1198.791106
1180.470865
1233.97767
1216.649588
1224.988418
783.5818645
812.1592949
807.7310178
820.7837161
816.5843508
786.576447
877.3966232
847.0658087
852.8354489
792.7384163
827.5511007
824.5223348
830.182728
829.6235247
792.6280922
904.2688195
866.9482073
869.7345062
783.8694673
826.7356298
829.2816016
814.0670224
821.8146776
776.3433578
916.5021999
868.8479396
864.3356499
921.3738306
900.3374603
901.2019895
672.130117
699.2456903
700.2452042
696.5942094
698.0567704
669.7257212
756.9015013
727.25073
726.8458377
658.6091235
691.2033481
694.3893177
680.5966589
686.6894349
652.7312817
756.6851134
721.463752
716.8937552
624.3967004
662.3080741
672.605386
633.0663431
649.2695998
610.1125996
732.44519
690.0629652
675.3528157
547.1515686
588.9216935
613.1557014
532.905788
560.8730608
518.2186116
656.4815258
606.5941167
577.6073764
403.2486672
451.770184
483.6572407
390.2629288
348.3557432
474.1764298
434.7151642
570.8292952
594.926134
600.6724806
582.2131098
588.8394582
563.6422184
641.945991
614.9286044
609.4693197
538.1559606
566.6331498
574.8821409
546.3812267
557.2222025
527.6704773
619.7757676
587.9013593
578.1211786
486.9562757
519.183853
533.7990677
482.8583578
502.2636595
469.4885899
572.6056481
536.6444361
517.6554551
403.7235688
436.3920685
461.0091875
377.6368585
407.6218814
375.1351747
478.5900898
441.9702213
411.0157584
272.7251505
301.0838623
347.1883207
260.2250828
237.6178017
313.8455781
285.2250329
484.5611136
504.4976942
513.8993566
483.5556985
494.3199452
473.8355469
539.3484595
516.164512
506.344259
437.1273798
459.9649368
472.1517372
432.6567774
446.8475637
423.3289015
499.2376449
472.1847492
458.6581245
375.7227772
400.5274903
417.2558272
362.9972787
382.4455291
357.5905785
438.457437
409.4082475
389.8722522
292.1277741
316.8523586
341.4955702
267.7510525
291.2844891
268.1843822
344.7566116
316.7870617
291.8883196
188.5341631
206.5276879
239.9703555
176.7994299
158.2566597
216.5505668
196.333227
413.1172939
429.8063716
440.2181479
406.2815924
418.5160944
401.7696574
454.4883459
436.0732684
423.9053027
362.2381584
378.8550704
393.0652111
347.7337799
363.6941889
347.1649013
401.6292214
381.7554214
366.0941347
297.1828621
313.7731034
331.0687932
276.2573807
295.7615498
279.2956
334.8651126
314.2623486
294.7524141
216.3689403
231.9947784
254.4221237
191.9787364
211.7559306
197.061249
247.2924154
228.4852942
207.713613
130.0605979
142.3695284
168.8349385
112.9080145
101.9193449
141.1954736
126.0124908
353.3062394
367.2789128
377.8325726
343.9875568
356.0079387
342.1250896
385.7920441
370.5518235
358.4252434
304.3101674
317.6449591
331.2017194
288.2885694
303.3278204
290.2816237
331.6993094
317.1185974
301.7339291
244.4386553
256.2985588
272.5994982
221.4316811
239.3060482
227.8359492
264.7301504
251.6171411
233.3042786
172.5880618
181.9871349
202.0317901
147.1029334
164.0527506
155.2059647
184.3407082
173.6825049
156.4736028
99.24489433
104.0907143
126.8844719
81.01861846
77.10557539
93.00145868
86.08369313
303.1206209
314.8661145
325.0572852
292.7450776
304.099985
292.5271351
328.8676279
316.2034801
304.6530811
257.4527885
268.2787636
280.8011335
241.6270285
255.2039537
244.7128681
277.9420402
266.2653301
252.3059805
203.9444327
213.169839
227.615205
182.4674391
198.1478953
189.4184151
217.238338
207.3933278
191.1289489
143.1253466
150.0407594
166.2607849
119.0694835
134.48195
128.1970155
147.7831673
141.031731
125.2810821
80.20536148
84.47312534
102.5372209
65.71793779
62.36846806
73.2728638
69.383546
260.7641845
270.7046121
280.248495
250.2471314
260.7054456
250.9785114
281.45523
270.8558657
260.1606365
219.0934029
228.0045021
239.3397739
204.2168309
216.278277
207.7029572
234.7518102
225.2838857
212.8491075
171.7481
179.1604397
191.8576172
152.4060137
166.0225044
159.0435289
181.1743146
173.3873318
159.2777753
119.2843126
124.7369736
138.4754746
98.21670879
111.5389049
106.6043251
122.2923142
116.7571242
102.933851
65.79062952
69.06419476
84.20359688
53.5981947
51.01867031
59.26400968
56.34486797
224.7641741
233.2347889
241.9886823
214.645061
224.1199335
215.8748335
241.6523964
232.7062507
222.9829169
187.2620459
194.6941531
204.8271324
173.6501572
184.2876798
177.1731435
199.5296849
191.7324987
180.7509074
145.5664802
151.6388636
162.7843368
128.3348217
140.1553985
134.4658467
152.4219854
146.1335797
133.8871954
100.208332
104.6046473
116.3420976
81.88018186
93.33711563
89.36713457
101.9372605
97.52114079
85.62478846
54.49196718
57.07877592
69.90975628
44.14859675
42.10746395
48.59344404
46.30742497
193.9469194
201.219593
209.1421093
184.5209113
193.0111207
185.961694
207.9528245
200.3372023
191.6031582
160.5158627
166.7892026
175.7700258
148.265573
157.6142659
151.631672
170.3685588
163.8549885
154.1972582
123.9097802
128.9621714
138.7276813
108.6825281
118.9420351
114.2281131
129.0455047
123.8765986
113.2468395
84.65716389
88.26708022
98.33887051
68.72898302
78.59352808
75.33939521
85.59556589
82.00864889
71.76924474
45.4351232
47.52442421
58.44454532
36.60800943
34.95891422
40.17554391
38.34486434
167.3611219
173.6543263
180.7506535
158.7876824
166.3308926
160.2518443
179.1737597
172.634376
164.859053
137.7825163
143.1379035
151.0473509
126.8872054
135.0829646
129.9899203
145.891369
140.3794567
131.9073976
105.7379735
109.999411
118.5339781
92.37250708
101.2717695
97.30931486
109.7202122
105.4051981
96.18282413
71.76391789
74.77504615
83.43991238
57.93709526
66.43855543
63.7290985
72.23515261
69.27118585
60.44798569
38.04274414
39.75887771
49.07326213
30.48083293
29.12819789
33.3914977
31.90044109
144.2455752
149.7340675
156.0347913
136.6010442
143.2531188
137.9664091
154.3859686
148.7230688
141.8539108
118.2480781
122.8688103
129.7990948
108.660681
115.8231705
111.4387679
125.0890905
120.3700895
112.9595633
90.29419544
93.93313535
101.3689887
78.63941534
86.34846872
82.97440458
93.5074202
89.85667483
81.86440932
60.9170504
63.46348692
70.92424617
48.94254416
56.26774638
53.98130617
61.13530859
58.65034305
51.04661027
31.91705102
33.3468571
41.29735336
25.43218381
24.30887521
27.83837323
26.60755226
123.9938599
128.8161423
134.3643691
117.3004146
123.1251029
118.4907646
132.855251
127.9108139
121.8853445
101.2931581
105.3184237
111.3598371
92.95028731
99.1828217
95.37107396
107.2094111
103.1265775
96.67046011
77.01716466
80.15848241
86.61224392
66.92804419
73.58824637
70.6826964
79.72777142
76.60121497
69.6908944
51.6752273
53.85481424
60.2740394
41.34671315
47.64787897
45.69581467
51.78601988
49.67646329
43.13192055
26.77494979
27.98067532
34.76167777
21.22316028
20.28042556
23.23485368
22.20715124
106.1128899
110.3835312
115.2277545
100.3638339
105.4262327
101.3295699
114.0005755
109.6479086
104.4008373
86.43544109
89.97556755
95.21020539
79.27109731
84.66339877
81.31696951
91.68470945
88.11744348
82.52284725
65.47912841
68.22016961
73.7924348
56.82480726
62.55492234
60.02521745
67.87881605
65.17119711
59.21852863
43.7094667
45.59604137
51.10523241
34.85700983
40.25869774
38.57382915
43.8161463
42.00498782
36.3888451
22.40852851
23.43667802
29.20533273
17.67772803
16.87864889
19.37667824
18.5097749
90.19696614
94.01040331
98.19984831
85.36983572
89.73165146
86.07902639
97.35148266
93.48749958
88.95594368
73.29274888
76.43544492
80.93545969
67.24175951
71.87163849
68.90558008
78.07250901
74.92578141
70.11197272
55.34746471
57.76377698
62.54085708
48.01262495
52.91147006
50.6857478
57.57724168
55.20739031
50.10907401
36.76858866
38.41922209
43.12469382
29.25130462
33.85606348
32.38626737
36.94694499
35.37539144
30.57994382
18.66077429
19.54686347
24.43023288
14.66196094
13.97804627
16.11068375
15.37234545
75.90634953
79.3426579
82.92336963
71.97543479
75.69187426
72.40497686
82.52454283
79.06371192
75.19057639
61.55683995
64.37367348
68.20114433
56.55973235
60.49389358
57.83919085
66.02329157
63.22070128
59.1183187
46.35971768
48.51180854
52.5669697
40.2443965
44.39491163
42.41607495
48.52662456
46.43073967
42.10016242
30.65548946
32.11539244
36.10351908
24.35716965
28.24894393
26.95285206
30.96340313
29.58507428
25.52202817
15.40919876
16.1812958
20.28222569
12.07134443
11.47991153
13.31918053
12.6840364
62.95506196
66.07968925
69.09048712
59.89544867
63.01374277
60.0283144
69.19878304
66.06941013
62.80561158
50.97315621
53.52312605
56.73080107
46.97765044
50.2727356
47.87251233
55.25304376
52.73177084
49.28175632
38.30149967
40.23905885
43.6340655
33.32128225
36.79274885
35.01401081
40.49128745
38.61757535