/*--------------------------------*- C++ -*----------------------------------*\
| =========                 |                                                 |
| \\      /  F ield         | OpenFOAM: The Open Source CFD Toolbox           |
|  \\    /   O peration     | Version:  v2012                                 |
|   \\  /    A nd           | Website:  www.openfoam.com                      |
|    \\/     M anipulation  |                                                 |
\*---------------------------------------------------------------------------*/
FoamFile
{
    version     2.0;
    format      ascii;
    class       volScalarField;
    location    "0.15";
    object      k;
}
// * * * * * * * * * * * * * * * * * * * * * * * * * * * * * * * * * * * * * //

dimensions      [0 2 -2 0 0 0 0];


internalField   nonuniform List<scalar> 
3019
(
44.28415705
54.29017223
47.46043616
43.04187684
40.28527967
38.52147718
37.19825076
36.39113251
35.62037902
35.25395704
35.07386018
35.00172004
55.13734112
54.30044313
47.67494434
43.23744119
40.44204374
38.63653213
37.25679692
36.40634169
35.58834208
35.19281235
34.99234459
34.91144486
55.83388496
53.71088741
47.51528817
43.23283504
40.48836593
38.6979243
37.28679984
36.40892787
35.55351575
35.13577903
34.91865339
34.830681
53.96178716
52.44929014
46.99718055
43.04510483
40.44433222
38.7027707
37.28466619
36.39409033
35.50734973
35.07482764
34.84654544
34.75305743
52.6836685
50.87231219
46.15792368
42.72250417
40.35965242
38.66973417
37.25809311
36.35280681
35.44901391
35.00847982
34.77149843
34.67373576
51.46701386
49.30517902
45.29960366
42.35582382
40.20888952
38.58283273
37.1832732
36.27968771
35.37132219
34.92827243
34.68855322
34.58792417
50.16974291
48.0675641
44.65660191
42.0155881
39.99666672
38.4403549
37.072391
36.1806785
35.27723054
34.83624523
34.59610247
34.49429906
48.8980065
47.20926877
44.12860828
41.66443064
39.75408891
38.26291323
36.93487452
36.05999744
35.16715907
34.73104336
34.49220782
34.39004826
47.71368371
46.42859438
43.6357962
41.31795812
39.49866449
38.06507147
36.77800747
35.92210069
35.04445766
34.61565213
34.37938696
34.27750397
46.61439155
45.70733428
43.1751882
40.98350429
39.24022761
37.85646588
36.60758628
35.7712033
34.90986317
34.48887768
34.25561871
34.15439144
45.58821437
45.03610242
42.7417814
40.6636188
38.98438005
37.64324177
36.4284008
35.61091033
34.76797934
34.35596105
34.12613796
34.02582196
44.62398649
44.4070847
42.33145188
40.35806912
38.73410974
37.42923326
36.24412478
35.44422668
34.61785855
34.21376675
33.98710354
33.88776508
43.71016291
43.81372268
41.9410782
40.06558264
38.49077676
37.21686928
36.05743525
35.27346034
34.46544767
34.07024571
33.84691304
33.74860691
42.84150877
43.25035983
41.5679744
39.78469049
38.25472708
37.00757913
35.87020495
35.10047302
34.3065478
33.91806389
33.69743607
33.60006919
42.01227302
42.7125006
41.2098526
39.51408737
38.02582852
36.8021639
35.68374718
34.92655906
34.15019117
33.77005406
33.55235085
33.45589994
41.21628642
42.19644649
40.86471208
39.25260108
37.80369517
36.60098078
35.49890855
34.75282647
33.98641103
33.61122021
33.39562104
33.2999332
40.45046967
41.69921925
40.53085176
38.99921173
37.5878715
36.40415205
35.31624284
34.57982213
33.83112236
33.4638529
33.25072816
33.15575887
39.71324206
41.21847137
40.20674445
38.75296621
37.37784765
36.21163156
35.13609102
34.40828615
33.66349414
33.29914944
33.0875898
32.99318687
39.00322514
40.75195513
39.89106408
38.51300334
37.17311693
36.02330266
34.95867642
34.23824782
33.51415991
33.15756327
32.94801369
32.85412166
38.31811479
40.29815293
39.58273048
38.27858896
36.97321013
35.83898528
34.78414276
34.07046797
33.34050712
32.98498213
32.77665986
32.68316548
37.65649828
39.85594999
39.28085743
38.04908129
36.77767725
35.65845001
34.61264958
33.90452953
33.20415139
32.8558734
32.64898919
32.55581582
37.01800888
39.4247704
38.98480629
37.82398541
36.58616266
35.48157557
34.44464749
33.74196264
33.01711195
32.66970014
32.46401426
32.37111131
36.40328255
39.00443895
38.69412515
37.6028937
36.3983458
35.30814016
34.28157393
33.58281596
32.90668237
32.5629179
32.3579334
32.26516427
35.81747516
38.5977568
38.40994529
37.38605602
36.21425556
35.13807961
34.12822785
33.43363576
32.66594043
32.32401331
32.12024957
32.02765946
40.732801
43.35459085
55.73901478
50.05747398
40.97807704
54.61861727
56.23663948
55.76440201
52.48255414
50.47857738
58.27476667
46.44244507
45.72135538
50.08964116
58.59654276
58.37422698
39.82150045
42.5383931
39.86229259
39.88268146
53.91881941
43.31074901
56.3061991
55.61674536
56.1594341
55.63375468
54.42654896
40.06619458
58.75889377
58.66536534
50.74933787
50.85576701
73.45558909
40.92941503
41.4552853
48.56306393
57.14510186
45.61516105
39.84117898
59.89535021
73.41151156
45.95871597
56.47453869
80.17160046
41.19857215
44.15275322
40.17952184
40.78029191
72.19919037
76.46147912
40.47536836
73.07842911
63.95392513
54.91822485
48.89356089
40.00079059
44.12495696
41.14288221
52.18269895
42.49932163
39.93792476
44.64175895
76.80578353
80.01521952
81.74511665
69.35416619
78.66339846
40.29613074
40.19335232
70.22255146
63.10205536
71.52784065
66.57275688
76.6379001
76.25109067
74.65459442
48.57831638
67.19794797
60.54580931
74.82726775
76.78125947
52.56903677
57.42891431
62.74598958
78.75299206
65.95844387
49.85400764
52.83796494
71.79827901
53.18467054
56.79044917
46.28894566
49.77466953
73.57058734
47.37167538
43.85402175
42.95159542
40.80103744
40.22959389
38.85168218
46.98233317
56.79797429
56.03448911
54.35909369
49.13371249
48.98501871
47.64388384
44.1217353
43.95123426
43.20838939
41.00169421
40.86235816
40.41453373
38.99578285
38.89333087
55.76182976
58.45527251
58.74392169
53.93331051
49.0116461
49.15428232
47.58474123
44.15757504
44.156562
43.25254752
41.06888115
41.03013641
40.48910799
39.07840106
39.02114523
49.7402695
49.22903418
54.36315206
54.2254664
55.32011148
52.80751438
48.45912982
48.91971903
47.16948984
43.96640935
44.13028271
43.10663999
41.02025742
41.06670296
40.46127555
39.09060407
39.08547304
50.3253435
49.90137095
52.97853215
52.50987507
53.81542156
51.27847454
47.49485945
48.24352706
46.38055825
43.58570234
43.88964747
42.81515817
40.90366035
40.9945252
40.38229036
39.05912919
39.08660572
50.42942042
50.42351914
51.78192362
50.75450104
52.06353043
49.67744954
46.44584741
47.22839273
45.50137843
43.10888465
43.46674935
42.44128104
40.74223556
40.86947541
40.25397559
38.97863729
39.04553208
49.76747017
50.33825684
50.49585283
49.26214083
50.34452476
48.33323412
45.59576672
46.20498048
44.79429382
42.70703716
42.99958116
42.10252604
40.51592055
40.69051809
40.05349578
38.83481553
38.94740697
48.53153304
49.4986779
49.20887244
48.21221636
48.95803269
47.41504603
44.9923559
45.43846352
44.2573211
42.31845957
42.60979697
41.75221152
40.2556732
40.45299085
39.81645268
38.6518188
38.79190087
47.24060407
48.19961612
48.00129938
47.30613526
47.9783636
46.61777676
44.43649316
44.84937012
43.75578545
41.93846145
42.22223097
41.40363371
39.98233889
40.18800103
39.56309351
38.4462526
38.60204556
46.03785705
46.93222537
46.88190436
46.47206648
47.09128681
45.88261826
43.91925956
44.30383585
43.28759813
41.57453692
41.84581754
41.06578638
39.70715264
39.91340731
39.30475621
38.22881973
38.39268655
44.91056437
45.74937608
45.83852389
45.69936356
46.27353644
45.19967043
43.43422568
43.79519043
42.84782821
41.22862515
41.48637406
40.74220666
39.43619732
39.63885169
39.04789981
38.00666667
38.17352786
43.84848662
44.63927384
44.86003554
44.97831505
45.51459907
44.5607503
42.97655361
43.31739551
42.43204817
40.89963253
41.144858
40.43317205
39.17248459
39.36951539
38.79605546
37.78421153
37.95096676
42.84224536
43.59212517
43.93415215
44.30057159
44.80512477
43.95904758
42.54251987
42.86595687
42.03695265
40.58562905
40.8197973
40.13756001
38.91716784
39.10784681
38.55092764
37.56412161
37.72890462
41.88090099
42.59794365
43.05475963
43.65910299
44.13703197
43.38864716
42.1288477
42.43730643
41.65975878
40.28473144
40.50923763
39.85389783
38.67031587
38.85466666
38.31305554
37.34787129
37.50966984
40.96051428
41.64706998
42.21623859
43.04856021
43.50374977
42.84478367
41.732718
42.02826672
41.29809179
39.99535339
40.21135821
39.58083884
38.4315466
38.6098811
38.08240015
37.13621404
37.29451674
40.07991244
40.73664164
41.41239471
42.46428433
42.90023746
42.32360586
41.351706
41.63612689
40.94988352
39.71611727
39.92463636
39.31717994
38.20028471
38.37304504
37.85862181
36.92942959
37.08406214
39.23664321
39.86571087
40.63919323
41.90273146
42.32182565
41.82189529
40.98374753
41.25855111
40.61334564
39.44581283
39.64773499
39.06185276
37.97590775
38.14355793
37.6412626
36.72753234
36.8784991
38.42758905
39.03127767
39.89488723
41.3615425
41.7656264
41.33722767
40.62708183
40.89358149
40.28693162
39.18336863
39.37949952
38.81390516
37.75780754
37.92081301
37.42983633
36.53040519
36.67781357
37.65047402
38.23041489
39.17829005
40.83854913
41.22911727
40.86735385
40.28015237
40.53948669
39.96925403
38.92779072
39.11886109
38.57244441
37.54537133
37.70418536
37.22382692
36.33783828
36.4818466
36.90338817
37.46103413
38.4870869
40.33232276
40.71055633
40.41046915
39.94169592
40.19478331
39.65917642
38.6782392
38.86486293
38.3367084
37.33805045
37.49307734
37.02275899
36.14958633
36.2903811
36.18473932
36.72133349
37.81948683
39.84004619
40.20802069
39.96545333
39.61067897
39.85827331
39.3557552
38.43398448
38.61669882
38.10602456
37.13532814
37.28695221
36.82616856
35.96535633
36.10316153
35.49354165
36.01012842
37.17454817
39.36007615
39.71897433
39.53145696
39.28636313
39.52899203
39.05829978
38.19446556
38.37367509
37.87986889
36.93678918
37.08531111
36.63368184
35.78495091
35.91990257
34.82818264
35.32722688
36.55084311
38.89106773
39.24198794
39.10801702
38.96813088
39.2062623
38.76624472
37.9592131
38.1352639
37.65779729
36.74206618
36.88775878
36.44496319
35.60814429
35.74041804
34.18480149
34.67349585
35.94444826
38.43044364
38.77679821
38.6920389
38.65476574
38.88963255
38.47861874
37.72765192
37.90104192
37.43930166
36.55077926
36.69394744
36.25966644
35.43468032
35.56447317
33.52327002
34.05379391
35.31669193
37.9475561
38.32762102
38.25533469
38.32531123
38.58069047
38.17638416
37.48534241
37.67138661
37.21107671
36.35204574
36.50393086
36.06745501
35.25533159
35.39205145
40.41373815
39.78052744
39.81995231
48.36965006
47.45266454
42.47576458
55.63505298
58.14174458
58.28999387
48.94576107
41.63848286
40.66718865
40.00716702
41.14766908
57.70689067
57.51921593
52.71374793
55.79554533
58.44333713
58.42041435
58.33469484
58.4266409
55.80089268
51.25054717
49.78940777
58.19572129
56.59044188
57.24162515
56.32915413
58.21561347
40.1947267
39.9323821
42.5301224
43.14378176
47.23526347
44.91115852
41.36753077
41.91136148
57.68850974
57.0295752
47.87438217
58.52696236
58.1668276
58.32099454
57.43183886
58.01265819
58.44788819
40.51747319
40.15354996
39.71025349
46.30967943
47.95000903
62.95876741
41.82167409
39.97255768
39.94324056
39.98346389
41.76955414
40.99444621
44.53229247
43.52795122
39.84494115
53.37392001
48.94005709
49.81185299
48.00451638
52.75601327
40.48652237
40.87322914
44.10090965
43.60458198
44.79419832
40.58829153
40.34391567
57.79966819
58.22814965
55.72739882
55.86226287
57.5165928
57.1851665
58.33658189
57.76111073
56.03606391
55.29930494
52.13297437
52.75485002
50.65239689
51.40160834
54.86008906
41.66994509
46.48855937
45.51841432
58.75290567
58.57380234
58.61982493
58.42530202
58.50959486
58.71240195
52.14128897
57.38337283
57.09829896
50.47789157
44.58125734
45.00469758
41.60182236
48.87263768
45.76167662
41.01554996
40.82675972
41.71607787
41.4156095
41.3569618
47.79458926
43.86211124
44.40282383
52.01948591
42.67604038
44.12736168
40.95353867
41.64484153
48.03686837
39.76670942
39.94639594
39.8582478
41.87309183
47.51007773
45.44317613
55.06034057
50.40282904
42.80259914
40.35338605
42.16878998
41.59691228
43.9741965
42.86743978
40.47511928
43.91234722
42.68328504
40.16238107
52.35504362
52.25527458
54.6496428
48.77697329
50.44650142
50.55994782
39.79639252
39.7705184
40.17661787
42.87699286
40.21920045
40.52352322
39.90485362
40.04413711
41.90515713
40.01563714
39.98502821
40.04145181
43.47321405
41.23102071
41.04007803
40.7052819
43.075404
42.08309545
42.74414711
40.24234389
40.67444552
40.57925444
41.14806515
40.86659902
40.21610087
38.48546489
37.6702355
37.16063489
36.73819742
36.38269373
36.07576574
45.17895589
50.0709385
49.25239315
54.33782749
52.48581957
52.42368544
47.54539931
46.2139247
46.13035551
43.10160809
42.29285764
42.23181582
40.33952147
39.81699003
39.76888094
38.6137605
37.76966657
37.72519363
37.23005411
36.78152771
36.76080068
36.40210209
36.07412978
36.07559294
55.49326338
57.87657867
57.83936244
54.20620933
52.45833513
52.51837702
47.65994224
46.35594972
46.35796891
43.26452269
42.44005853
42.41790888
40.46386961
39.93868132
39.91455564
38.68825859
37.8297582
37.80439519
37.2746527
36.80698723
36.79624712
36.4103483
36.06486662
36.07145171
55.31617687
56.82107839
57.32513873
53.4443401
51.87389825
52.08835097
47.42580511
46.1844058
46.25441405
43.2017792
42.40756925
42.42986838
40.48423269
39.97010689
39.97097984
38.70516522
37.85016547
37.84628189
37.28878621
36.81084202
36.81218142
36.40511588
36.04315257
36.05756816
53.60508732
54.75560704
55.25877577
52.07116896
50.69211699
51.02434428
46.80497698
45.70728035
45.86045961
42.97796098
42.23417942
42.28758569
40.42468331
39.93707846
39.94957692
38.68051734
37.83616563
37.8463861
37.27721274
36.79834616
36.80688094
36.38211935
36.00398213
36.02675226
52.3897772
52.9317929
53.36081738
50.46646161
49.26147935
49.6236426
45.93437061
44.99296267
45.17802891
42.62735842
41.97215854
42.04457072
40.33008042
39.86415182
39.88864727
38.61151572
37.78531781
37.81762978
37.22589912
36.74540807
36.77638901
36.323778
35.94232437
35.97692396
51.1465427
51.33970477
51.72101695
48.95419022
47.92144939
48.23037096
45.11237042
44.31161583
44.46674042
42.27289455
41.68869656
41.76072321
40.16006833
39.71599652
39.75927435
38.48041629
37.68320739
37.73981773
37.13173455
36.65656139
36.70426235
36.23638662
35.85725475
35.90291671
49.8486146
49.94061254
50.26754029
47.84112474
46.96206794
47.15765773
44.52138633
43.8058566
43.92681315
41.92802294
41.38101845
41.45992356
39.93800268
39.51537832
39.56884871
38.30990319
37.54410323
37.61741045
37.00648001
36.53958902
36.60067408
36.12523462
35.75176822
35.8074319
48.5932549
48.73363867
49.0247737
47.00792623
46.2294857
46.40676308
44.00212917
43.3369364
43.45169368
41.57697573
41.06074749
41.14104415
39.69095069
39.28755821
39.34613706
38.1159671
37.38039645
37.46469761
36.85849413
36.40110689
36.47228926
35.99479307
35.62867759
35.69287402
47.43134409
47.63237905
47.89875674
46.24308769
45.55462603
45.71852321
43.51780815
42.895459
43.00321741
41.2330415
40.74226933
40.8212566
39.43405296
39.04718729
39.10792158
37.90928579
37.20089191
37.29218628
36.69417125
36.24693601
36.32539393
35.84942013
35.49144011
35.56237643
46.35143888
46.62003306
46.86563942
45.53516195
44.92783504
45.08045962
43.06446483
42.48076706
42.58211388
40.90213991
40.43260964
40.50898839
39.17586645
38.80292024
38.86402716
37.69675074
37.01173476
37.10721421
36.51883936
36.08182026
36.16530748
35.69304561
35.34320239
35.41934794
45.34180712
45.68181158
45.9101514
44.87516311
44.3417054
44.48477518
42.63716728
42.08929399
42.18518519
40.58592673
40.13461988
40.20797237
38.92121159
38.55993619
38.62037228
37.48264197
36.81732867
36.91496425
36.33671327
35.90940701
35.99619364
35.528947
35.18713048
35.26687723
44.39098578
44.80732867
45.02000361
44.25563728
43.79015246
43.92509045
42.23209486
41.71762407
41.80883773
40.28377741
39.84869902
39.91907454
38.67259655
38.32118318
38.38037361
37.26968941
36.62083312
36.7191874
36.15094938
35.7325277
35.82128016
35.35975625
35.0253212
35.10772867
43.48899972
43.98974017
44.18961473
43.67026361
43.26799749
43.39604025
41.84627709
41.36308557
41.45024312
39.99432471
39.57413207
39.64176628
38.43107882
38.088149
38.14583131
37.05952784
36.42440103
36.52250837
35.96379397
35.55330181
35.6430293
35.18753149
34.86018339
34.94398321
42.63072948
43.21608574
43.40587029
43.11365566
42.77072607
42.89292142
41.47711903
41.02341931
41.10704754
39.71611987
39.3098439
39.37500798
38.19684121
37.86137489
37.91747147
36.8530946
36.22945493
36.32667395
35.77681845
35.37330889
35.4632705
35.01382212
34.69260602
34.7775131
41.81033767
42.47835321
42.65981033
42.58157645
42.29467947
42.41187598
41.12241924
40.69673087
40.77728101
39.44790073
39.05479922
39.11774808
37.96967576
37.64091939
37.69545054
36.65083866
36.0368869
36.13283517
35.59108336
35.19367028
35.28335324
34.83981461
34.52464676
34.60948138
41.02207375
41.76955289
41.94420599
42.07047034
41.83682615
41.9497249
40.78024936
40.38134888
40.45921347
39.18853023
38.80802092
38.86898699
37.74916444
37.42655661
37.47959117
36.45291694
35.84721394
35.94166716
35.40727548
35.01517909
35.10422182
34.66630687
34.35591369
34.44115257
40.26349012
41.0870777
41.25534487
41.57756729
41.39468075
41.5038657
40.44896199
40.07583089
40.15135998
38.93701218
38.56863719
38.62783596
37.53483839
37.2179591
37.26958958
36.25932959
35.66071794
35.75356076
35.22582855
34.83835358
34.92651648
34.49394459
34.1887941
34.27290748
39.53325421
40.42811378
40.59082495
41.10059862
40.9661436
41.07210923
40.12706976
39.77885759
39.85237013
38.69240829
38.33581379
38.39345058
37.32617973
37.01472009
37.0650532
36.06997032
35.4774987
35.56870507
35.04699977
34.66356462
34.75069696
34.32305329
34.02124274
34.10578081
38.8296465
39.79028707
39.9478642
40.63734926
40.54945153
40.65260191
39.81332708
39.4893124
39.56105786
38.45390349
38.10881846
38.16505856
37.12270353
36.81644281
36.86556968
35.88467289
35.29760431
35.38716819
34.87093962
34.49101835
34.57704874
34.15403615
33.8571313
33.93948473
38.15040702
39.17212291
39.32489149
40.18655271
40.14319182
40.24383759
39.50668337
39.20624138
39.27644609
38.22077154
37.8869877
37.94199275
36.92393026
36.62271217
36.67073979
35.70320235
35.12104147
35.20902514
34.69764888
34.32082594
34.40584181
33.98684768
33.69159061
33.77529482
37.49424515
38.57309381
38.72124274
39.74704099
39.74637534
39.84473508
39.20631713
38.92888591
38.99772013
37.99240844
37.66976144
37.72365986
36.72943234
36.43314978
36.48016464
35.52542791
34.94758699
35.03438608
34.52692993
34.15278039
34.23724354
33.82165382
33.53186522
33.61215242
36.860184
37.99217498
38.13646714
39.31854001
39.35808484
39.45443209
38.9116296
38.65668358
38.72428008
37.76834647
37.45670085
37.50959698
36.53887022
36.24746052
36.29353535
35.35113073
34.77645249
34.86343074
34.35802611
33.9862521
34.07184198
33.65746141
33.36706261
33.45248214
36.24597657
37.42728336
37.57073204
38.89952134
38.97752896
39.07259117
38.62204187
38.38911613
38.45567878
37.54817051
37.24741435
37.29941391
36.3519255
36.06535562
36.11056311
35.18001103
34.604876
34.69736267
34.18823547
33.81859473
33.91095068
33.49226289
33.20978816
33.29494453
35.64386604
36.87029984
37.02907096
38.48228836
38.59815144
38.70215272
38.33389419
38.12316162
38.19271402
37.33004797
37.04030379
37.09326948
36.16744703
35.8857795
35.93126392
35.00314126
34.42051233
34.54177023
34.00597578
33.63838192
33.75935608
33.31362047
33.02557681
33.14803255
55.69520706
56.63991233
56.67401653
49.51173449
45.50042143
45.9467358
39.93521317
39.77914875
41.72998471
56.6815339
56.70319305
55.77618817
57.8907792
58.11922557
53.67295678
53.32485963
49.45245559
41.17379904
40.75512609
39.82325182
41.01462955
41.16732632
39.85918493
42.43533773
41.49794324
51.25336446
54.49769772
54.15063611
41.00057557
41.00695842
46.03798264
45.91405222
47.24514208
43.75234145
44.7625612
44.87685973
42.15246902
42.06701073
42.85926109
40.72943197
41.36039044
41.43999766
39.71758939
39.66062111
40.16537109
38.8050196
39.20885028
39.25970456
51.52435367
50.84175311
46.11922702
56.57900637
54.37851441
54.83647527
53.373952
53.88508803
56.25213636
52.54834224
52.51237543
54.33794387
49.11167157
50.77418226
50.79954994
50.65132398
50.72296835
49.05729493
46.31982453
46.27918471
47.60217313
44.08329704
45.11249284
45.15605314
44.97304081
45.04815227
44.01391689
42.39136028
42.34290292
43.16284543
40.95953264
41.61246387
41.65804373
41.50802022
41.57034254
40.92088135
39.88725635
39.85295136
40.375355
38.96588157
39.38589337
39.4162855
39.30702575
39.34917166
38.93247845
57.7766075
57.85522059
55.70053964
58.63568477
58.61180279
58.71112569
52.2539995
52.36735065
54.09622024
49.08000312
50.68119901
50.58564836
50.79451286
50.74908956
49.12627828
46.30570639
46.3381522
47.632701
44.17130289
45.19181567
45.17033973
45.18740213
45.20416787
44.18082657
42.44337785
42.45066639
43.26244405
41.07238214
41.72385056
41.71810425
41.6846156
41.70671353
41.04982099
39.96967951
39.95097826
40.48281135
39.0606121
39.48237529
39.50079222
39.44341914
39.4659803
39.04404724
49.58151963
49.48962777
55.77717191
56.30135803
54.81505374
54.61702866
55.93932397
55.48167807
56.80138204
56.38209257
54.98425979
51.33575792
51.6208925
53.14101979
48.64895395
50.09855815
49.8615492
50.4694615
50.30368817
48.80612463
45.99321817
46.09774407
47.31537706
44.03350667
45.00823892
44.9251728
45.13242769
45.07807314
44.08860867
42.33515857
42.3756384
43.15926483
41.04136465
41.67251269
41.64248367
41.71139946
41.69551131
41.05679563
39.95936984
39.96639171
40.47472863
39.09184189
39.50882555
39.50595961
39.50594956
39.50984184
39.09161787
50.19758931
50.05482939
53.80667665
54.27123221
53.28162691
52.95327971
54.07348656
53.60181457
55.0156086
54.54553083
53.38981313
49.98635092
50.34441914
51.67948637
47.75621823
49.01476626
48.70516853
49.5982697
49.31422227
48.00747479
45.36159777
45.5394974
46.59782666
43.69890323
44.57564022
44.43229884
44.82831751
44.70914604
43.80286077
42.11441238
42.17843976
42.90237476
40.93410972
41.52341744
41.47936727
41.606642
41.56638316
40.9655558
39.90650281
39.92309662
40.40380793
39.07038002
39.48071675
39.46658322
39.50077544
39.49214972
39.08030495
50.46671764
50.48130363
52.1136785
52.516554
52.08903006
51.18079579
52.209617
51.76036098
53.13298433
52.66829937
51.61884282
48.55945748
48.90501985
50.06640141
46.69935192
47.76772693
47.46912528
48.39070831
48.07653613
46.96170326
44.6337545
44.81032867
45.71419099
43.22523752
43.98258186
43.83813759
44.28315473
44.13206228
43.3455015
41.83011028
41.90003149
42.53260742
40.78954947
41.3222068
41.26646202
41.42865198
41.37598568
40.83178547
39.7988235
39.83400716
40.2946313
39.00541552
39.40488281
39.37425211
39.45115624
39.43071576
39.02814822
49.99242951
50.18654778
50.61176948
50.96866723
50.82079042
49.59341698
50.50580695
50.13526499
51.32337319
50.90452173
49.95665913
47.38085282
47.63831107
48.6288358
45.77612415
46.67791203
46.45915372
47.18530099
46.92003258
45.98114276
44.04897101
44.1736273
44.94176262
42.80377165
43.46383367
43.35461549
43.70139243
43.5763162
42.89996902
41.53778752
41.61419736
42.1884432
40.57679442
41.07794815
41.00983895
41.20685048
41.14380085
40.63516988
39.62035124
39.669539
40.10810625
38.87515665
39.25907831
39.21459447
39.33935108
39.30080092
38.91296966
48.87007099
49.20881606
49.32277198
49.62790417
49.52604457
48.4511698
49.19453514
48.91727386
49.78985916
49.48054284
48.69597972
46.58781039
46.77282564
47.62548985
45.13815473
45.9357411
45.77224071
46.27402449
46.10276297
45.28682576
43.56815807
43.68624994
44.38826329
42.41525954
43.02960457
42.92280463
43.24572777
43.13731365
42.51245108
41.22132369
41.30139127
41.84014594
40.32256372
40.79634329
40.72325169
40.9399418
40.86866894
40.3884325
39.40376701
39.46026761
39.87783957
38.70019157
39.06820472
39.01602274
39.16775268
39.11884182
38.74700253
47.55445518
47.87403677
48.17090044
48.44910367
48.29442253
47.52548096
48.12785633
47.87737469
48.64739424
48.38440193
47.74950653
45.88552608
46.05579432
46.81082844
44.57155299
45.30137134
45.15043132
45.61211922
45.45521839
44.70914287
43.11269392
43.22392932
43.87787332
42.0321274
42.60931909
42.50742953
42.81708206
42.71255886
42.12675082
40.9007271
40.98059445
41.49000452
40.05117093
40.50166742
40.42761285
40.64964546
40.57572805
40.11977701
39.16830265
39.2282339
39.62723496
38.49911643
38.85268993
38.79650568
38.96261246
38.90808134
38.55107771
46.33102524
46.62908113
47.11607548
47.3715786
47.15416037
46.67441612
47.15896208
46.92954945
47.63260993
47.39321853
46.8807604
45.23572418
45.39373973
46.0611558
44.04532127
44.71374051
44.57316562
45.00226684
44.85673351
44.17347654
42.68497007
42.78939744
43.40177702
41.66383042
42.21018015
42.11389947
42.40693846
42.30785071
41.75426027
40.58608354
40.663859
41.14897426
39.77572406
40.20668024
40.13374421
40.3536986
40.28002085
39.84450128
38.92515321
38.98623911
39.36939082
38.28386209
38.62487722
38.5669702
38.73975513
38.68248144
38.33849119
45.18588381
45.4654537
46.14248289
46.37905856
46.09287287
45.88734093
46.26805447
46.0557597
46.70474374
46.48431645
46.07868466
44.63009097
44.77774468
45.36598449
43.55275291
44.16503433
44.03322463
44.43491834
44.29890563
43.67305215
42.28235899
42.38086689
42.9553686
41.31344488
41.83311118
41.74205215
42.01898873
41.92540895
41.39935379
40.28208937
40.35696997
40.8217095
39.50333386
39.91796061
39.84716309
40.06128291
39.98934403
39.57089911
38.68103998
38.74190859
39.11174215
38.06238797
38.39255528
38.33437261
38.50891872
38.45074079
38.11800351
44.10835519
44.37195896
45.23654758
45.45736302
45.09909312
45.15419366
45.44090728
45.24277007
45.84725609
45.64236932
45.33293317
44.0619387
44.20077633
44.71673661
43.08861599
43.64943004
43.52514028
43.903407
43.77550634
43.20222111
41.90115796
41.99462444
42.53393285
40.98039448
41.47589419
41.38937117
41.65219576
41.56349615
41.06213254
39.990176
40.06201674
40.50911309
39.23764402
39.63849283
39.57020082
39.77698097
39.70742617
39.30333072
38.43990587
38.49976792
38.85842555
37.83969903
38.16056142
38.10297287
38.27630116
38.2183407
37.89527714
43.08924819
43.33901886
44.39237456
44.5982053
44.1610652
44.46636464
44.6658037
44.47909419
45.04756773
44.85526869
44.63451679
43.52570045
43.65704622
44.10632377
42.64899621
43.16227489
43.04443589
43.40256228
43.28163057
42.75679301
41.53836217
41.62747627
42.13394379
40.66283043
41.1358765
41.05327777
41.30388651
41.21940214
40.74087747
39.71006054
39.77903149
40.21028288
38.98019322
39.36913253
39.30334744
39.50254877
39.43553032
39.04375269
38.20390048
38.26235552
38.61153468
37.61884057
37.9317615
37.87524907
38.04564107
37.98855484
37.6737542
42.11732859
42.35631929
43.59799266
43.7925869
43.27057257
43.8163941
43.93457224
43.75791903
44.29505086
44.11357885
43.97567279
43.0164911
43.14150565
43.52860333
42.23052599
42.69946708
42.58712328
42.92806071
42.81309163
42.33332814
41.19151296
41.2768545
41.75252101
40.35882356
40.8107674
40.731577
40.97158198
40.89075709
40.43364838
39.44076481
39.50713816
39.92377349
38.73125593
39.10959438
39.04615466
39.23817238
39.17359397
38.79270154
37.97396313
38.03086118
38.3718421
37.4015402
37.70766507
37.65245304
37.81906599
37.76319537
37.45545614
41.18694447
41.4157436
42.8431233
43.0285394
42.42229822
43.19855257
43.24133252
43.07331272
43.58356336
43.41140646
43.35025985
42.53025191
42.64985219
42.97848564
41.83024445
42.25743487
42.14981399
42.4760428
42.36616378
41.92874932
40.85856184
40.94059838
41.38716986
40.06669573
40.49865615
40.42246505
40.65318526
40.57555522
40.13869069
39.18122825
39.24525427
39.6481761
38.49051046
38.85916769
38.79789071
38.98328456
38.92096162
38.54995223
37.75036632
37.80567383
38.13940144
37.18868753
37.48893964
37.43512162
37.59760492
37.54309522
37.24144056
40.29641323
40.5153042
42.12056033
42.29859905
41.61039614
42.60814766
42.58105781
42.42099451
42.90716246
42.74305571
42.7534643
42.06365164
42.17861795
42.4519632
41.44565772
41.83322703
41.72965621
42.0432665
41.93775206
41.54045509
40.53772428
40.61688516
41.03577312
39.78504216
40.19794791
40.12437983
40.34696669
40.2721368
39.85454266
38.93043527
38.99236479
39.38227097
38.25742862
38.61707032
38.55775056
38.7371258
38.6768582
38.31501215
37.5329969
37.58676933
37.91394314
36.98067344
37.27578162
37.22334865
37.38166411
37.32854814
37.032204
39.44414583
39.653817
41.42516222
41.59654899
40.8297263
42.0411017
41.95114986
41.7976747
42.2627125
42.10613706
42.18078764
41.61393012
41.72490513
41.94563397
41.07460993
41.42434306
41.32426405
41.62699903
41.52524482
41.16620293
40.22744231
40.30409747
40.69646961
39.5126088
39.90722356
39.83595269
40.05141117
39.97903706
39.57991093
38.68745743
38.74751386
39.12495295
38.03138727
38.38250653
38.32495358
38.49888757
38.44048089
38.08726744
37.32156093
37.37388112
37.69502326
36.77755929
37.06809349
37.0169983
37.17125975
37.11950912
36.82786914
38.62679545
38.82800063
40.75487096
40.92028311
40.07829558
41.49507884
41.34568833
41.1976496
41.64564492
41.4950031
41.62975918
41.17883096
41.28634443
41.45691644
40.71527737
41.02869792
40.93163391
41.22498379
41.12647294
40.80410365
39.92635363
40.00083363
40.36766329
39.24829773
39.62524545
39.55597799
39.76521314
39.69498517
39.31366997
38.45145543
38.50984614
38.87524834
37.81177702
38.15474125
38.09877391
38.26781782
38.21108583
37.86610907
37.11569628
37.16666252
37.48216294
36.57925692
36.86565935
36.81583205
36.96623581
36.91578964
36.62838198
37.8419031
38.03514623
40.10666878
40.26674986
39.35498017
40.96758039
40.76060836
40.61705106
41.05083381
40.90520054
41.09773259
40.75642003
40.86092588
40.98356553
40.36604172
40.64447714
40.55002605
40.83526127
40.73954468
40.45247738
39.63322053
39.70581457
40.04791631
38.99108674
39.35087198
39.28334824
39.48717349
39.41880648
39.05477024
38.22163075
38.27854485
38.6322412
37.59797763
37.93305504
37.87850516
38.04318031
37.98794149
37.65091063
36.91498674
36.96470092
37.27484432
36.3855678
36.66817344
36.61953599
36.76631725
36.71709511
36.43356006
37.08757861
37.27329422
39.4788111
39.63395634
38.65767094
40.45749165
40.19259884
40.05312639
40.47453985
40.33305608
40.58355562
40.34508517
40.44695096
40.52352959
40.02557555
40.27019688
40.17802758
40.45617648
40.36290795
40.1099337
39.34701821