/*--------------------------------*- C++ -*----------------------------------*\
| =========                 |                                                 |
| \\      /  F ield         | OpenFOAM: The Open Source CFD Toolbox           |
|  \\    /   O peration     | Version:  v2012                                 |
|   \\  /    A nd           | Website:  www.openfoam.com                      |
|    \\/     M anipulation  |                                                 |
\*---------------------------------------------------------------------------*/
FoamFile
{
    version     2.0;
    format      ascii;
    class       surfaceScalarField;
    location    "1.31";
    object      meshPhi;
}
// * * * * * * * * * * * * * * * * * * * * * * * * * * * * * * * * * * * * * //

dimensions      [0 3 -1 0 0 0 0];
oriented        oriented;


internalField   nonuniform List<scalar> 
5975
(
-2.737937453e-06
0.0001637307995
2.513110259e-06
-0.0003270660681
0.0001635600957
0.0006543895078
2.189137466e-05
-4.702604112e-05
-0.001305906199
0.0006506403803
2.601097757e-05
0.0001036290763
0.001241442339
-0.000102274856
-0.00117257148
0.000115904249
0.0008668157871
-0.0001118790301
-0.0007408017456
6.234245152e-05
0.0003589529848
-5.836885022e-05
-0.0002481965489
2.810649213e-05
4.315954056e-06
-3.370890761e-06
-2.772052485e-06
0
0
0
0
0
0
0
0
0
0
0
0
0
0
0
0
0
-1.325123634e-05
0.0003143838036
1.325121715e-05
-0.0006281585775
0.0003137747931
0.001252424849
4.288609532e-05
-4.28546378e-05
-0.001249543021
9.79640157e-05
0.001111800009
-9.530329107e-05
-0.001029051137
9.776243497e-05
0.0006960399624
-9.262951299e-05
-0.0005773461645
4.283146879e-05
0.0002350282493
-3.749446944e-05
-0.0001493937284
3.609656518e-06
6.432427745e-07
-2.90417805e-07
0
0
0
0
0
0
0
0
0
0
0
0
0
0
0
0
0
0
-2.242026494e-05
0.001195071896
2.242026493e-05
-0.001195071896
4.251717757e-05
0.001175252994
-4.21828254e-05
-0.001143856124
8.825716623e-05
0.0009481795314
-8.490086875e-05
-0.0008530834008
7.651190851e-05
0.0005202359082
-7.100096918e-05
-0.0004073020918
2.292012446e-05
0.000124341718
-1.866697457e-05
-6.514456891e-05
0
0
0
0
0
0
0
0
0
0
0
0
0
0
0
0
0
0
0
0
0
-2.020629676e-05
0.001066708339
1.805487747e-05
-0.001051144958
3.974511226e-05
0.0009518383696
-3.821080529e-05
-0.000898225863
7.014417865e-05
0.0006775176131
-6.368786786e-05
-0.0005886989958
4.994505032e-05
0.0003120667558
-4.197381611e-05
-0.0002273065084
7.608073761e-06
4.137941752e-05
-4.500514711e-06
-1.131827104e-05
0
0
0
0
0
0
0
0
0
0
0
0
0
0
0
0
0
0
0
0
0
-9.529545122e-06
0.0007063065369
6.764455226e-06
-0.0006860276004
3.053772194e-05
0.000577325483
-2.692167945e-05
-0.000526663534
4.098516082e-05
0.0003457585456
-3.294897477e-05
-0.0002813712528
1.863491969e-05
0.00010629399
-1.20751706e-05
-6.192300708e-05
6.284264158e-08
2.63976515e-07
0
0
0
0
0
0
0
0
0
0
0
0
0
0
0
0
0
0
0
0
0
0
0
-1.104022813e-06
0.0002894061087
2.581125968e-07
-0.0002754913898
1.41998203e-05
0.0002056480292
-1.000794481e-05
-0.0001756391337
1.139111799e-05
8.161945894e-05
-6.154122192e-06
-5.380639538e-05
5.853816062e-07
3.087844334e-06
-1.624203419e-09
-3.318819118e-08
0
0
0
0
0
0
0
0
0
0
0
0
0
0
0
0
0
0
0
0
0
0
0
0
0
1.809316041e-07
3.158687562e-05
-6.517958962e-08
-2.758263066e-05
1.107101804e-06
1.10007775e-05
-9.258449696e-08
-6.070297651e-06
0
0
0
0
0
0
0
0
0
0
0
0
0
0
0
0
0
0
0
0
0
0
0
0
0
0
0
0
0
0
0
0
0
0
0
0
0
0
0
0
0
0
0
0
0
0
0
0
0
0
0
0
0
0
0
0
0
0
0
0
0
0
0
0
0
0
0
0
0
0
0
0
0
0
0
0
0
0
0
0
0
0
0
0
0
0
0
0
0
0
0
0
0
0
0
0
0
0
0
0
0
0
0
0
0
0
0
0
0
0
0
0
0
0
0
0
0
0
0
0
0
0
0
0
0
0
0
0
0
0
0
0
0
0
0
0
0
0
0
0
0
0
0
0
0
0
0
0
0
0
0
0
0
0
0
0
0
0
0
0
0
0
0
0
0
0
0
0
0
0
0
0
0
0
0
0
0
0
0
0
0
0
0
0
0
0
0
0
0
0
0
0
0
0
0
0
0
0
0
0
0
0
0
0
0
0
0
0
0
0
0
0
0
0
0
0
0
0
0
0
0
0
0
0
0
0
0
0
0
0
0
0
0
0
0
0
0
0
0
0
0
0
0
0
0
0
0
0
0
0
0
0
0
0
0
0
0
0
0
0
0
0
0
0
0
0
0
0
0
0
0
0
0
0
0
0
0
0
0
0
0
0
0
0
0
0
0
0
0
0
0
0
0
0
0
0
0
0
0
0
0
0
0
0
0
0
0
0
0
0
0
0
0
0
0
0
0
0
0
0
0
0
0
0
0
0
0
0
0
0
0
0
0
0
0
0
0
0
0
0
0
0
0
0
0
0
0
0
0
0
0
0
0
0
0
0
0
0
0
0
0
0
0
0
0
0
0
0
0
0
0
0
0
0
0
0
0
0
0
0
0
0
0
0
0
0
0
0
0
0
0
0
0
0
0
0
0
0
0
0
0
0
0
0
0
0
0
0
0
0
0
0
0
0
0
0
0
0
0
0
0
0
0
0
0
0
0
0
0
0
0
0
0
0
0
0
0
0
0
0
0
0
0
0
0
0
0
0
0
0
0
0
0
0
0
0
0
0
0
0
0
0
0
0
0
0
0
0
0
0
0
0
0
0
0
0
0
0
0
0
0
0
0
0
0
0
0
0
0
0
0
0
0
0
0
0
0
0
0
0
0
0
0
0
0
0
0
0
0
0
0
0
0
0
0
0
0
0
0
0
0
0
0
0
0
0
0
0
0
0
0
0
0
0
0
0
0
0
0
0
0
0
0
0
0
0
0
0
0
0
0
0
0
0
0
0
0
0
0
0
0
0
0
0
0
0
0
0
0
0
0
0
0
0
0
0
0
0
0
0
0
0
0
0
0
0
0
0
0
0
0
0
0
0
0
0
0
0
0
0
0
0
0
0
0
0
0
0
0
0
0
0
0
0
0
0
0
0
0
0
0
0
0
0
0
0
0
0
0
0
0
0
0
0
0
0
0
0
0
0
0
0
0
0
0
0
0
0
0
0
0
0
0
0
0
0
0
0
0
0
0
0
0
0
0
0
0
0
0
0
0
0
0
0
0
0
0
0
0
0
0
0
0
0
0
0
0
0
0
0
0
0
0
0
0
0
0
0
0
0
0
0
0
0
0
0
0
0
0
0
0
0
0
0
0
0
0
0
0
0
0
0
0
0
0
0
-0.0001642484983
1.79877755e-06
-1.830326778e-06
0.0001642800475
0.0001644700779
-0.0003284006458
-3.055867771e-06
-1.826512313e-05
-0.0006586004938
1.838733407e-05
0.0006584782828
-0.000315577187
8.156498489e-06
-8.156614212e-06
0.0003155773027
0.0001638915899
1.637987215e-06
-0.0006317616336
0.0002901447132
8.424168207e-06
4.364328819e-06
-3.652645317e-05
-0.001255091893
0.0006306755196
0.0006309257079
1.281742868e-05
1.719968989e-05
0.0006542248727
-1.810048808e-05
-0.0006029405319
1.733334711e-05
-1.733334712e-05
0.0006029405319
0.0003143838665
8.156435629e-06
-3.167646407e-06
-0.0006579130326
3.407679046e-06
0.0003281896853
0.0003294833146
-1.933355093e-06
-0.000317286765
0.0003173960418
1.824078269e-06
-0.0003184001172
-2.233063985e-06
0.0003186998261
2.172451916e-06
-0.0003183002471
-2.272322043e-06
1.316450679e-07
-0.0006415034512
1.207104336e-06
0.0006401647018
-0.0006537298209
-2.862648208e-06
0.0003261288083
0.0003272960144
-3.396708134e-06
-0.0001664056128
0.0001669616755
2.840645493e-06
2.578983234e-06
-0.0003234978547
-2.612954921e-06
0.000161474845
0.0001620569815
-0.0001666033725
-3.82460323e-06
0.0001670312676
2.393979882e-06
-0.0001663460112
-2.651341209e-06
8.275146338e-07
-0.0003327175777
-9.285728538e-07
0.0003328186359
-0.0003225447228
0.0003225350663
2.588639749e-06
-0.001209201563
0.0006062610314
-1.32512144e-05
-9.169050555e-06
-0.001202853978
-2.6543423e-05
2.656089993e-05
0.001209056709
-2.656492237e-05
0.0006242662716
0.0006181970467
7.66579714e-07
-0.0003280180229
-8.030454318e-07
0.0003280544887
-0.0003314485894
0.0003314581005
8.180035761e-07
2.075316663e-06
-0.0001660869496
1.004834008e-06
-0.0006212124932
2.110169846e-06
0.0006180974893
-0.0006377407337
0.000635721398
2.150980747e-06
2.057129221e-06
-0.0003171714423
-0.0006173510829
1.733334705e-05
-1.733334687e-05
0.0006173510827
-2.046483207e-05
-0.0002141141767
0.0002345790088
3.09832681e-06
-0.000167874198
-3.372532889e-06
0.0001681484041
3.09874487e-06
-0.0003151833557
-1.743301821e-06
-6.905623626e-07
-0.0003138921922
-5.122293451e-07
0.0003150949839
0.0001663040708
-1.22414893e-06
2.831893648e-06
-0.0001679118155
0.0001640240444
3.522853916e-06
-0.000164863247
-2.683651299e-06
2.254364693e-06
-0.0001649764667
-2.217030566e-06
0.0001649391325
2.440224332e-06
2.900424433e-07
0.0001612937776
1.811586044e-05
1.119763226e-05
0.0001369905781
4.198759236e-06
-0.000165622338
-4.478717795e-06
0.0001659022965
-0.0001625566288
0.000159544513
5.45234011e-06
4.209263517e-05
-0.0001634819227
-1.092022357e-05
2.718443401e-06
-0.000163715078
-2.909594819e-06
0.0001639062294
-0.0001649426385
0.0001650448093
4.096588399e-06
3.135066475e-06
-0.0001613975923
-3.219492558e-06
0.0001614820183
-0.0001633138373
0.0001634372667
2.595013976e-06
-6.410969479e-07
-0.0001636981062
-0.0002139164008
0.0002320322612
-0.0001673862151
0.0001671614251
3.32311683e-06
5.199631268e-07
-0.0001640064208
0.0001430216256
-0.0001694697452
-4.567080457e-05
-0.0006587730576
2.206393852e-05
-0.001270562699
-9.154864017e-05
9.262465584e-05
0.00130835409
-0.0001644878102
0.0001647067561
2.035418739e-06
4.999882752e-06
-0.0001640336576
3.973105982e-06
-0.0001650229054
-4.572538555e-06
-0.000166047653
0.0001634643922
3.885044922e-06
-0.000167136202
3.323576755e-06
2.703330542e-06
-0.0001677437731
-2.833755433e-06
1.086590328e-06
-0.0001672845173
-1.141922647e-06
0.0001673398497
1.778223565e-05
1.15538081e-05
-0.000164034663
0.0001346986192
-0.0002110587108
0.0002288409465
-0.0002097021683
-1.805601912e-05
-4.354035857e-05
2.328082774e-07
-0.000166394618
-0.0001646365913
0.0001326500408
-0.0001607536137
2.010394676e-06
-2.039673979e-06
0.000160782893
-0.0001615885001
0.0001621544457
2.569120875e-06
1.530838028e-05
0.000148460178
-4.457231684e-05
-1.278236195e-07
-0.0001694140362
-0.0001675908847
0.0001383269481
0.0002104197606
-4.324521698e-05
-0.0001668845012
-2.018284754e-05
0.0002306026082
8.110367448e-07
0.0001402998933
-0.0001663298986
0.0001342823139
0.000167377381
-5.823833358e-06
-0.0001660322654
1.650656621e-06
-4.533198643e-05
3.518290208e-06
1.591298469e-05
0.000144442565
-0.0001640694438
0.0001346504421
-0.0001644409371
-2.114769133e-06
2.403038809e-06
-0.0001637701924
0.0001629907818
-0.0001648727427
-0.0001605376904
2.842213938e-06
-2.236177522e-06
3.516567533e-06
-0.0001618180804
-0.0001635312449
-0.0001617833516
1.600011101e-05
0.0001463032037
-2.267608219e-06
5.331164615e-06
-0.000164846908
-0.0001664018526
-5.597356361e-06
-0.0001678316809
3.959292069e-06
0.0001662189351
-0.0001664851268
0.0001365482415
-0.001208345083
0.0001048129035
-0.0009031898456
-0.0001192027434
0.0001219753129
0.001021109103
-0.0007798980525
0.0001194869639
-0.0003895221883
-7.974114188e-05
8.52825131e-05
0.0005159128955
-0.0002740437954
6.791916112e-05
-1.370959852e-05
-3.710707016e-05
1.716371197e-05
9.39686749e-05
2.586983389e-06
-0.0003236594277
-2.425410399e-06
7.960981385e-07
-0.0003238238737
-9.197839646e-07
0.0003239475595
-0.0003272435011
0.0003271855119
8.245689265e-07
-0.001256182406
4.447944652e-05
-0.00114751244
-8.874090243e-05
8.675385558e-05
0.00121191375
0.001285735672
-8.986886913e-05
-0.001068154408
9.970248555e-05
-0.0007388378923
-0.0001038128744
0.0001086958847
0.0008598957184
0.0009840453731
-0.0001156068467
-0.000618467149
0.0001027573354
-0.0002645631967
-5.920135743e-05
6.354475983e-05
0.0003741138659
0.0004813536978
-7.547939424e-05
-0.000169341699
4.673069745e-05
-4.728577615e-06
-8.347092455e-06
7.24944993e-06
4.053293653e-05
7.908243827e-05
-1.181408583e-05
1.325121445e-05
-0.0006173510827
-1.325121464e-05
1.004834006e-06
-0.0006173510827
-1.004834007e-06
0.0006173510827
-0.0006281585775
0.0006281585775
1.004834011e-06
-0.001179967141
4.27110952e-05
-0.0009972824848
-8.112184534e-05
8.301693749e-05
0.001076466631
0.001174442773
-8.57634973e-05
-0.0009026537213
9.088356281e-05
-0.0005621164256
-8.541056395e-05
8.975452353e-05
0.0006808582725
0.0008170791211
-0.0001003185766
-0.0004492397402
8.181046711e-05
-0.0001517768222
-3.598182883e-05
4.297824668e-05
0.0002387254374
0.0003395652655
-5.270188978e-05
-8.503713109e-05
2.818578176e-05
-5.30258057e-07
0
1.136740028e-06
6.553736891e-06
2.914188351e-05
-3.372684446e-06
-0.001122095026
3.636850301e-05
-3.812826296e-05
3.87487246e-05
-2.141537749e-05
-0.001110545167
-2.167866132e-05
-0.00102504667
-2.624810035e-05
2.643303937e-05
0.001063726077
0.001190734284
-2.652671304e-05
-0.0009746616026
4.086662661e-05
-0.0007545677429
-6.702945664e-05
7.162611249e-05
0.0008384940193
0.001029671796
-7.863204993e-05
-0.0006625904582
7.585310149e-05
-0.000367604414
-5.926628844e-05
6.693020087e-05
0.0004657514355
0.0006351195956
-8.011268701e-05
-0.0002744958164
5.7569904e-05
-6.085815591e-05
-1.652457283e-05
2.162982841e-05
0.0001178431426
0.0002051890431
-3.157582903e-05
-2.170269061e-05
1.117194313e-05
0
0
0
0
2.268088272e-06
-5.082241987e-08
-0.000811004703
2.151228617e-05
-2.588141401e-05
3.358983237e-05
-0.0007905290511
-1.24849956e-05
-0.0006782838384
-2.250975535e-05
2.407215484e-05
0.0007240508164
0.0009947786542
-2.585884865e-05
-0.0006247410599
3.363994223e-05
-0.0004280635244
-4.194401042e-05
4.903400671e-05
0.0004981775506
0.0007599796318
-6.169446367e-05
-0.0003559659697
4.894289262e-05
-0.0001519308542
-2.595757213e-05
3.416852423e-05
0.0002153102214
0.0004028108236
-5.109922721e-05
-9.669356053e-05
2.602234102e-05
-3.305631914e-06
-1.436974585e-06
3.831090788e-06
2.034406426e-05
8.899472123e-05
-1.166682615e-05
0
7.144271328e-07
0
0
0
0
0
0
-0.0003861922429
6.622216386e-06
-9.587253595e-06
1.718491435e-05
-0.0003700844356
-2.467356265e-06
-0.0002878839183
-1.186772356e-05
1.500995743e-05
0.0003202614767
0.0006211980422
-2.045033832e-05
-0.0002517591119
1.857386941e-05
-0.0001337446821
-1.373414291e-05
2.01873034e-05
0.00017321583
0.0004093692094
-3.459897515e-05
-9.636191015e-05
1.782338773e-05
-1.456525365e-05
-2.400690284e-06
6.237845671e-06
3.500241804e-05
0.0001592467275
-1.834144137e-05
-3.137883736e-06
2.748172402e-06
0
0
0
0
7.466300214e-06
-2.9474231e-07
0
0
0
0
0
0
0
0
-7.255518402e-05
6.271886006e-07
-1.384481923e-06
4.293038409e-06
-6.608458804e-05
2.532924739e-07
-3.650173441e-05
-1.283895015e-06
3.175642151e-06
4.742597362e-05
0.0002329151616
-8.694023831e-06
-2.558590919e-05
3.219434133e-06
-2.695064086e-06
-6.095358781e-08
1.155732859e-06
7.658032711e-06
0.0001122249567
-8.215785065e-06
-2.763806299e-07
3.904229148e-07
0
0
0
0
1.298742172e-05
-4.164875492e-07
0
0
0
0
0
0
0
0
0
0
0
0
0
0
0
0
0
0
0
1.975539293e-07
0
0
0
0
0
0
1.671290158e-05
-2.128990003e-07
0
0
0
0
0
0
5.299073723e-07
0
0
0
0
0
0
0
0
0
0
0
0
0
0
0
0
0
0
0
0
0
0
0
0
0
0
0
0
0
0
0
0
0
0
0
0
0
0
0
0
0
0
0
0
0
0
0
0
0
0
0
0
0
0
0
0
0
0
0
0
0
0
0
0
0
0
0
0
0
0
0
0
0
0
0
0
0
0
0
0
0
0
0
0
0
0
0
0
0
0
0
0
0
0
0
0
0
0
0
0
0
0
0
0
0
0
0
0
0
0
0
0
0
0
0
0
0
0
0
0
0
0
0
0
0
0
0
0
0
0
0
0
0
0
0
0
0
0
0
0
0
0
0
0
0
0
0
0
0
0
0
0
0
0
0
0
0
0
0
0
0
0
0
0
0
0
0
0
0
0
0
0
0
0
0
0
0
0
0
0
0
0
0
0
0
0
0
0
0
0
0
0
0
0
0
0
0
0
0
0
0
0
0
0
0
0
0
0
0
0
0
0
0
0
0
0
0
0
0
0
0
0
0
0
0
0
0
0
0
0
0
0
0
0
0
0
0
0
0
0
0
0
0
0
0
0
0
0
0
0
0
0
0
0
0
0
0
0
0
0
0
0
0
0
0
0
0
0
0
0
0
0
0
0
0
0
0
0
0
0
0
0
0
0
0
0
0
0
0
0
0
0
0
0
0
0
0
0
0
0
0
0
0
0
0
0
0
0
0
0
0
0
0
0
0
0
0
0
0
0
0
0
0
0
0
0
0
0
0
0
0
0
0
0
0
0
0
0
0
0
0
0
0
0
0
0
0
0
0
0
0
0
0
0
0
0
0
0
0
0
0
0
0
0
0
0
0
0
0
0
0
0
0
0
0
0
0
0
0
0
0
0
0
0
0
0
0
0
0
0
0
0
0
0
0
0
0
0
0
0
0
0
0
0
0
0
0
0
0
0
0
0
0
0
0
0
0
0
0
0
0
0
0
0
0
0
0
0
0
0
0
0
0
0
0
0
0
0
0
0
0
0
0
0
0
0
0
0
0
0
0
0
0
0
0
0
0
0
0
0
0
0
0
0
0
0
0
0
0
0
0
0
0
0
0
0
0
0
0
0
0
0
0
0
0
0
0
0
0
0
0
0
0
0
0
0
0
0
0
0
0
0
0
0
0
0
0
0
0
0
0
0
0
0
0
0
0
0
0
0
0
0
0
0
0
0
0
0
0
0
0
0
0
0
0
0
0
0
0
0
0
0
0
0
0
0
0
0
0
0
0
0
0
0
0
0
0
0
0
0
0
0
0
0
0
0
0
0
0
0
0
0
0
0
0
0
0
0
0
0
0
0
0
0
0
0
0
0
0
0
0
0
0
0
0
0
0
0
0
0
0
0
0
0
0
0
0
0
0
0
0
0
0
0
0
0
0
0
0
0
0
0
0
0
0
0
0
0
0
0
0
0
0
0
0
0
0
0
0
0
0
0
0
0
0
0
0
0
0
0
0
0
0
0
0
0
0
0
0
0
0
0
0
0
0
0
0
0
0
0
0
0
0
0
0
0
0
0
0
0
0
0
0
0
0
0
0
0
0
0
0
0
0
0
0
0
0
0
0
0
0
0
0
0
0
0
0
0
0
0
0
0
0
0
0
0
0
0
0
0
0
0
0
0
0
0
0
0
0
0
0
0
0
0
0
0
0
0
0
0
0
0
0
0
0
0
0
0
0
0
0
0
0
0
0
0
0
0
0
0
0
0
0
0
0
0
0
0.0001646270783
-1.987327184e-06
2.591445196e-06
-2.876399249e-06
0.0001649120323
0.0001644703503
2.40114239e-06
-2.196861234e-06
-0.0003282116201
2.007835491e-06
0.0003290254794
-0.0003290468711
-2.175469569e-06
-3.196955742e-06
0.0001646787572
-0.0006703166856
0.0006701659324
-1.83588047e-05
0.0003343743497
-7.186352682e-06
-0.0006698956814
-6.180661834e-06
-0.0006581669835
6.434612751e-06
-0.0003133418795
0.0003155524551
-2.901138021e-06
-0.0003270561976
3.576126598e-06
-0.0001645456591
2.226466615e-06
-0.0001634669966
-2.474548013e-06
2.951132746e-06
-0.0003260115029
-1.860545936e-06
-1.674379787e-06
0.0001632471545
0.0001633481414
-9.169050553e-06
-0.0006317616336
9.16905056e-06
-0.0006208426904
-7.367107223e-06
0.0003081547137
0.0003108860333
-2.063550613e-07
-1.370048641e-06
-0.0003117654758
1.783372687e-05
-0.0006383553902
0.0006381979596
-1.767629633e-05
4.613833177e-06
-5.216411305e-06
-0.0006371381556
-3.077209387e-06
-0.000622531608
4.396324234e-06
-5.927817332e-06
-0.0006539826654
-0.0006416322098
4.742591785e-06
-0.0006425309191
1.794698498e-05
0.000642417661
-0.0006137480267
0.0006137480267
1.73333471e-05
1.733334639e-05
-0.0006242662736
-9.176902328e-06
-8.156442035e-06
0.0003116831721
0.0003125830995
2.005965564e-06
-0.0006621368915
0.0003303488592
0.0003315842659
1.605479887e-06
5.054453516e-08
-2.777571842e-08
-0.0003314713583
1.67033915e-07
-0.000328104097
-8.095986176e-08
-0.0003325221994
-1.448337619e-07
-0.0003324876724
2.177575215e-06
0.0003323160627
-0.0001675087257
2.79252547e-06
2.178100059e-06
-0.0001675474655
1.758851822e-06
-2.0879542e-06
0.0003177251442
-0.0003162896702
0.0003170804993
9.680227269e-07
1.161733229e-06
-0.0003156273252
0.0003201625772
-2.384870131e-06
-0.0003200107711
2.585397025e-06
-2.583209216e-06
0.0001602437917
0.0001599165977
0.0003191972689
-0.0003188687868
1.223355541e-06
-1.124665751e-06
0.0003187700971
-0.0003226001751
0.0003224414336
9.54839679e-07
2.369011969e-06
-0.0003223267514
0.0006446830821
2.395368395e-06
-0.0006458713462
8.794971108e-07
-1.380944808e-07
0.0003213415044
1.872181784e-06
0.0003203032303
1.635250513e-07
-0.0003272399922
-0.000649333323
0.0003253005671
-1.35112466e-07
2.059001781e-07
-0.0006498006028
3.552094789e-06
-4.156116621e-06
0.0001675656973
-0.0001664433132
0.0001667465949
3.248813009e-06
2.511537817e-06
-0.0001661142055
-5.376139114e-06
5.663121499e-06
-0.0001613080546
0.0001587265376
-0.0001605861092
-0.0003251712661
0.0001625653258
0.0001629441182
1.975867061e-06
-0.0001630632377
2.187585055e-06
-0.0001613750524
-2.210124883e-06
0.0001666548007
-3.852144744e-06
-0.0001666272591
4.956529927e-06
-4.786856067e-06
-2.124105662e-06
-0.0003329269653
2.201655513e-06
0.0001662188461
0.0001666305693
-0.0003338213422
-1.239534199e-06
0.0001668860592
0.0001671373019
2.609563059e-06
-0.0001672924476
0.0003337549975
-9.380172537e-07
-0.0003337455531
1.683237571e-06
-1.749582298e-06
1.574908204e-06
-0.0003345702226
0.0001673598464
-0.0003343956105
3.185900578e-06
0.0001617577538
-1.809503166e-06
-0.0003213303137
0.0001611793914
-0.0003211265441
-5.041565108e-06
4.606523036e-06
-0.0001624684259
-0.0001625675101
2.625706529e-06
0.0001597301683
0.0001600975852
-1.729545556e-06
-1.526645645e-06
0.0001605883054
1.665881009e-06
-6.091800745e-06
-0.001209201563
6.091800764e-06
-0.001223892997
-5.086966736e-06
0.0006101449706
0.0006137480267
1.32512144e-05
-0.0006137480267
0.001223892997
2.656492237e-05
-0.001222907112
-1.023669002e-05
1.023669001e-05
-1.023798976e-05
-3.077209376e-06
-0.0006281585775
-0.001238305222
0.0006209541388
3.077209387e-06
7.15948064e-06
-0.001238305222
0.0003291387317
-6.545397284e-07
-0.0003292872374
1.618829158e-06
-1.526968558e-06
1.461697723e-06
1.665214095e-06
0.0003313677946
-0.0003304309631
0.0003305692087
-0.0003302674993
-0.0003302714785
0.0001653529655
-1.783722942e-06
-1.471186377e-06
-1.877739451e-06
0.0001656666172
0.0001660250935
0.0006329484546
-2.797664265e-06
-0.0006280406205
1.875111099e-05
-6.64534673e-06
5.086966753e-06
3.573778602e-06
0.0006340198012
-0.0006321890444
0.0006291174763
-0.0006328357279
-0.0003127379654
-1.360581884e-06
-4.942691139e-06
0.000312490302
0.0003142027582
0.0003155725954
0.0003171866374
-2.458767172e-06
0.0006209541388
-0.0006209541393
2.141537748e-05
-1.019742661e-05
2.14153775e-05
0.0001675652784
-0.0001676142345
3.859438633e-06
2.593806489e-06
-1.927252728e-06
1.362099705e-06
0.0001586769092
0.0001589687432
0.0001594375302
0.0001589860677
-7.424139046e-07
-0.0003165491152
2.10817333e-06
0.0003166403327
-0.0003160206469
-9.85286177e-07
0.0003151999969
-0.000314550493
1.473727085e-07
-1.306758574e-06
-0.0001667566516
3.258646609e-06
-3.613173852e-06
3.603117214e-06
-3.268788286e-06
-0.0001650329413
3.438482623e-06
0.0001663095059
-0.000165975177
0.0001656474727
2.921108772e-06
2.827299951e-06
0.0001647349919
-3.404277618e-06
-0.0001642403091
2.797153364e-06
-2.93490413e-06
2.933190419e-06
3.926508239e-06
-0.0001654030139
-0.0001647107031
0.0001614127174
-2.699635688e-06
-0.0001619325743
4.161808913e-06
-3.335200643e-06
4.335772707e-06
2.839212266e-06
-0.0001623140688
-0.0001624186905
3.353378952e-06
-0.0001662803851
-0.000166809413
6.365189465e-05
-0.001321936202
-6.332002864e-05
0.0006590037107
0.0006627922839
-0.001336963881
0.0006661502777
0.0006703545261
-2.192267435e-05
-0.0006703670028
0.001329071176
-0.001296979809
-7.897490875e-05
-7.853979949e-05
2.933234535e-06
0.0001646008216
-0.0001647268487
0.000164783684
-0.0001647426313
5.301577014e-06
-4.005646579e-06
4.046699274e-06
-3.655504634e-06
3.10294954e-06
0.000165303227
-2.089226132e-06
-0.0001675877166
1.933169641e-06
0.0001676554645
-0.0001675665905
0.0001674480496
-1.230125904e-06
1.48740117e-06
-1.605942096e-06
-0.0001674549603
-4.308464082e-06
-0.0001612682554
3.697932276e-06
-0.0001617070781
0.000161541349
-2.401631576e-06
3.213796491e-06
-3.379525531e-06
2.728434016e-06
3.922708309e-06
-0.0001619252431
-5.997277509e-06
6.316360282e-06
0
0
0
1.690695332e-08
0
0
0
0
0
-0.0003261080545
2.609661879e-06
-2.070268075e-06
2.066685282e-06
-0.0003261044718
-0.0003271285007
-0.001290137554
-4.626302129e-05
0.0006468436154
6.260217203e-05
-6.184237452e-05
-0.001286910342
-0.001305272182
-0.001137954254
0.001212121315
-0.000101517246
0.0001114570283
-0.0001090636003
-0.001048956349
0.0001137341448
-0.001087539238
-0.0006955563902
0.0008223998259
-0.000106267995
0.0001032741871
-9.735629901e-05
-0.0005724219391
0.000107516904
-0.0006105037026
-0.0002252401858
0.0003305128211
-5.346744323e-05
4.096245797e-05
-3.676773177e-05
-0.0001362110674
4.440149508e-05
-0.0001535432364
0
1.490504106e-06
0
0
0
0
0
0
0
0
0
0
0
0
0
0
-0.0006242662716
1.325121511e-05
-9.16905055e-06
9.169050543e-06
-0.0006242662716
-0.0006281585775
-0.001230875685
-4.280915587e-05
5.86926882e-05
-5.847112981e-05
-0.001200674871
5.893760125e-05
-0.001226763752
-0.0009892370568
0.001078532725
-9.28319469e-05
9.645963156e-05
-9.773638643e-05
-0.000884403158
0.000103087512
-0.0009320015754
-0.0005357414172
0.0006560628152
-8.61650587e-05
8.180637422e-05
-7.74103554e-05
-0.0004163231226
8.764644016e-05
-0.0004549800534
-0.0001264260788
0.0002060513043
-3.281575885e-05
2.348336016e-05
-1.891561527e-05
-6.205561405e-05
2.72263255e-05
-7.840891502e-05
0
0
0
0
0
0
0
0
0
0
0
0
0
0
0
0
-0.001178861881
0.001180265127
2.235916306e-05
-6.086871672e-06
5.906935362e-06
-0.001174358527
-0.001194851323
-0.001097696462
0.001136782379
-4.165439349e-05
5.65804073e-05
-5.531603057e-05
-0.001043390013
5.747977427e-05
-0.001095307676
-0.0007958253881
0.0008907754559
-8.077451277e-05
8.732626968e-05
-8.231364726e-05
-0.0006920991853
9.148837277e-05
-0.0007474779805
-0.0003657679282
0.0004729683264
-6.464512069e-05
5.91264672e-05
-5.293622791e-05
-0.0002657888431
6.456430963e-05
-0.0003008349804
-4.784963598e-05
0.0001034033555
-1.493730054e-05
8.337746218e-06
-5.960074871e-06
-1.290892196e-05
1.211803247e-05
-2.272379139e-05
0
0
0
0
0
0
0
0
0
0
0
0
0
0
0
0
-0.0009759568436
0.000994219834
1.540663681e-05
-2.720634469e-06
1.077742878e-06
-0.0009492337461
-4.166919669e-06
-0.001027561647
-0.0008127939941
0.000867936129
-3.619290882e-05
4.860919168e-05
-4.521387466e-05
-0.0007483520542
5.139602937e-05
-0.000834023734
-0.000511539053
0.0005959366772
-5.657538355e-05
6.246057205e-05
-5.45345091e-05
-0.0004248765634
6.981502855e-05
-0.0004961230524
-0.0001808532269
0.0002564166711
-3.390652795e-05
3.163006856e-05
-2.439648722e-05
-0.0001151892724
3.897229271e-05
-0.0001518969263
-4.01262953e-06
2.455651391e-05
-2.120466502e-06
8.241771025e-07
-1.54453085e-07
0
1.984947493e-06
-3.12267972e-07
0
0
0
0
0
0
0
0
0
0
0
0
0
0
0
0
-0.0005788912228
0.0005982996493
4.370018209e-06
3.241896827e-06
-3.973006294e-06
-0.0005518589499
2.074463562e-06
-0.0006575786803
-0.0004300374418
0.000476711054
-2.288243661e-05
3.155773464e-05
-2.616737477e-05
-0.0003786967057
3.661985981e-05
-0.0004702291281
-0.0002119666476
0.0002678747528
-2.512006929e-05
2.940789469e-05
-2.151021305e-05
-0.0001584420879
3.774811838e-05
-0.0002184134632
-3.397076444e-05
6.728972444e-05
-6.672634496e-06
6.388474235e-06
-2.68113647e-06
-1.145009951e-05
1.145427678e-05
-2.833748669e-05
0
0
0
0
0
0
0
0
0
0
0
0
0
0
0
0
0
0
0
0
0
0
0
0
-0.0001917646978
0.0002032802041
-1.533361847e-07
3.398916124e-06
-2.555523162e-06
-0.0001761295173
3.99876607e-06
-0.0002564601156
-0.0001114692248
0.0001351110702
-6.261080811e-06
1.032864266e-05
-6.078872903e-06
-8.717331441e-05
1.528450046e-05
-0.000144054506
-2.335377315e-05
4.172714737e-05
-2.40635929e-06
3.852194015e-06
-1.018333175e-06
-9.786973556e-06
8.402981817e-06
-3.039728838e-05
0
8.523558003e-09
0
0
0
0
6.76374922e-09
0
0
0
0
0
0
0
0
0
0
0
0
0
0
0
0
0
0
0
0
0
0
0
0
0
-6.496017193e-06
8.171806506e-06
-1.403601462e-09
2.323718716e-07
-2.772733815e-09
-4.596600414e-06
8.116681036e-07
-2.245388198e-05
-1.742727194e-07
1.191970938e-06
0
1.440803019e-08
0
0
7.376269694e-07
-2.64136402e-06
0
0
0
0
0
0
0
0
0
0
0
0
0
0
0
0
0
0
0
0
0
0
0
0
0
0
0
0
0
0
0
0
0
0
0
0
0
0
0
0
0
0
0
0
0
0
0
0
0
0
0
0
0
0
0
0
0
0
0
0
0
0
0
0
0
0
0
0
0
0
0
0
0
0
0
0
0
0
0
0
0
0
0
0
0
0
0
0
0
0
0
0
0
0
0
0
0
0
0
0
0
0
0
0
0
0
0
0
0
0
0
0
0
0
0
0
0
0
0
0
0
0
0
0
0
0
0
0
0
0
0
0
0
0
0
0
0
0
0
0
0
0
0
0
0
0
0
0
0
0
0
0
0
0
0
0
0
0
0
0
0
0
0
0
0
0
0
0
0
0
0
0
0
0
0
0
0
0
0
0
0
0
0
0
0
0
0
0
0
0
0
0
0
0
0
0
0
0
0
0
0
0
0
0
0
0
0
0
0
0
0
0
0
0
0
0
0
0
0
0
0
0
0
0
0
0
0
0
0
0
0
0
0
0
0
0
0
0
0
0
0
0
0
0
0
0
0
0
0
0
0
0
0
0
0
0
0
0
0
0
0
0
0
0
0
0
0
0
0
0
0
0
0
0
0
0
0
0
0
0
0
0
0
0
0
0
0
0
0
0
0
0
0
0
0
0
0
0
0
0
0
0
0
0
0
0
0
0
0
0
0
0
0
0
0
0
0
0
0
0
0
0
0
0
0
0
0
0
0
0
0
0
0
0
0
0
0
0
0
0
0
0
0
0
0
0
0
0
0
0
0
0
0
0
0
0
0
0
0
0
0
0
0
0
0
0
0
0
0
0
0
0
0
0
0
0
0
0
0
0
0
0
0
0
0
0
0
0
0
0
0
0
0
0
0
0
0
0
0
0
0
0
0
0
0
0
0
0
0
0
0
0
0
0
0
0
0
0
0
0
0
0
0
0
0
0
0
0
0
0
0
0
0
0
0
0
0
0
0
0
0
0
0
0
0
0
0
0
0
0
0
0
0
0
0
0
0
0
0
0
0
0
0
0
0
0
0
0
0
0
0
0
0
0
0
0
0
0
0
0
0
0
0
0
0
0
0
0
0
0
0
0
0
0
0
0
0
0
0
0
0
0
0
0
0
0
0
0
0
0
0
0
0
0
0
0
0
0
0
0
0
0
0
0
0
0
0
0
0
0
0
0
0
0
0
0
0
0
0
0
0
0
0
0
0
0
0
0
0
0
0
0
0
0
0
0
0
0
0
0
0
0
0
0
0
0
0
0
0
0
0
0
0
0
0
0
0
0
0
0
0
0
0
0
0
0
0
0
0
0
0
0
0
0
0
0
0
0
0
0
0
0
0
0
0
0
0
0
0
0
0
0
0
0
0
0
0
0
0
0
0
0
0
0
0
0
0
0
0
0
0
0
0
0
0
0
0
0
0
0
0
0
0
0
0
0
0
0
0
0
0
0
0
0
0
0
0
0
0
0
0
0
0
0
0
0
0
0
0
0
0
0
0
0
0
0
0
0
0
0
0
0
0
0
0
0
0
0
0
0
0
0
0
0
0
0
0
0
0
0
0
0
0
0
0
0
0
0
0
0
0
0
0
0
0
0
0
0
0
0
0
0
0
0
0
0
0
0
0
0
0
0
0
0
0
0
0
0
0
0
0
0
0
0
0
0
0
0
0
0
0
0
0
0
0
0
0
0
0
0
0
0
0
0
0
0
0
0
0
0
0
0
0
0
0
0
0
0
0
0
0
0
0
0
0
0
0
0
0
0
0
0
0
0
0
0
0
0
0
0
0
0
0
0
0
0
0
0
0
0
0
0
0
0
0
0
0
0
0
0
0
0
0
0
0
0
0
0
0
0
0
0
0
0
0
0
0
0
0
0
0
0
0
0
0
0
0
0
0
0
0
0
0
0
0
0
0
0
0
0
0
0
0
0
0
0
0
0
0
0
0
0
0
0
0
0
0
0
0
0
0
0
0
0
0
0
0
0
0
0
0
0
0
0
0
0
0
0
0
0
0
0
0
0
0
0
0
0
0
0
0
0
0
0
0
0
0
0
0
0
0
0
0
0
0
0
0
0
0
0
0
0
0
0
0
0
0
0
0
0
0
0
0
0
0
0
0
0
0
0
0
0
0
0
0
0
0
0
0
0
0
0
0
0
0
0
0
0
0
0
0
0
0
0
0
0
0
0
0
0
0
0
0
0
0
0
0
0
0
0.0006630464234
1.833661628e-05
-0.0006629957056
-1.469760258e-05
1.480638974e-05
0.0006629376362
-1.44547567e-05
0.000658235437
0.0002727448647
9.243234309e-06
9.177859028e-06
-5.261849098e-05
0.0003161854966
0.0003155778278
9.177333953e-06
2.075994174e-06
0.0001642167381
-0.0001635237032
0.0001637391514
-1.422419538e-05
0.0006539943114
-0.0006504799888
0.0006501987702
-1.394297682e-05
-1.794009656e-05
-0.0003343575338
0.0003342757316
-1.394509125e-06
-2.227601235e-06
-2.28912903e-06
2.495144517e-06
-0.0003185062626
0.0003198378765
-0.0003198819022
-2.245103319e-06
-2.445216588e-06
-1.816202136e-06
1.68903708e-06
0.0001665655925
-1.751225283e-06
-2.713007882e-06
-2.343633238e-06
2.220412715e-06
-2.700879977e-06
-0.0001658226118
-1.627180984e-06
-0.0003153976595
1.827463589e-06
-2.51033962e-06
2.685275501e-06
-1.617531338e-06
1.502917748e-06
0.0001151369247
-0.001124070092
0.001239493646
-0.001158561639
0.001057685058
-0.0009404461204
-0.0001206667563
-0.0001184602141
0.0001122351355
-0.0006479411828
0.0008164816367
-0.0006829459933
0.0005484450939
-0.0004185295925
-0.000100367113
-9.513253247e-05
4.966651994e-05
-0.0001741079174
0.0002988119378
-0.0001940201133
0.0001086168895
-4.943321784e-05
-3.217909935e-05
-2.762048408e-05
-2.037321522e-06
-0.0003238196798
2.197573623e-06
0.0003249870146
-0.0003249576509
0.0003250514511
-6.706679327e-07
1.609642837e-06
-1.51584265e-06
1.737522515e-06
1.518708927e-06
-0.0003261016055
-0.0003259477045
6.073163127e-05
-0.001243361489
0.001274920253
-0.001267500362
0.0006347812881
0.001236724824
8.796789247e-05
-0.001180444742
-7.354857446e-05
7.558587211e-05
-6.574090402e-05
-7.71243162e-05
-0.001261971153
0.0001060552139
-0.0009694362254
0.001105033936
-0.001009350268
0.0009020157358
0.0001114211577
-0.0007805209946
-0.0001086123472
0.0001120353835
-0.000105187734
-0.0001154166645
-0.0009420261058
9.257580772e-05
-0.0004937794001
0.0006533924067
-0.0005314404902
0.0004092498376
7.013659051e-05
-0.000295941161
-7.922522107e-05
8.523053707e-05
-7.467077696e-05
-9.072578887e-05
-0.0004476887539
3.124630342e-05
-9.611312372e-05
0.0001957641906
-0.0001166428808
5.435391991e-05
9.604637633e-06
-1.502165569e-05
-1.787817819e-05
2.15707213e-05
-1.398002966e-05
-2.487669058e-05
-6.733084582e-05
-2.169642731e-05
-9.169050559e-06
-0.0006173510827
9.169050562e-06
0.0006209541388
-0.0006209541388
5.086966738e-06
-0.0006242662716
5.086966735e-06
1.004834013e-06
-0.0006242662716
5.808702795e-05
-0.001137805893
0.001208604062
-0.001172798355
0.00111573997
8.438643123e-05
-0.001038939662
-7.181762201e-05
7.264581009e-05
-7.061967972e-05
-7.327399931e-05
-0.001149673417
9.480945527e-05
-0.000795857069
0.000944984083
-0.0008418611573
0.0007281896572
9.550210353e-05
-0.0006092110853
-9.444407908e-05
9.879463771e-05
-9.053112256e-05
-0.000103752894
-0.0007740920179
7.106609573e-05
-0.0003392612747
0.0004922093211
-0.0003796124181
0.0002745289558
4.82010676e-05
-0.0001816429295
-5.762893112e-05
6.339595435e-05
-5.06150321e-05
-6.822310764e-05
-0.0003052271397
1.562472236e-05
-3.504233783e-05
0.0001045637094
-4.70849432e-05
1.181543352e-05
1.847855498e-06
-5.159366519e-08
-6.055368293e-06
8.11697022e-06
-4.055497555e-06
-1.136781173e-05
-1.977016478e-05
-1.165976542e-06
-3.87426796e-05