/*--------------------------------*- C++ -*----------------------------------*\
| =========                 |                                                 |
| \\      /  F ield         | OpenFOAM: The Open Source CFD Toolbox           |
|  \\    /   O peration     | Version:  v2012                                 |
|   \\  /    A nd           | Website:  www.openfoam.com                      |
|    \\/     M anipulation  |                                                 |
\*---------------------------------------------------------------------------*/
FoamFile
{
    version     2.0;
    format      ascii;
    class       volScalarField;
    location    "1.65";
    object      p;
}
// * * * * * * * * * * * * * * * * * * * * * * * * * * * * * * * * * * * * * //

dimensions      [0 2 -2 0 0 0 0];


internalField   nonuniform List<scalar> 
3019
(
833.5452714
832.9034888
831.1812681
827.3581513
821.3863834
808.400574
786.4508624
750.5630359
695.7136842
615.4619212
504.3485124
360.7043352
833.9527916
833.6390832
832.5700767
829.9887372
824.0725569
813.2639534
794.0964932
765.1967733
716.4250826
642.7878899
537.2717763
395.7093803
834.8643429
835.2834784
835.7540541
835.6449348
832.2254088
826.0704718
813.5716724
789.4284537
749.7868555
685.0272383
580.7422854
424.6396422
835.6982993
837.1534772
839.8769544
843.287665
843.6150183
844.3999485
841.9322068
828.061782
804.4643117
751.8952037
647.1459559
472.4992278
835.4188341
838.0550689
843.3406723
851.0939266
855.4929237
865.5477018
875.7029684
877.7542244
876.2918534
849.7644901
764.5280461
562.8166035
832.8551186
836.6655814
844.4258162
856.450336
866.6215664
885.8632947
910.3434909
930.8667971
963.2853466
992.0891189
979.250648
805.051626
826.8903166
831.7209772
841.6236482
857.379622
873.1521532
901.0255909
938.6064763
978.9156781
1051.140543
1157.812537
1307.183012
1432.124165
816.5644105
822.1284054
833.5670335
851.9535107
872.7943816
906.9333093
953.9713021
1011.113679
1114.985479
1282.98304
1569.052848
2127.742925
801.1550428
807.0669793
819.2192705
838.8166583
863.3874714
900.6477131
951.9760188
1018.756812
1134.974941
1310.234358
1557.640073
1849.814397
780.2753088
786.1105006
798.0729911
817.3152915
844.0467913
880.9874891
931.2288388
999.5280394
1109.321931
1260.066667
1431.558131
1578.779447
753.9294291
759.2934488
770.2241233
787.5752188
815.0272645
848.5413816
893.3058266
956.9827138
1051.494585
1171.019376
1293.380617
1396.508603
722.4844658
727.0447228
736.3308209
750.3110861
777.7664433
805.0755734
841.2992581
896.0230957
970.9307528
1060.816399
1152.607707
1253.657369
1896.618676
1605.837856
1415.909256
1271.832758
2087.684872
1465.667424
1590.393693
1814.555162
1327.858869
1405.343985
1564.336424
1503.186235
1535.251758
1633.379218
1188.779175
1257.987229
1385.611521
1341.997127
1379.449711
1436.641483
1239.51106
1187.349066
1247.243792
1313.211559
2370.322612
1966.848656
2867.010011
2451.008729
1646.614897
1743.575989
1695.883446
1747.049123
1649.959626
1930.449102
1763.414611
1446.047707
1522.235825
1479.729983
1529.171027
1447.471835
1643.055704
1536.350274
1317.784106
1376.126529
1324.58899
1379.463419
1322.030128
1442.470908
1382.546767
1242.564476
1176.570126
1247.870505
1317.339665
1252.602591
1579.068663
1854.01126
2012.187222
2089.646176
2404.331827
2719.371919
1729.870028
1760.400989
1931.568589
1967.172881
2335.531927
2046.04301
2071.247723
3748.024294
3242.466197
2030.228143
2826.251665
1278.180634
1248.903149
1220.020552
2406.038853
2106.508622
2161.38973
2116.248964
2428.042844
1919.073314
2083.377551
2104.538797
2781.013883
3179.75923
3595.551479
2491.849716
3082.032519
2705.214807
3124.79473
2482.113247
1700.286952
1756.399688
1693.497977
1843.578365
1819.354105
1906.726583
1760.757394
1810.311628
1820.561187
1487.593397
1481.721563
1593.826687
1585.992425
1353.507384
1349.392884
1411.137599
1407.205242
1209.833589
1286.031922
1282.277474
2743.510482
3700.578089
1404.877135
1385.627632
1360.726568
1421.60983
1394.290334
1409.127371
1285.212258
1258.115987
1282.201157
1475.852116
1461.436829
1431.176754
1453.783527
1466.541128
1461.310525
1345.882636
1319.726276
1294.045745
1352.622716
1328.104519
1349.951922
1369.639893
1383.240481
1389.508393
1334.493815
1352.914291
1335.188164
1428.720097
1433.851018
1449.041701
1391.22107
1398.388651
1392.246628
1302.877143
1310.793903
1330.360624
1284.295239
1265.456013
1998.858476
1976.093105
3665.826033
3581.147896
2255.364945
2214.142048
2226.370471
2251.824529
2142.716883
2433.103119
2293.079089
2269.994121
1982.056707
2005.188607
1944.230043
2110.843885
2028.687494
2005.772249
2714.293965
2661.68191
2490.713227
2815.193705
2717.871624
1725.926593
1726.139042
1708.977498
1754.682599
1733.165275
1734.68095
1684.832992
1669.741424
1704.711125
1689.640327
1851.356338
1868.036602
1832.597328
1927.1813
1881.467957
1862.864264
1783.008217
1785.982162
1761.919991
1822.180098
1794.630323
1791.957943
1509.84269
1493.423293
1535.876579
1514.602362
1467.807445
1456.148604
1487.161844
1471.530499
1632.338449
1607.424139
1663.7198
1640.601483
1565.803691
1542.219851
1599.112589
1574.268275
1363.499436
1379.182474
1365.901744
1384.643911
1365.984737
1392.468974
1389.22305
1362.263974
1338.404212
1353.95728
1359.322396
1418.131573
1428.960089
1423.856945
1431.89873
1420.63014
1451.306797
1436.062778
1399.309988
1393.345907
1413.827765
1402.140312
1395.753612
1401.414311
1413.417983
1295.355692
1305.674091
1298.271889
1270.109362
1289.437165
1293.459102
1577.012875
1556.001197
1518.313148
1609.075171
1569.04945
1591.329422
1506.279538
1472.154445
1486.678606
1510.614579
1514.275965
1534.635747
1541.263266
1563.842123
1556.770132
2040.785012
2347.183898
2415.301833
2141.672032
2150.727304
2161.617377
2127.156295
1932.573195
1946.905039
1929.787385
2094.953464
2065.45046
2053.766738
2918.765681
2726.972602
2801.988767
3013.620892
3022.225742
3168.301394
2476.100854
2540.713361
2552.008071
1713.191349
1711.753036
1713.119316
1755.363269
1748.975375
1750.421549
1686.196328
1682.857114
1710.688909
1704.937688
1830.78514
1835.103085
1824.342757
1914.170935
1898.798198
1892.460118
1765.547113
1767.296417
1761.115874
1814.817389
1807.071435
1804.471066
1492.063909
1508.737655
1504.175755
1466.552322
1470.818427
1486.279023
1604.067639
1628.042446
1615.265048
1622.304746
1613.427244
1678.348937
1670.345889
1550.188531
1604.638995
1595.936343
1564.516784
1571.906802
1596.018743
1385.882174
1381.235017
1378.151424
1339.037051
1335.650833
1330.68297
1345.81307
1341.265828
1345.677549
1255.02778
1249.388086
1317.277888
1314.708187
1308.979395
1326.028685
1320.704398
1324.475369
1265.71032
1262.627199
1277.112581
1261.29698
1268.343309
2018.49513
1949.204968
4108.281474
3998.877997
3476.747754
3334.612016
3840.667837
3640.259293
3771.082384
2299.593021
2176.459103
1990.747024
1966.811589
1952.450366
2028.622168
2039.00999
2014.61133
2803.902217
2901.219138
2915.603382
3196.496787
3068.101821
2629.114266
2617.903207
2708.307809
1726.501438
1720.387393
1719.683478
1743.087328
1741.781991
1734.167437
1692.377677
1689.191702
1699.721751
1695.79463
1857.150604
1845.967419
1841.359941
1876.952556
1883.627183
1869.554263
1783.743587
1775.005374
1773.249037
1798.954957
1799.907007
1792.215841
1504.946134
1506.43342
1510.40164
1494.777223
1501.245089
1499.459053
1527.890288
1526.157315
1536.106764
1513.633192
1518.226055
1520.415606
1464.262421
1466.127346
1468.826058
1458.867701
1462.887741
1460.434881
1481.25902
1481.139671
1487.693087
1471.616235
1475.656789
1475.948697
1640.332547
1631.358977
1624.088895
1627.953974
1636.50257
1610.665502
1619.296909
1615.76675
1659.550144
1649.359001
1570.497704
1562.781836
1557.492525
1560.083342
1568.1415
1543.004605
1545.222005
1548.19774
1590.827132
1593.598066
1602.104133
1576.784986
1585.171034
1582.55877
1587.450686
1579.050273
1368.135707
1364.838549
1360.249876
1374.306451
1369.6986
1373.714328
1377.520123
1370.799422
1391.83824
1390.934521
1360.014815
1351.11088
1346.374522
1346.775316
1346.743562
1355.793556
1351.978666
1356.648567
1420.153779
1424.224144
1434.600234
1423.531135
1446.117589
1448.120153
1453.742007
1438.485923
1443.090333
1441.104763
1396.745813
1394.721652
1408.435649
1405.016563
1298.150393
1296.220397
1292.999166
1304.06567
1299.880703
1301.572192
1291.590615
1285.403745
1281.700197
1290.25284
1287.875651
1292.483879
781.8258283
752.0691074
731.3202234
739.2498567
691.5730446
664.6893079
671.5602412
598.2508652
567.7191503
567.8439417
459.2867166
434.9274501
416.5615346
817.2085975
797.8653288
761.7540244
789.0022895
750.836524
704.3021918
732.9544107
659.3139902
611.5996318
627.2175838
506.2573486
468.716787
456.8532932
864.7577621
860.4186784
812.1650658
856.7151298
834.2947767
769.0426656
821.5131522
759.2504108
679.4534759
728.0655764
592.236881
523.0601953
530.5659226
917.7140704
935.2656313
878.2641568
940.7765174
952.2362822
860.1813264
952.1800136
931.9657525
794.1742681
913.6452926
793.0602383
627.7385337
721.0633803
967.9205941
1012.71221
954.9393727
1030.418896
1092.926193
986.3541766
1117.004871
1195.094233
990.4671839
1219.851434
1251.309107
876.5539971
1220.957593
1005.201509
1074.070109
1030.202704
1102.858259
1212.975931
1127.353849
1259.778235
1445.066006
1266.352717
1527.713582
1978.387812
1418.431762
1718.295812
1790.052013
1285.334136
1019.389614
1100.106451
1084.295413
1133.754907
1260.398584
1232.827353
1312.534348
1503.575429
1480.955075
1589.218383
1692.234553
1672.047043
2137.874104
2268.617155
2265.286076
1006.683708
1086.730585
1101.124272
1119.026656
1233.692908
1259.734415
1277.407568
1418.416772
1489.911574
1530.057924
1591.759316
1629.546294
1806.475947
1830.103454
1879.523512
969.565658
1040.692449
1077.96709
1068.43788
1162.052413
1218.995529
1195.660231
1296.425912
1389.38831
1397.046732
1433.081784
1472.05443
1552.742927
1562.207645
1602.20637
912.7561882
970.8003785
1025.111037
992.8382679
1064.858724
1139.669312
1089.997986
1164.750489
1264.313763
1258.863853
1285.039112
1321.113826
1377.769593
1388.487116
1415.983313
950.4031584
1037.626258
1130.007832
1115.349704
1133.269513
1175.648208
1235.060319
1250.088417
1277.429523
1934.676305
1995.562021
1946.293303
1615.990542
1658.921376
1634.318238
1425.579409
1455.719864
1436.126661
1286.34902
1312.339477
1289.653109
2683.867949
2005.216042
1824.708799
1200.37994
1758.958077
1511.765225
1551.947392
1498.83667
1675.782583
1601.899809
1534.946999
1696.523349
1627.837227
1707.418506
1357.648716
1394.929569
1362.442946
1468.729629
1427.058343
1369.751579
1510.850457
1448.95527
1491.433282
1511.876339
1549.201239
1527.554248
1548.813538
1543.348442
1530.290483
1625.114255
1611.565342
1619.685654
1212.766812
1249.072953
1224.089542
1311.971221
1276.022329
1222.166047
1349.548285
1295.433436
1329.883825
1354.238577
1379.68985
1359.652052
1389.688819
1380.949027
1373.424987
1432.047579
1422.780569
1427.367174
1202.379257
1144.018364
1181.202293
1211.386062
1240.732525
1215.923678
1260.968154
1247.435218
1233.044589
1300.947183
1291.992301
1299.29571
2294.102569
2291.669273
2424.296043
1948.91419
2010.656538
2007.883286
2871.40904
3038.97868
3041.763812
2488.165377
2591.366787
2535.653758
1685.471025
1664.744695
1622.66889
1729.114797
1679.489665
1698.825951
1664.317988
1674.435773
1710.935743
1731.740828
1732.24955
1754.137702
1664.084962
1680.641639
1668.407202
1898.213826
1885.003065
1931.519818
1761.670564
1786.540612
1780.979739
1455.604693
1451.237778
1441.526652
1517.643355
1505.456478
1509.791227
1457.349422
1466.380313
1500.003223
1523.167523
1524.602003
1531.19581
1449.406944
1454.044529
1451.852686
1622.853636
1635.927284
1657.859606
1537.926805
1544.874758
1542.648714
1330.626055
1318.275295
1309.77209
1366.00412
1358.507791
1365.787741
1307.205259
1320.864795
1345.895176
1376.345952
1380.017794
1382.823884
1326.471578
1331.487043
1326.766411
1438.067915
1439.948094
1444.715091
1385.59174
1388.435783
1385.671062
1227.971766
1201.181797
1242.509875
1246.853066
1252.377552
1312.583491
1316.640641
1321.646518
1257.785859
1260.413399
1256.207296
1662.480495
1685.925234
1590.978756
1970.508056
1771.284218
1721.677737
1754.394435
1782.651673
2000.254989
2190.279572
2242.485716
2122.595891
2607.616853
2353.612271
2253.215187
2442.526469
2375.767188
2663.852303
1746.766172
1786.112459
1766.632932
1819.910559
1809.099613
1749.418514
1911.888644
1834.384108
1843.797965
2098.168975
2046.902443
1944.616807
2208.912368
2087.582731
2150.997318
1997.035132
2060.462695
2126.745086
3755.280194
3943.343246
3925.565572
3306.573543
3444.516399
3362.549991
1764.690321
2423.486209
2389.529953
2478.326309
1853.826204
3439.701295
2730.038736
2518.025107
1265.557209
1256.6463
1265.541525
1239.545848
1247.991756
1257.173555
1228.732598
1238.514604
1229.933926
2146.649178
2252.083486
2224.28717
2438.146247
2381.156892
2371.213535
2053.541038
2033.989424
2115.914581
2906.904555
2988.814796
2839.570561
3459.375459
3165.959549
2977.093263
3251.731231
3241.720287
3525.439167
2559.999654
2561.448142
2497.704187
3028.157638
2946.319937
2988.310691
2621.744212
2700.60873
2809.091357
1707.019545
1725.282249
1717.365554
1675.034077
1685.928724
1701.92087
1834.964241
1871.478999
1869.39039
1799.886045
1795.336243
1824.346923
1489.004325
1494.58584
1492.737811
1476.788101
1478.146724
1483.502861
1597.069113
1604.629237
1600.701771
1579.127019
1581.924141
1589.501154
1356.928509
1361.313427
1357.701403
1345.519991
1348.815246
1352.660332
1413.53652
1417.30263
1415.358824
1403.310506
1405.508216
1409.612145
1218.863235
1289.656135
1293.251068
1289.899631
1278.510578
1283.037802
1286.302454
3087.169056
3312.895663
1396.88432
1388.755069
1393.31148
1377.181418
1383.078958
1391.352934
1367.129111
1375.012231
1368.883425
1412.281092
1417.682046
1426.971069
1399.867067
1408.628807
1403.164657
1418.421279
1413.767259
1405.106951
1276.268319
1284.13675
1293.051632
1266.200939
1275.168498
1267.222875
1294.781284
1283.075724
1274.293631
1471.694686
1461.275758
1465.492492
1451.05742
1456.348414
1466.761927
1436.497207
1446.265395
1440.96912
1458.227752
1456.12641
1451.570379
1465.008081
1460.569805
1462.433843
1456.881624
1458.63714
1463.272295
1334.633761
1326.48484
1334.339118
1311.280574
1318.8411
1327.156893
1301.845516
1310.427287
1302.720649
1344.534363
1351.486947
1359.317583
1335.408932
1343.52582
1336.365496
1362.024485
1350.776942
1342.777074
1373.71681
1377.028706
1373.098227
1386.179954
1383.830319
1387.8431
1331.321771
1336.476758
1340.305431
1430.428151
1435.175802
1433.058992
1439.040413
1437.109802
1432.17554
1446.859702
1442.011815
1444.071353
1393.215015
1390.983167
1388.507485
1396.686892
1393.706419
1395.612736
1388.896315
1391.433935
1394.604957
1306.182388
1311.362846
1307.711573
1260.322203
1262.478105
1270.074194
3815.907949
3903.888029
3724.911926
4133.208303
4157.245132
3477.998482
3574.625049
3699.836939
2238.097066
2198.452188
2186.983979
2213.081606
2207.302355
2247.016111
2135.902938
2170.355098
2176.840323
2382.420665
2384.756884
2437.778738
2289.753931
2335.608323
2336.633707
2318.384757
2328.719295
2281.240572
1983.129049
1976.73378
1998.87514
1937.876475
1956.225626
1962.758207
2081.212958
2074.082384
2103.773526
2022.135569
2046.992745
2053.960719
2703.392755
2629.862528
2633.625914
2604.338633
2617.760277
2684.890737
2494.577107
2554.439977
2542.470327
1719.574395
1719.937941
1726.573181
1710.509402
1713.556926
1713.695591
1747.517008
1748.28341
1755.180121
1733.825986
1741.121493
1740.330389
1680.035643
1684.72451
1688.813499
1675.90905
1680.530012
1675.069516
1699.874354
1702.692274
1707.495316
1692.964614
1697.516117
1694.668631
1855.507381
1851.457218
1863.462557
1829.272694
1840.103527
1843.739896
1911.113317
1905.59421
1921.249931
1876.474568
1890.587453
1895.865166
1777.526453
1776.739222
1785.145679
1761.821152
1768.888134
1769.473246
1812.508367
1810.313759
1819.273035
1793.622484
1801.94504
1803.428124
1656.772046
1663.163009
1670.415917
1645.140545
1654.254335
1648.889735
1361.888594
1365.751859
1369.958064
1342.543771
1345.072085
1341.779993
1420.57064
1419.165322
1415.94446
1427.51047
1422.84572
1422.57678
1419.768283
1421.414453
1425.866092
1397.963088
1401.572744
1399.449239
1404.667202
1403.404366
1399.893012
1411.894987
1407.446663
1408.576937
1293.958318
1297.152278
1301.4313
1275.090548
1279.517316
1274.539095
1570.343451
1556.736939
1562.793387
1543.222638
1550.152558
1563.294876
1524.524848
1537.192843
1530.620272
1595.629593
1603.483259
1616.921097
1576.605672
1590.019074
1582.254124
1605.605785
1597.853364
1584.080244
1494.580298
1500.23819
1512.185532
1477.539441
1488.682497
1483.186399
1497.957423
1493.749738
1482.513985
1511.911706
1518.125105
1516.308531
1520.509846
1519.581704
1513.326321
1532.987036
1526.235904
1527.527656
1548.097943
1546.7708
1539.729466
1561.737489
1554.19287
1555.976773
1550.179831
1552.070246
1559.390731
2860.811854
2899.981807
2970.366475
2754.840897
2827.699799
2789.936151
2895.078932
2863.808214
2781.712533
1497.80514
1496.271259
1490.63674
1507.500964
1501.878239
1503.35744
1498.832564
1500.233052
1505.96956
1468.028631
1472.977016
1471.2031
1475.508373
1474.445281
1469.589806
1485.045545
1479.612223
1480.700298
1612.107697
1608.382344
1600.60362
1623.776338
1616.114978
1620.109035
1608.461288
1612.129066
1619.580329
1566.852183
1574.368153
1571.297035
1579.939979
1577.214131
1569.456354
1592.802716
1585.003604
1587.977902
809.7481147
800.5516739
798.8510003
788.5773342
772.8480083
770.4828425
753.3276063
729.1461002
725.9117262
699.4225647
663.3074575
659.1523152
619.9913904
568.7762331
564.0003822
509.160806
441.0081324
436.4461715
364.7082711
281.1789966
278.0799236
827.3393552
823.9476074
819.4992193
818.8441924
811.903084
804.9509654
802.5703151
789.6192299
774.7907972
769.7311211
759.8964167
755.5514756
722.6581915
707.2290042
701.344535
650.5268175
627.5510026
620.4359718
545.6795649
513.3444695
505.9558212
402.2309341
359.8661464
354.9859293
837.7155646
836.6475384
829.7565975
834.6882773
831.541711
820.8535005
826.8800118
821.7321342
796.5157756
797.8539807
790.6081127
781.4316226
761.5679702
749.0893434
736.4480254
699.7316552
678.2925715
663.4980188
594.4931651
559.7612707
546.8633658
433.5152925
384.7733386
378.0958055
849.7557663
852.2839408
844.1889922
854.8388425
856.9359898
843.7000243
858.4212189
864.7152821
831.6074862
839.6072697
836.4445684
823.733277
820.889105
812.5350292
794.9578688
772.7831254
753.3268656
731.4895567
670.140362
632.7121178
610.309545
489.5828865
429.5545515
415.7975583
862.0128832
868.5382996
860.4229873
876.0881612
884.458416
870.7093607
893.1903505
911.8338227
876.3700797
891.0435976
893.5726218
878.638752
897.0342372
896.0373024
872.9378316
880.8082809
869.9419912
835.8435082
807.0454539
771.8890078
727.6164391
603.8202438
522.7607541
487.5423848
871.3868958
881.8217733
875.6834393
894.3519655
908.9718793
897.4781351
925.7652484
955.7822744
923.2503429
943.8030681
953.3361224
938.5998481
985.9701458
997.7325376
971.4837524
1033.125385
1043.203935
995.3667172
1052.71822
1042.287472
958.699787
912.7499126
812.0593867
707.1378111
874.9571963
888.713704
886.2024886
905.3679612
925.0243409
918.3509863
948.242066
987.2888278
965.0388842
988.953509
1006.170645
994.2751841
1070.343321
1096.734768
1074.218463
1196.208718
1237.261094
1191.184809
1391.243208
1455.047985
1349.307808
870.2889617
886.1389279
888.6244547
905.4366253
928.2429436
928.4580124
955.3095229
998.1352608
991.9327638
1015.361626
1037.940003
1032.762394
1123.925161
1160.09893
1149.560782
1299.12429
1358.052442
1340.047926
855.9379871
872.4354297
880.6621749
892.4846643
916.0574491
924.1398077
943.8987761
985.1247507
996.9548435
1016.363469
1040.777745
1043.306054
1131.855864
1168.977323
1172.542612
1303.130293
1355.434771
1365.562361
831.552
847.2735724
861.2271157
866.2661416
888.3854757
904.0806345
914.2404429
949.8786721
978.1442166
990.9198019
1014.017432
1023.173813
1097.514345
1130.164534
1143.352455
1240.440447
1279.972861
1302.676435
798.0295353
811.6144938
830.6845769
828.0358808
846.9649743
869.2422064
868.8439877
896.2788284
937.9545758
943.2595367
963.1817897
977.8189213
1033.161232
1059.604667
1079.544898
1145.133346
1174.480956
1202.618007
790.4304883
821.925158
880.5313859
878.517307
894.2540976
912.8571596
948.133917
967.9620164
992.4455046
1030.641208
1051.93162
1084.078455
2220.751012
2136.918669
2019.599526
923.8123927
1055.145043
1617.533554
1598.756368
1573.011527
1776.617697
1744.184272
1776.78869
1425.733352
1414.233632
1394.186529
1548.124943
1524.083081
1539.214927
1276.152021
1263.932088
1245.544557
1374.637754
1355.573488
1366.536555
1382.781039
1379.677279
1376.480747
1226.888931
1207.905963
1220.656215
1251.569893
1247.101944
1242.103913
1308.978337
1304.803486
1308.600584
1659.544869
1651.765432
1638.482578
1738.866394
1722.570754
1727.842226
1654.226903
1660.465404
1655.938506
1636.747693
1641.07983
1647.80242
1322.307057
1317.882809
1313.820511
1372.655736
1369.480332
1372.793208
1237.330832
1232.442593
1237.464446
1184.453253
1894.374534
1841.894398
1809.447914
1917.943806
1928.17288
2024.605157
2474.915984
2412.539766
2354.353901
2592.105542
2609.616933
2728.342621
1778.505898
1775.46951
1756.486176
1928.81775
1897.629406
1899.319276
2006.539771
2000.166808
1962.895685
2295.911238
2239.057903
2270.048886
2994.248388
2894.050377
2750.054883
1273.861671
1270.023858
1274.141952
3279.273876
3200.516718
3112.707585
3429.193828
3442.986756
3592.451569
1702.499153
1709.2905
1705.329212
1687.595447
1690.297154
1696.233686
3853.378121
3725.008856
3583.63943
1402.615757
1398.79957
1400.948808
1413.885211
1409.891441
1406.795569
1286.261993
1282.262938
1278.417809
1342.06947
1338.424685
1341.940601
1354.033583
1350.170406
1346.471846
773.2026237
765.957155
775.1341458
743.5718141
755.2291986
763.1366085
743.4700994
748.8566391
736.4533625
725.2292332
715.4277249
730.0451578
680.4951747
698.593854
709.1123398
683.172307
690.2107365
671.2603173
649.8429095
637.6866231
659.8076187
585.8659036
612.5960627
625.1160901
594.3960877
602.6345578
575.1744463
535.0339702
523.7268882
555.7099999
450.3185998
487.9638851
498.3154946
471.0078468
478.975375
441.4932031
372.1435602
366.1604131
408.8833097
320.2523826
324.7202632
311.8861995
316.2863004
811.8066363
800.7465974
807.1196564
784.6544449
793.2737929
805.3900272
772.1540785
782.1883311
772.6081321
778.5151481
763.1661115
774.6503428
734.0518474
749.7416688
765.8867234
721.2121584
734.7841812
718.5468704
711.9594425
694.354201
715.6449528
641.6080088
669.6882165
687.4454679
638.9101033
653.6699367
625.8959984
591.0731463
574.367049
609.8105003
491.7414931
534.9716055
550.7038703
509.245348
521.2663947
479.3475107
403.406279
393.1550146
443.8647979
339.9827659
346.526137
328.7935327
334.0398826
864.0709827
849.8802037
851.8153786
843.4996798
847.230569
862.7612325
818.4780373
832.4596295
827.4245424
851.4131804
831.3210298
838.3040863
810.570649
822.2098915
844.0994019
783.2556114
801.9735839
788.8765465
805.2102988
777.7991248
795.9135483
728.8747122
755.6412009
784.6938616
707.4285738
730.027972
702.4666025
690.3746199
659.0856846
696.8648772
563.8865011
614.9283791
645.3739862
568.8032591
589.8222547
541.6635824
462.1482107
445.4964143
506.7039154
374.7439786
389.0742651
353.5541941
362.5554505
923.6422078
908.5937637
904.4023741
915.8330425
912.4402045
929.4802132
879.0566432
895.5960634
896.7807153
945.6513745
920.4778757
918.6639626
919.161986
920.5986671
949.5911258
867.6955327
893.2279087
888.3884541
949.8899287
907.8272959
914.9617851
879.9540541
896.5171623
943.2717676
817.6043857
854.7450657
834.2086282
886.3944136
824.3623941
856.4547688
725.6529838
781.4228504
847.0359023
682.3515783
727.1715899
671.5505764
628.3789232
568.6535328
655.5581466
464.8389536
513.4951758
404.5306823
429.2403325
981.3722882
967.7712575
956.2129128
993.9064226
980.3906799
996.3925117
946.6041542
963.63343
974.587845
1049.591969
1023.954692
1008.451498
1057.393013
1040.323398
1070.45757
979.3162275
1009.696828
1021.57971
1142.376858
1092.53719
1075.019342
1123.800641
1109.345129
1168.720347
994.8409239
1050.969447
1054.827272
1241.035869
1137.200683
1133.78796
1103.785462
1129.471498
1253.543171
925.9466691
1019.822798
979.1832158
1132.062086
951.1499342
1049.472707
793.0787144
1074.376223
579.4951223
670.2507942
1025.606338
1016.729826
997.7902648
1061.478374
1037.862393
1048.442804
1011.371619
1025.345243
1046.637214
1135.234068
1117.434426
1087.88755
1188.135894
1150.721191
1171.761554
1099.564941
1126.229454
1159.281959
1313.127865
1278.361265
1230.409318
1395.123454
1332.773533
1374.202711
1227.415873
1283.004144
1334.276389
1625.50806
1550.032437
1466.605236
1771.22049
1651.507515
1750.798691
1389.109022
1526.19568
1598.846422
1596.420046
1616.254501
1779.647796
1043.267016
1041.680215
1018.26727
1097.484339
1067.97838
1070.047447
1057.022615
1063.288777
1091.807467
1171.404328
1167.801127
1130.608316
1256.48045
1209.572581
1213.454858
1188.630294
1200.923892
1247.01975
1370.523697
1367.91599
1309.101486
1508.351561
1434.293766
1433.838017
1405.420434
1425.159481
1501.537998
1030.716847
1036.557473
1012.297929
1093.430156
1063.522506
1057.340986
1070.66594
1068.002513
1098.290818
1154.298084
1162.79522
1126.468986
1245.667083
1202.534808
1192.559591
1214.067231
1209.844918
1254.553212
1323.25509
1341.084649
1291.956119
1445.575544
1392.527152
1370.521827
1425.47778
1411.211446
1469.892849
991.2449607
1003.345274
980.9058615
1054.787251
1027.956148
1014.948262
1049.278586
1039.43612
1067.257565
1098.069498
1115.003919
1083.83067
1182.890637
1148.124656
1129.379854
1179.975655
1165.06628
1201.957251
1229.687422
1255.547907
1218.882215
1328.048248
1292.194527
1263.507588
1346.059697
1319.80727
1359.133294
1575.315296
1568.756029
1556.922079
1595.520769
1583.264753
1588.731019
930.6794401
947.4115752
928.4708824
990.0170392
967.9428189
950.0469983
1000.531526
984.8341173
1008.187889
1016.006846
1038.358275
1013.539972
1090.943031
1064.253194
1040.098939
1109.041501
1087.294698
1115.929428
1115.213676
1145.335725
1118.093248
1198.594162
1172.293893
1140.220279
1233.911913
1203.505997
1231.731259
1397.443944
1391.105667
1382.778873
1409.741556
1401.030126
1406.619459
931.0116631
911.1673063
929.152415
1014.753541
988.4577882
1009.419292
1107.201277
1073.143074
1094.246516
1259.295542
1251.031016
1242.527802
1269.317311
1261.068389
1268.443655
1435.351258
1429.124879
1420.122277
1449.47994
1440.060415
1445.422852
1295.096946
1287.151854
1279.114051
1304.609939
1296.746961
1303.796899
2444.911208
2278.695954
2388.357187
1955.193604
2126.121812
2229.98161
1929.834612
2021.631519
1889.394955
1356.784519
1234.503317
1083.541538
1657.350091
1421.42833
1538.940378
1225.603303
1450.100436
1653.345956
1625.502048
1645.959428
1554.170028
1578.241384
1555.536605
1741.066169
1712.699737
1682.393907
1456.144917
1434.874535
1446.83293
1408.592651
1421.841916
1442.444932
1382.040142
1401.696241
1387.61852
1491.518426
1507.794862
1530.496165
1463.632153
1485.328688
1468.118076
1514.924982
1500.738269
1478.096402
1523.980988
1517.672517
1506.788968
1542.820448
1531.366442
1536.534297
1300.306058
1282.164059
1294.117449
1258.977147
1270.384845
1288.640343
1233.582727
1252.087183
1239.517797
1332.183469
1343.897949
1362.790163
1306.897771
1325.29724
1312.505869
1348.009766
1336.890385
1318.517303
1362.592601
1355.789247
1348.011622
1373.168511
1365.164857
1371.093571
1386.892777
1383.542469
1386.19097
1184.580956
1195.853223
1214.911371
1156.225542
1176.42296
1164.750088
1201.240188
1188.440285
1168.349285
1221.497279
1213.453651
1202.873288
1232.233037
1223.617549
1231.28923
1256.264083
1251.967224
1256.176022
1237.716767
1243.511198
1236.461821
1303.934419
1299.907467
1295.711713
2333.815415
2329.855005
2291.160984
2410.694586
2374.654673
2378.27792
1968.032377
1971.610534
1952.769867
2014.159851
1992.460802
1988.381775
1678.652391
1665.112976
1672.413156
1650.470953
1657.552231
1671.475776
1630.346859
1643.845777
1636.414378
1713.586106
1717.279123
1734.114449
1685.825278
1701.074837
1695.572555
1712.946959
1707.2217
1692.605845
1739.428706
1738.264567
1731.48998
1753.311177
1746.084594
1746.707736
1669.856017
1665.011312
1658.971425
1676.518515
1670.832771
1675.333089
1662.600204
1666.516848
1672.492608
1899.676188
1901.905701
1887.199816
1934.54068
1917.754455
1914.949289
1769.622764
1769.304349
1761.376927
1786.632418
1777.859518
1777.821915
1477.264749
1471.006137
1461.095714
1493.757431
1483.367731
1488.542942
1626.912229
1634.121775
1629.478605
1643.679622
1638.762867
1631.35087
1652.621302
1645.887849
1651.06408
1326.230721
1322.535574
1326.658949
1369.351111
1365.557225
1362.236055
1329.250596
1321.776842
1314.035791
1338.747715
1331.06488
1337.618841
1223.30699
1227.557438
1232.473622
1192.650871
1899.434325
1872.665745
1934.053983
2019.40986
1928.055996
1918.788932
2514.45021
2466.698911
2543.720195
2329.379999
2393.017734
2428.349872
2302.661318
2350.212033
2289.958517
2463.824671
2493.628805
2379.753956
2706.80436
2592.612075
2557.10073
1818.276984
1795.994958
1798.230242
1789.353134
1792.760112
1814.935422
1752.410165
1771.837047
1766.924098
1885.795036
1892.323179
1922.194004
1838.916594
1864.557651
1857.165226
1870.161236
1868.968889
1842.58182
2085.310627
2040.914695
2050.067788
2011.598653
2027.569723
2068.203958
1954.679077
1989.674339
1975.388711
2169.617125
2204.656935
2253.413686
2111.453941
2157.216562
2125.972969
2208.363344
2184.820934
2133.380306
1949.175959
2161.303382
2243.386768
2276.277337
2469.410841
3245.067365
3058.740698
3193.443118
2679.859842
2881.522667
3000.511443
2643.838431
2756.391512
2599.827609
1269.954253
1265.321626
1261.235488
2179.954604
2180.246173
2148.364457
2250.082127
2215.088788
2214.661504
2059.529439
2062.712942
2037.92922
2117.941399
2089.410056
2086.397972
3345.231811
3281.987926
3374.198843
3045.47646
3122.366605
3024.732718
3565.632367
3426.314791
3403.145072
1712.557202
1710.846142
1704.647191
1723.94024
1717.799113
1718.735768
1678.417305
1684.360275
1680.81501
1691.303869
1687.843974
1682.168767
1699.046947
1693.505873
1696.712019