/*--------------------------------*- C++ -*----------------------------------*\
| =========                 |                                                 |
| \\      /  F ield         | OpenFOAM: The Open Source CFD Toolbox           |
|  \\    /   O peration     | Version:  v2012                                 |
|   \\  /    A nd           | Website:  www.openfoam.com                      |
|    \\/     M anipulation  |                                                 |
\*---------------------------------------------------------------------------*/
FoamFile
{
    version     2.0;
    format      ascii;
    class       surfaceVectorField;
    location    "2.24";
    object      Uf;
}
// * * * * * * * * * * * * * * * * * * * * * * * * * * * * * * * * * * * * * //

dimensions      [0 1 -1 0 0 0 0];


internalField   nonuniform List<vector> 
6464
(
(99.98456956 0.7930379912 2.110828209e-22)
(99.99834046 0.4039599308 0)
(99.9998862 0.4111251912 3.291050754e-22)
(100.0025101 0.8211949051 -5.079929163e-24)
(100.001487 0.4084805023 8.791781502e-22)
(100.0029187 0.3962064628 -9.987096008e-23)
(100.0191278 0.7741842548 -5.540319142e-22)
(100.0040174 0.3757471028 -9.70321865e-22)
(100.0047892 0.3492141504 9.157586016e-23)
(100.0286601 0.6690853108 1.695611553e-21)
(100.0052593 0.3185826185 4.316165129e-22)
(100.0054182 0.2857965077 0)
(100.0309682 0.5387772945 0)
(100.0053292 0.2526884422 0)
(100.0052134 0.2205321518 7.576653046e-22)
(100.0279464 0.4112645817 1.573787138e-21)
(100.0053965 0.1906588486 -3.840450616e-21)
(100.0052979 0.1614604941 -1.42593568e-21)
(100.0240697 0.2962060029 3.122954162e-21)
(100.0046177 0.1357368543 3.122721123e-21)
(100.0034664 0.1138605055 -8.900348046e-22)
(100.0146911 0.2066154622 -5.636294815e-23)
(100.0008612 0.09816727808 1.728346158e-21)
(100.0095758 0.09712121809 -7.776353018e-21)
(100.0540072 0.2377713256 5.517093555e-22)
(100.0189597 0.2112525594 -2.779378007e-21)
(100.0031005 0.09826241875 -1.632178036e-21)
(100.0068892 0.05689068693 -9.822734192e-22)
(100.0376247 0.1474846668 1.556096247e-20)
(100.0058032 0.0268253125 -7.895189522e-21)
(100.0282493 0.07946514744 -1.659279895e-20)
(100.0252803 0.02525333616 1.50964283e-21)
(99.89988371 1.752381833 -5.443902586e-21)
(99.93272425 1.584823559 -4.626433709e-21)
(99.88612433 1.98571995 -1.831294246e-21)
(99.92213769 1.802105332 -1.712886018e-21)
(99.98951947 1.854124663 1.903524743e-22)
(100.0127612 1.654471791 -3.595841244e-22)
(99.99589336 2.080510454 1.786037525e-21)
(100.0118709 1.87196011 -5.593435377e-22)
(100.079117 1.792024621 -2.160050547e-22)
(100.0713859 1.57076813 -2.155799707e-22)
(100.1014376 1.980025259 -9.154288671e-23)
(100.0976271 1.759671491 1.815098219e-21)
(100.1416002 1.580887197 2.213611961e-21)
(100.1069207 1.363832255 3.842178528e-21)
(100.1698449 1.721407036 3.854168305e-21)
(100.1494838 1.513422212 5.239018325e-22)
(100.1629369 1.290209401 -6.399170993e-21)
(100.1152418 1.099806976 -5.979150409e-21)
(100.1893246 1.386693932 -2.1520185e-21)
(100.1616292 1.210847115 -2.131725645e-21)
(100.1515432 0.9955709182 -5.164808796e-21)
(100.1004331 0.8414237578 4.76088895e-22)
(100.1689276 1.056265645 -1.393617746e-21)
(100.1446068 0.922240562 5.687252026e-21)
(100.0970963 0.5873693551 -1.33390939e-20)
(100.1539928 0.7982471648 -1.333805748e-20)
(100.2179486 0.8676349406 1.35054571e-20)
(100.1348207 0.6689161062 -2.738304099e-20)
(100.1152529 0.5564847724 1.18739791e-20)
(100.1606681 0.5963978688 -1.696188188e-20)
(100.0948345 0.4607939376 2.401390624e-20)
(100.0711367 0.4061742591 2.669575454e-20)
(100.0907097 0.2834058074 2.31005904e-20)
(100.2047506 0.4456737429 -2.269597852e-22)
(100.1552753 0.4953251505 4.819822344e-20)
(100.0914294 0.3923997317 2.633335258e-21)
(100.0665095 0.166602746 -7.212158242e-22)
(100.1472307 0.2752698513 3.320204809e-20)
(100.0540728 0.07694615216 -7.716039654e-21)
(100.1127775 0.1483231396 -1.760657748e-20)
(100.0978598 0.04696480308 7.894060828e-21)
(99.72226295 3.266556029 2.555512005e-19)
(99.63436321 3.446236445 9.021901717e-21)
(99.6612628 3.728174632 6.259083397e-20)
(99.70894797 3.523720291 2.582537315e-19)
(100.0067476 3.434359117 1.938627061e-20)
(99.97140922 3.667682401 7.962933912e-20)
(100.023818 3.920445652 7.609453235e-21)
(100.0602341 3.661717675 7.822902499e-21)
(100.2899562 3.246526302 1.485244395e-19)
(100.3003558 3.507359709 -5.535449674e-21)
(100.3858427 3.688618543 2.377874675e-19)
(100.3669128 3.412537087 1.130929923e-19)
(100.4657142 2.792130476 2.699434476e-21)
(100.5145622 3.044195909 -4.687044013e-20)
(100.6027092 3.155677091 -1.407010061e-20)
(100.5450547 2.897964142 5.766951306e-21)
(100.5155535 2.22396276 -5.960133642e-21)
(100.5856921 2.440724424 -1.380985634e-20)
(100.6623502 2.498738303 -4.838531448e-21)
(100.5831259 2.283782004 5.453273274e-21)
(100.5426193 1.834587108 -1.732916655e-20)
(100.4699184 1.663571182 -1.170377886e-20)
(100.6016312 1.857547771 -1.171956188e-20)
(100.5249084 1.693587774 6.291734564e-21)
(100.3857268 1.131525174 -5.273450219e-20)
(100.5124462 1.379561421 -2.762806384e-20)
(100.6024745 1.373831245 -7.991777808e-20)
(100.4507325 1.148927655 -3.733898371e-20)
(100.2887141 0.7725755818 -6.099158669e-20)
(100.3900877 0.948835903 2.408716778e-20)
(100.4497353 0.9287137068 -2.894038263e-20)
(100.3323286 0.7774219121 -2.532350561e-20)
(100.2538051 0.4334214244 1.053306418e-20)
(100.4359327 0.5964161016 -2.619840958e-20)
(100.4035147 0.7179168442 -1.810289249e-22)
(100.3011398 0.6416000626 -1.504180717e-20)
(100.1876951 0.2536217363 1.553882255e-20)
(100.3164015 0.3648779264 2.771137585e-20)
(100.1517234 0.1167136191 -1.983906227e-21)
(100.2419453 0.1954873311 -4.011230099e-21)
(100.2079315 0.0614932104 0)
(99.40209641 5.314153667 0)
(99.20180339 5.51475188 3.444746907e-19)
(99.30534053 5.926382965 -2.820759222e-19)
(99.41459097 5.668663593 -3.276679709e-22)
(100.163597 5.53670382 -2.872033973e-21)
(100.0934495 5.83856089 -2.887567258e-21)
(100.2558651 6.142183599 -7.377203839e-21)
(100.3092946 5.793213166 -2.853250345e-21)
(100.8261126 5.089070981 -2.431144223e-20)
(100.8506537 5.418189668 6.879891605e-21)
(101.0425808 5.582734375 8.074338623e-19)
(100.9868652 5.231827226 3.461834288e-19)
(101.169037 4.258306045 -2.643042004e-19)
(101.2578065 4.562843774 2.820505917e-19)
(101.4226459 4.623269572 -1.817209539e-20)
(101.3056921 4.316341712 -1.807507549e-19)
(101.2266202 3.290531421 -5.281267834e-22)
(101.3453547 3.548480221 -2.134587873e-19)
(101.4665121 3.539205134 -9.362980383e-20)
(101.3284842 3.291851314 1.631393013e-19)
(101.2231557 2.58909741 0)
(101.1039324 2.398407416 4.655119451e-20)
(101.3041314 2.55752651 0)
(101.1735234 2.376301186 0)
(100.8668855 1.585837976 2.941194758e-20)
(101.0805011 1.857980977 1.896972848e-20)
(101.1759793 1.758056184 -1.714633534e-20)
(100.9421824 1.528446124 3.691642862e-20)
(100.6445463 1.05913143 -3.387125023e-20)
(100.8117695 1.246945781 -1.513058097e-20)
(100.869102 1.159061545 -1.528098823e-20)
(100.692371 1.007633045 -7.335330733e-21)
(100.4840191 0.5235681423 -9.269789475e-21)
(100.7254414 0.662259778 -1.98757383e-20)
(100.7462109 0.8500020108 -2.617189087e-21)
(100.6109492 0.8126893927 5.102423496e-21)
(100.3581591 0.3035677699 7.987191874e-21)
(100.5238306 0.3998014271 1.216365371e-20)
(100.287646 0.138518199 -2.026965234e-21)
(100.3976115 0.2109955489 -3.584936884e-21)
(100.3385663 0.06571151057 -5.168150908e-22)
(98.97962164 8.121392214 0)
(98.5864798 8.382327565 0)
(98.81962951 9.006631457 0)
(99.08311569 8.641375681 0)
(100.7566884 8.24022702 1.235313509e-19)
(100.6395186 8.701459115 0)
(101.0268158 9.060134456 0)
(101.0914941 8.516382902 4.216732716e-20)
(101.9961745 7.140624938 -1.235307415e-18)
(102.0848959 7.589668198 -2.097283531e-19)
(102.4440177 7.673538689 -1.331898239e-18)
(102.293046 7.21285807 -5.551212757e-19)
(102.4418961 5.648737691 9.815870253e-22)
(102.6239913 6.010235097 -4.891404774e-20)
(102.8876973 5.958202594 -9.589893533e-19)
(102.6557727 5.610764631 3.986507453e-19)
(102.3634685 4.207062237 -2.520759709e-19)
(102.5679582 4.483793769 1.446953043e-20)
(102.7220255 4.385501262 -5.269573026e-19)
(102.4933954 4.129226818 -4.691279965e-19)
(102.1941852 3.145289995 -7.23919614e-20)
(102.0071388 2.941384919 -3.909368942e-21)
(102.279389 3.035581161 1.864988084e-20)
(102.0801622 2.85502686 2.286920716e-20)
(101.5241101 1.880043728 -9.598284434e-20)
(101.8332309 2.146253292 -6.086301256e-20)
(101.904067 1.94071948 -3.406689021e-20)
(101.586358 1.741628727 -1.765191471e-20)
(101.117925 1.222448636 1.18216113e-20)
(101.3565324 1.399301428 3.559238618e-20)
(101.3859883 1.244381353 -4.010818281e-21)
(101.1516452 1.113791163 -3.904600826e-21)
(100.7515066 0.5380311099 2.074706783e-21)
(101.0445783 0.6189720286 0)
(101.147446 0.875477838 -1.234261765e-22)
(100.9957785 0.8780659329 -1.067061971e-20)
(100.5509514 0.3045382212 4.572942962e-22)
(100.7440307 0.3666647586 2.07451974e-21)
(100.4377273 0.1367837531 -2.081483868e-21)
(100.5558451 0.187546678 -2.083627018e-21)
(100.4675806 0.05746883785 -2.09775836e-21)
(97.99707315 12.45099986 5.669613629e-20)
(97.21523296 12.83793164 -5.441171758e-22)
(97.54052996 14.00493783 5.763014047e-20)
(98.46577599 13.36519485 -1.619295506e-21)
(102.3697013 12.03523008 0)
(102.1868371 12.90239498 5.40554741e-20)
(103.0754518 13.25669994 0)
(103.0926196 12.25112092 2.73679853e-19)
(104.3557697 9.246589198 1.307683966e-19)
(104.6243094 9.891979155 2.350983742e-19)
(105.2290164 9.737730685 -1.56537614e-21)
(104.8358939 9.118904677 6.925366849e-19)
(104.5315592 6.696337744 -1.343807164e-18)
(104.8867101 7.087335357 -1.489112074e-18)
(105.1907346 6.849889237 -1.331396673e-18)
(104.7853253 6.503353135 -7.732151051e-19)
(103.9790486 4.728273364 -2.122531626e-21)
(104.3056883 4.984850718 3.35185937e-19)
(104.4517344 4.759884187 -1.529398366e-19)
(104.1088485 4.544304271 -7.735693499e-20)
(103.468981 3.367145719 3.480417687e-19)
(103.1915994 3.182414375 -1.247464507e-19)
(103.5278133 3.172689184 -1.373473295e-19)
(103.2477164 3.017256283 -1.637391956e-19)
(102.3071883 1.929820322 2.780367663e-20)
(102.7142662 2.146599038 -2.713011573e-22)
(102.7181355 1.837724437 1.707783073e-20)
(102.3226898 1.708729433 1.271199095e-20)
(101.6599788 1.217463777 -1.674059651e-20)
(101.9674864 1.350089625 -8.555728568e-21)
(101.9375575 1.135607937 -8.55738612e-21)
(101.6525305 1.054986698 1.309496361e-20)
(101.0211842 0.454119262 0)
(101.3523497 0.4565753905 1.391448672e-21)
(101.5475453 0.7427094114 -1.154638843e-20)
(101.4037689 0.8181668282 2.858237419e-20)
(100.7352306 0.2475804968 -5.259767924e-22)
(100.9387822 0.2558103369 -1.643421591e-21)
(100.5748825 0.1079369324 -2.11009186e-21)
(100.68753 0.1213884592 -2.395028152e-21)
(100.5693792 0.03585314269 2.681469906e-21)
(92.68982354 21.19389491 -5.051867154e-20)
(93.96404106 20.95438971 -2.219503662e-20)
(92.98374316 22.87781373 1.291155426e-19)
(94.58423863 22.27420666 -4.486910657e-20)
(106.7320351 19.31420095 0)
(106.9270704 17.72616762 0)
(108.4821389 17.41578844 -4.397820166e-20)
(107.4880387 20.16123522 0)
(109.4195523 19.02032963 0)
(109.0286999 19.7343173 0)
(109.3566067 11.64353257 -1.505266538e-20)
(108.6198274 10.80770615 -2.042482941e-19)
(110.019156 10.91306494 3.522783123e-20)
(109.1431067 10.27795047 -2.01464845e-19)
(107.4831762 6.890317401 0)
(108.0969426 7.224373067 0)
(108.333315 6.712652114 4.013829344e-19)
(107.6951297 6.47325149 -7.552259193e-19)
(106.005478 4.532575796 -2.655663381e-19)
(106.4712075 4.697871773 -7.01111674e-19)
(106.5322699 4.329179017 -1.235292333e-18)
(106.069662 4.221548461 -1.211990929e-18)
(104.9086252 3.020035222 -1.848621414e-19)
(104.5460534 2.918370965 0)
(104.8877299 2.752425789 -8.974805608e-20)
(104.5370036 2.677033425 3.802367769e-20)
(103.1235798 1.656642127 4.524466341e-21)
(103.6316185 1.765250595 -1.007432266e-20)
(103.5031691 1.381836237 -2.668396859e-21)
(103.0510306 1.362177471 -4.761692917e-21)
(102.2002426 0.9921676757 4.735643779e-21)
(102.5560487 1.046426944 -2.252106249e-23)
(102.4454016 0.7912386643 -7.625689006e-21)
(102.1277575 0.7863754905 9.594850807e-21)
(101.2472367 0.265495878 -1.825679403e-22)
(101.5750121 0.1767432661 -3.125174606e-22)
(101.8990704 0.4456297885 8.541843365e-22)
(101.7776211 0.5578080696 6.96557253e-21)
(100.8766792 0.1296332679 -3.522991977e-21)
(101.0668163 0.06856073085 -2.517980524e-22)
(100.6710967 0.05031063993 2.617874118e-21)
(100.7622927 0.01468713292 -2.387490242e-21)
(100.61682 0.001481573985 4.565997941e-22)
(122.4138383 23.38453914 5.392242709e-19)
(120.7246818 22.2740588 0)
(123.1618972 21.55573472 0)
(121.4940205 20.83292274 0)
(116.3888399 10.2265507 -3.246927805e-19)
(114.8665298 9.765272297 -3.19437481e-19)
(116.4388221 8.767693618 -1.909099145e-20)
(115.00242 8.632580939 -3.131336887e-19)
(110.8651526 5.453207787 2.623350652e-19)
(111.7223641 5.524345583 -4.550827236e-21)
(111.645544 4.783946833 -2.233946968e-19)
(110.8423158 4.83445168 2.769890803e-19)
(108.0443631 3.327623123 9.09957031e-21)
(108.6138916 3.317945777 3.909706316e-19)
(108.4973939 2.859120921 2.650427325e-19)
(107.97128 2.933044006 2.500155328e-20)
(106.2426316 1.987320521 1.926509047e-19)
(105.8275616 2.005014262 1.954682374e-19)
(106.1030683 1.676589405 -1.117506776e-21)
(105.7203117 1.721978794 1.997279076e-19)
(103.8331323 1.017270397 -5.207577206e-21)
(104.4005998 0.9735543746 -8.246012486e-21)
(104.0948291 0.5741706163 8.380354182e-21)
(103.6368192 0.695505528 1.230477562e-21)
(102.6420594 0.536914517 -2.056818239e-21)
(103.012157 0.4868974748 1.45187925e-20)
(102.7946142 0.2359125789 5.340383104e-21)
(102.4901688 0.3249280961 1.057331581e-20)
(101.3788422 -0.01597583572 -3.458347081e-22)
(101.670944 -0.2009343465 -1.116156225e-21)
(102.1128005 -0.001172235393 -1.135682264e-21)
(102.0508585 0.1730858902 -1.317382503e-21)
(100.9403595 -0.04415684189 1.131074562e-21)
(101.0932886 -0.1792679547 1.392006319e-21)
(100.6984219 -0.03263479641 -4.498889217e-21)
(100.7513701 -0.1239464505 1.729798047e-21)
(100.5860192 -0.04321408187 -2.229713067e-21)
(136.1984731 8.085953612 -1.389360134e-18)
(134.5022592 8.900525147 2.35581966e-20)
(135.0381902 6.677068587 -6.050132903e-19)
(133.6223144 7.527427588 3.504245308e-20)
(121.5702811 3.612916837 3.28361603e-20)
(119.9471985 4.175591388 7.177041013e-19)
(120.5465971 2.322827849 -3.547053991e-19)
(119.2516607 3.006375314 -1.850901573e-19)
(113.3954542 2.109424776 0)
(114.2450809 1.756745878 -4.087808832e-20)
(113.7254071 1.067262031 1.580919391e-19)
(113.0057152 1.474610144 -3.820171246e-20)
(109.4947356 1.107967338 9.052801953e-21)
(110.0358166 0.8647733003 -5.230815717e-19)
(109.6869115 0.442591988 -3.263424926e-19)
(109.2186172 0.7140970776 -3.482344597e-20)
(107.0937961 0.3498418398 2.894654466e-19)
(106.6955272 0.5104483024 1.876248136e-19)
(106.8144769 0.07208346868 -2.401944691e-19)
(106.4661554 0.2439616472 -4.017077004e-20)
(104.2704965 0.06806430706 8.327773003e-21)
(104.821862 -0.1492387786 -4.626957157e-20)
(104.343045 -0.4829910497 -2.615133973e-21)
(103.9374874 -0.2250171008 -1.328603542e-21)
(102.8802867 -0.1045531568 5.993480513e-22)
(103.2261998 -0.2690794319 7.404506144e-21)
(102.9031681 -0.4728748725 6.065585391e-21)
(102.6435735 -0.2934967055 1.334845579e-21)
(101.3763286 -0.3595058049 5.886603955e-22)
(101.5993171 -0.6358469169 1.120979907e-23)
(102.1293483 -0.5401193699 3.925881659e-22)
(102.1446241 -0.3305083531 -6.016266743e-21)
(100.8976755 -0.2545691818 2.138560732e-21)
(100.9941869 -0.4619788391 -2.373079344e-21)
(100.6335673 -0.1325012274 4.249443011e-21)
(100.6361456 -0.281052184 2.402718692e-21)
(100.4610007 -0.09400828221 2.110909623e-21)
(133.8723631 -8.28778498 3.802330625e-19)
(133.2882103 -7.049819569 1.105048754e-18)
(132.4845905 -8.605478852 5.296209301e-19)
(132.0017607 -7.432206298 -8.326194865e-21)
(121.5047984 -4.451484661 6.121808363e-21)
(120.54999 -3.265406283 8.052874702e-19)
(120.0339538 -4.962407855 3.995166291e-19)
(119.3370206 -3.895817233 5.753701188e-19)
(113.887922 -2.178552137 3.39509956e-19)
(114.4586731 -2.834038632 -6.439846308e-19)
(113.6674854 -3.222332268 -3.162106312e-19)
(113.2168339 -2.596272954 1.114502399e-20)
(109.8115917 -1.636690581 -1.448215803e-19)
(110.2036624 -2.055565499 1.125296717e-19)
(109.6896653 -2.321623069 1.435653375e-19)
(109.3671752 -1.915783261 2.814423883e-19)
(107.1821764 -1.578937014 -2.604810108e-19)
(106.8685562 -1.300728603 -3.700241203e-19)
(106.7956138 -1.758950403 -3.680857275e-19)
(106.5323875 -1.494015455 -1.955043634e-19)
(104.3062137 -1.054477486 2.220870146e-20)
(104.7626226 -1.420013769 7.473054173e-20)
(104.1580612 -1.620688232 6.305725385e-20)
(103.856844 -1.26015955 1.727496369e-21)
(102.8465229 -0.8545161035 0)
(103.127997 -1.115551521 -2.143852941e-20)
(102.7236323 -1.234537888 0)
(102.5365754 -0.9845701563 0)
(101.2164217 -0.7307250263 -2.949052505e-21)
(101.3455364 -1.075274185 -7.747298895e-21)
(101.922831 -1.109703853 2.354844681e-21)
(102.0199842 -0.8900873621 -3.845419194e-22)
(100.7319385 -0.4812228908 -2.132006422e-21)
(100.7588342 -0.7476030307 -1.671765561e-21)
(100.4628916 -0.2398908629 2.646688754e-22)
(100.4084933 -0.4403149249 -1.441142633e-21)
(100.2347002 -0.1456827199 2.500778565e-22)
(125.2132417 -17.34773153 0)
(125.28493 -16.34484756 -4.383768109e-19)
(124.1591073 -17.05950774 0)
(124.227314 -16.15286568 7.760951692e-19)
(117.6625615 -10.37026164 6.487236229e-19)
(117.419117 -9.164296526 -2.775427968e-22)
(116.3078396 -10.23226045 3.187049545e-19)
(116.1787096 -9.206970624 -1.600132421e-19)
(112.3637078 -5.991652879 7.758916201e-20)
(112.5864602 -6.718952028 -5.520185946e-19)
(111.7557601 -6.764563816 9.976565477e-20)
(111.6051882 -6.111768569 2.155917028e-19)
(108.9302527 -4.218322034 7.719811556e-19)
(109.1268346 -4.70306767 2.558273978e-19)
(108.5525417 -4.770806785 2.314609426e-19)
(108.4106984 -4.328688616 2.491709302e-19)
(106.4826318 -3.396179903 1.239191608e-19)
(106.2914983 -3.057493967 -9.79390042e-20)
(106.0433539 -3.447209163 -2.89668747e-19)
(105.8927129 -3.13770991 1.271043706e-19)
(103.9046021 -2.159443107 4.090517254e-20)
(104.2108555 -2.615462027 -2.261352884e-20)
(103.556858 -2.651463357 -2.022963653e-20)
(103.3853034 -2.243133966 2.023834566e-20)
(102.526305 -1.600313563 -1.4411756e-20)
(102.714521 -1.925259421 6.336024671e-21)
(102.2683485 -1.940925575 -6.67466224e-22)
(102.1674496 -1.649335278 -1.495283102e-20)
(100.8965659 -1.083939597 -6.523712647e-21)
(100.9234348 -1.472410353 -1.022954004e-21)
(101.5049077 -1.633649632 -1.944873263e-21)
(101.6741944 -1.42947596 -5.654640818e-21)
(100.4411521 -0.6990597166 -1.209845346e-21)
(100.3958896 -1.005212097 5.40753278e-22)
(100.184328 -0.3435210111 -1.462842464e-21)
(100.0731794 -0.5858821906 4.623973494e-22)
(99.91067365 -0.1931430199 2.500816934e-22)
(115.9849826 -20.66922594 5.571453501e-19)
(116.3445267 -19.98088602 2.697803195e-19)
(115.2528082 -20.11957012 5.172411083e-19)
(115.6142009 -19.51051126 2.875084533e-19)
(112.4277912 -13.34749446 -1.21794827e-19)
(112.6517023 -12.42508674 2.740891228e-21)
(111.4023575 -12.83774652 2.03636405e-20)
(111.6437824 -12.06827079 -1.74122645e-21)
(109.6050427 -8.531105939 -6.218532877e-19)
(109.5416356 -9.152537756 -1.33147917e-19)
(108.8233189 -8.937611725 3.664588415e-19)
(108.9099859 -8.400594112 -5.478752686e-19)
(107.1786877 -6.129211743 -2.281042457e-19)
(107.1984465 -6.579320657 -1.095398006e-20)
(106.667692 -6.474372854 2.038242487e-20)
(106.67261 -6.076332406 2.31946454e-19)
(105.1805533 -4.779929863 -1.098238442e-19)
(105.1109462 -4.44303259 4.480132829e-19)
(104.751652 -4.709588034 3.481657466e-19)
(104.7046305 -4.407201841 2.680398277e-19)
(103.1309802 -3.080993209 -1.907431811e-20)
(103.2750716 -3.555453689 -4.092263509e-21)
(102.597391 -3.036433301 1.887726279e-20)
(101.9538469 -2.245882874 -3.63312224e-21)
(102.0382553 -2.593361825 5.409154604e-22)
(101.5796155 -2.208431848 -1.957944704e-20)
(100.4389512 -1.382360609 4.248173696e-21)
(101.1436523 -1.89276332 -9.151379679e-24)
(100.0384118 -0.886557281 1.965739946e-21)
(99.80723669 -0.4335035121 1.965517017e-21)
(137.2191598 9.643966694 -6.297136349e-19)
(135.534555 10.46112714 7.837532627e-19)
(136.4049131 12.16383035 1.944896981e-19)
(138.4897106 10.835706 -1.786326292e-18)
(138.2273231 11.80453328 1.296668214e-18)
(121.4568358 25.00943698 -5.949619455e-20)
(123.3575343 26.43265521 7.594802676e-19)
(124.3684914 24.24015211 3.101305283e-19)
(135.2723635 -7.840990081 -7.231881096e-19)
(134.684036 -6.603435678 1.746618189e-23)
(136.1397254 -6.029685097 -5.735851434e-19)
(136.5829876 -7.875643373 3.361074672e-19)
(136.8998982 -7.169478845 -3.825970867e-19)
(137.7338038 7.143161254 -3.50599072e-19)
(139.0688998 8.14178081 6.239385459e-19)
(138.9132239 9.109894855 -1.636699006e-19)
(126.3070527 -17.59925279 -1.335177637e-19)
(126.3818647 -16.58143789 -5.678886583e-19)
(127.5213569 -16.77630382 -1.527400694e-19)
(127.2494676 -18.02761975 -7.95522486e-20)
(127.6449525 -17.71057079 9.998399303e-19)
(134.3255107 -9.512320245 -2.929338045e-19)
(135.6036739 -9.62075074 -9.958918686e-20)
(135.9557155 -8.963768397 -1.059559505e-19)
(116.7487426 -21.17800098 1.888962674e-23)
(117.1060983 -20.50152687 -2.871645523e-19)
(117.9149169 -20.97850081 -2.871913425e-19)
(117.5354397 -21.73923977 -3.064701677e-19)
(126.1608882 -18.63092673 -3.193665908e-19)
(125.0950227 -18.32189662 0)
(116.3442697 -21.8950117 -6.383103903e-21)
(115.5921204 -21.3132671 3.526399951e-20)
(92.4390121 19.74767063 0)
(91.0939955 21.38695165 -1.329414264e-19)
(119.6884141 23.87453866 -5.659867947e-19)
(118.5318384 25.24141764 -5.663773309e-19)
(120.0761066 26.92788473 -1.424795751e-18)
(105.4322299 19.57703446 4.396879727e-20)
(105.5183792 20.43545037 -1.934079572e-19)
(106.5305356 20.48969865 0)
(144.5530296 29.15331239 3.693376102e-21)
(143.5007482 29.50209678 -8.753598135e-19)
(143.8743631 30.3104082 -2.304379555e-20)
(144.910004 30.21444576 5.330120975e-19)
(124.4343677 40.98644062 9.303601361e-19)
(122.7841739 42.70786443 3.130048063e-20)
(124.6443295 44.77562146 1.228238843e-21)
(126.4523176 42.48270686 5.522108657e-20)
(132.9658772 9.62111857 5.102897403e-19)
(133.7000572 11.1082409 0)
(122.3953476 4.997414525 7.984512294e-19)
(120.739664 5.603439213 1.478122849e-18)
(121.309306 7.078528324 -3.593876525e-19)
(123.3723078 6.738690731 -6.437094768e-20)
(116.1591283 11.57840008 0)
(117.9620266 12.2660223 9.072991206e-20)
(118.1080556 10.46077849 -3.639996559e-19)
(148.1819875 -2.273828253 5.246480129e-19)
(147.9635348 -1.748122054 5.176375667e-19)
(148.4144064 -1.509960148 -5.27114217e-19)
(148.6495575 -2.024410553 -2.641237485e-20)
(150.2350392 11.58081005 -5.733959383e-19)
(149.7216174 11.06422893 -5.676287787e-19)
(150.72837 11.08492477 -5.748697535e-19)
(150.2346063 10.59238763 1.076861611e-20)
(132.6952832 -5.865722006 5.65456899e-19)
(133.9807644 -5.381520311 1.126553887e-18)
(122.9384576 -3.777647904 -3.699756876e-19)
(121.9783234 -2.557137561 4.205183787e-19)
(123.328015 -1.676836565 -8.083650298e-19)
(124.6439816 -2.985994357 3.551258379e-19)
(124.3492471 4.331064928 1.567340793e-19)
(123.0887739 2.782781094 4.159886621e-19)
(135.8928948 -19.2401235 -6.213455618e-19)
(136.1072834 -18.8332293 1.652088664e-19)
(136.3566683 -18.94361314 -2.057536594e-19)
(136.1957361 -19.31722883 -8.354781804e-19)
(142.7792972 -12.54840044 1.005990575e-18)
(142.3932754 -12.61965497 4.786746995e-19)
(142.7576357 -13.05622271 1.54988175e-18)
(142.3802567 -13.08478937 -9.702579369e-19)
(125.3033521 -15.39843595 -8.424412262e-19)
(126.398826 -15.54352648 -8.763414361e-19)
(119.0875312 -10.39875052 2.88762108e-19)
(118.8336812 -9.167959874 -3.679792731e-19)
(120.3001215 -9.045790452 -3.943779959e-19)
(120.6998649 -10.46822932 -7.080074811e-20)
(124.0075062 -5.174140083 -9.653093471e-19)
(122.272149 -5.722083445 -4.625372134e-21)
(123.5744143 -25.28662616 -5.896670301e-21)
(123.8576896 -24.80842381 -3.514632571e-19)
(124.3072958 -25.08294356 -3.518139565e-19)
(123.9703839 -25.57541787 8.023913642e-21)
(129.5512326 -23.07124178 -1.415683724e-18)
(129.0564101 -22.86512762 -1.19269053e-19)
(128.7884843 -23.426809 -6.444516807e-19)
(129.1041083 -23.73774511 -1.101800464e-18)
(129.3579277 -23.58520568 2.726933412e-19)
(107.3596112 -31.1454373 8.418111339e-20)
(108.6307203 -31.23791362 -8.885022483e-20)
(109.2948328 -31.1610114 -1.732676729e-19)
(108.6232878 -31.24217786 8.497342937e-20)
(112.2999244 -26.17060323 0)
(112.7644004 -25.85647714 3.55438284e-19)
(112.9849744 -26.26200418 -6.257051719e-19)
(112.6067088 -26.57116798 0)
(117.8618105 -26.29409635 -2.605982052e-19)
(117.4712149 -25.95293971 -2.606315058e-19)
(117.5084322 -26.69091693 3.76691623e-21)
(117.1572115 -26.34042187 -5.076583566e-19)
(149.6796253 12.045875 2.804343202e-19)
(150.1937547 12.58720701 -7.231375548e-21)
(150.7368352 12.1017178 -2.907788183e-19)
(144.5033532 28.02150929 5.676651708e-19)
(145.6755684 28.9304592 5.027272962e-21)
(145.4128957 27.98281859 -2.787667209e-19)
(131.894371 19.3298342 -1.468899956e-19)
(131.7046092 17.31393264 -1.469968492e-19)
(133.759128 17.07439888 4.461802411e-19)
(134.6361747 18.85524066 5.839762093e-19)
(133.9538227 19.69383761 -9.02811112e-20)
(142.765093 27.9832361 -4.528904628e-19)
(144.9655448 27.22096069 1.820657559e-19)
(144.1208165 25.83184317 8.342208932e-19)
(142.3866183 26.18780757 1.43431812e-18)
(149.1629728 11.52496649 2.772001945e-19)
(148.5761158 11.97163164 -1.021255818e-20)
(149.0977424 12.49557211 -8.39179773e-19)
(142.7818201 -12.08183685 -9.729032574e-19)
(143.1688294 -11.99606788 -2.360256044e-20)
(143.1591414 -12.5044568 1.004377248e-18)
(147.725127 -2.494780278 -5.117190243e-19)
(148.3959767 -2.783855873 0)
(147.9307853 -3.025945909 1.340158941e-19)
(137.1033562 0.07090532248 5.285436722e-19)
(136.4739729 -0.5085799261 0)
(137.7697892 -0.5505611435 -5.59147489e-19)
(137.0684961 -0.9878418587 0)
(147.5133268 -1.983177188 -5.049536548e-19)
(147.2733863 -2.715562914 -5.059997866e-19)
(147.0603643 -2.224058234 5.362124804e-19)
(142.3976842 -12.14329214 -1.49219221e-18)
(142.3891398 -11.67424464 -1.467758931e-18)
(142.7798656 -11.60236201 -9.564029311e-19)
(149.2240819 10.56845314 -5.697039744e-19)
(148.651314 10.98890372 0)
(147.2774269 -1.492721953 -1.03338863e-18)
(147.7337789 -1.237622235 -5.049753593e-19)
(136.6308674 0.8149041479 5.941359698e-19)
(137.3166018 1.142640544 5.187071882e-19)
(137.9153591 0.5869186262 1.088208388e-18)
(129.8147745 -22.50040288 -4.507889487e-19)
(130.3172992 -22.69310478 -4.050579221e-21)
(129.8705276 -23.38232864 -1.710865799e-18)
(130.1254212 -23.22120917 -3.070292668e-19)
(135.5335973 -19.18578609 -9.023683992e-19)
(135.7558053 -19.60836355 9.80933458e-21)
(135.4898851 -19.53000152 -4.151232415e-19)
(131.077198 -13.70389411 6.438281872e-19)
(129.8084864 -13.71991134 1.285057616e-19)
(129.9092003 -14.83941372 9.721393419e-19)
(130.9548234 -15.19026964 -1.735496534e-19)
(131.3757097 -14.72848328 1.04984623e-18)
(135.6417807 -18.5396753 1.277657065e-19)
(135.2471049 -19.42263315 -3.489569438e-19)
(134.8069468 -19.13023883 -1.018741516e-18)
(134.9592464 -18.42938131 4.766810321e-19)
(129.3223911 -22.29154803 8.438361052e-19)
(129.5034479 -21.70721714 4.220919566e-19)
(130.078437 -21.91786268 0)
(142.0145428 -12.66993628 9.427308523e-19)
(142.0120244 -12.20915827 -6.166394656e-21)
(136.3913308 -18.58141683 4.370340334e-19)
(135.7838433 -17.82225544 6.496131398e-19)
(136.5768104 -18.07062625 4.337686889e-19)
(136.3957066 -17.74252679 -1.191325495e-19)
(130.9031607 -12.54783727 1.019671674e-18)
(132.2138279 -12.44160973 -1.036335714e-18)
(132.1802588 -14.00812531 -6.077887604e-19)
(132.594049 -13.49710771 1.475639688e-20)
(118.1681918 -25.89596507 -5.466107414e-19)
(118.5682551 -26.22903504 2.87047089e-19)
(118.217276 -26.63551713 0)
(123.131496 -25.0061901 3.40470826e-19)
(123.2369391 -25.76834644 2.496768038e-19)
(122.8456019 -25.47173808 3.453354125e-19)
(106.3167462 -31.09963115 0)
(107.5130165 -31.18530163 -1.720172181e-19)
(104.5553899 -30.87340467 4.817248545e-20)
(105.7785198 -30.99676997 0)
(104.0045113 -30.62544337 2.342954133e-18)
(111.9212571 -26.45269531 -9.259425308e-20)
(109.133751 -31.12740189 -1.731919986e-19)
(147.8710126 51.20839672 -1.938581629e-18)
(146.618767 53.27641335 2.382199838e-18)
(146.1931627 53.94012161 3.539814319e-18)
(146.8731585 55.48109692 2.963187947e-18)
(121.9892379 62.3391783 4.077023149e-19)
(119.494829 63.94243683 -8.640003005e-20)
(121.4099256 67.27050713 0)
(124.2360106 64.76466752 0)
(122.8238901 -26.75471008 0)
(124.103144 -26.75051569 -4.176089404e-20)
(122.9318646 -26.63604968 0)
(116.8086193 -25.6012994 0)
(116.6736957 -19.34209586 8.994153458e-21)
(117.4359756 -19.77862921 0)
(113.5493297 -13.8016835 2.771968308e-20)
(113.7694731 -12.86464372 1.508457492e-19)
(114.9814657 -13.23753924 -2.856958466e-19)
(114.774852 -14.37306069 2.96836032e-19)
(119.3045121 -11.77233622 7.535290033e-19)
(117.774319 -11.54603998 1.140401064e-20)
(105.4657795 -30.04206514 0)
(107.5740494 -30.39164174 0)
(105.3557563 -29.91387607 -1.0596766e-18)
(98.11203609 -28.16009004 0)
(114.4782692 -29.37475947 4.864305741e-19)
(114.9738941 -28.98131059 1.934980083e-19)
(115.2007751 -29.38020242 5.319340926e-20)
(114.5314976 -29.69946675 1.248936027e-19)
(114.7655092 -29.7567764 3.962097696e-19)
(117.4519001 -29.12146546 2.319417282e-19)
(117.2810509 -28.94782309 -2.56942674e-19)
(117.1934665 -29.29358545 -6.883765146e-19)
(117.1185661 -29.14850458 -7.17121038e-21)
(122.7433515 39.22595917 8.761723717e-19)
(125.8845611 38.98638354 6.408507399e-21)
(124.1548035 37.72149448 2.480077976e-18)
(142.9158154 30.274382 -8.758161737e-19)
(140.9307691 28.20154361 -1.277248552e-18)
(141.1677978 30.08503287 -1.290129991e-18)
(129.7766713 19.30593724 0)
(129.6915817 21.3261813 0)
(132.5223361 21.26807977 6.59239005e-19)
(131.6766707 21.97520601 3.731933037e-21)
(117.7658714 -28.87121267 5.18760277e-19)
(117.838371 -29.09157291 4.588005663e-19)
(117.5485073 -29.26856223 2.281399199e-19)
(120.256952 -28.72431848 3.874018449e-19)
(120.1915277 -28.57525914 5.113698749e-19)
(119.9008891 -28.92612929 2.587000497e-19)