/*--------------------------------*- C++ -*----------------------------------*\
| =========                 |                                                 |
| \\      /  F ield         | OpenFOAM: The Open Source CFD Toolbox           |
|  \\    /   O peration     | Version:  v2012                                 |
|   \\  /    A nd           | Website:  www.openfoam.com                      |
|    \\/     M anipulation  |                                                 |
\*---------------------------------------------------------------------------*/
FoamFile
{
    version     2.0;
    format      ascii;
    class       volScalarField;
    location    "2.36";
    object      omega;
}
// * * * * * * * * * * * * * * * * * * * * * * * * * * * * * * * * * * * * * //

dimensions      [0 0 -1 0 0 0 0];


internalField   nonuniform List<scalar> 
3019
(
31.93120177
31.93212521
31.93305624
31.93384389
31.96677867
31.96758714
31.96846084
31.97020863
31.97354841
31.97882097
31.98567091
31.99221884
31.79545468
31.79804517
31.80061804
31.80285353
31.83652595
31.8395174
31.84435435
31.86723045
31.88239586
31.90686527
31.93907182
31.96965205
31.66136973
31.6659854
31.67042204
31.6740116
31.70854256
31.71503409
31.72630821
31.75889238
31.79459201
31.85013294
31.92065448
31.98668477
31.52890975
31.53486982
31.54077282
31.54619148
31.58300822
31.59543539
31.61895603
31.67070257
31.74233034
31.85101759
31.99146681
32.13446283
31.39825941
31.40610283
31.41388463
31.42196171
31.46174109
31.48314132
31.52724905
31.60976426
31.74353521
31.96086494
32.27145271
32.65806655
31.26881471
31.27800608
31.28763835
31.29930733
31.34557513
31.38111342
31.45717925
31.58247823
31.82078691
32.2520779
33.0329354
34.44957962
31.14157586
31.15261783
31.16517524
31.18184553
31.235338
31.28987506
31.40619277
31.59843859
32.00155004
32.82132277
34.83757054
41.64379666
31.01620587
31.02890775
31.04448889
31.06753999
31.1323824
31.21003984
31.37456211
31.65536749
32.27413575
33.65856347
37.88025925
59.78036579
30.89495417
30.9101629
30.93032354
30.96231021
31.03641933
31.14144134
31.36052568
31.74267843
32.58924851
34.51040375
40.48476532
73.20952672
30.77789642
30.7952702
30.81979076
30.86104771
30.94810867
31.08261439
31.35919638
31.84411414
32.8916031
35.193843
41.98666554
79.35341278
30.66778696
30.68820343
30.71850402
30.77115024
30.8677714
31.03170716
31.36545429
31.94557477
33.15395714
35.71920816
43.08065545
89.07043018
30.56294291
30.58575234
30.62087299
30.68408845
30.79407417
30.98656118
31.37592169
32.03892946
33.38085448
36.15829665
44.17068993
100.2934547
72.498082
78.47021725
87.74617645
98.9803275
56.80715848
41.68726872
67.180207
63.36089126
42.85330657
72.99819741
67.7586524
82.4755946
236.3117058
213.4450679
43.96538015
81.41678707
73.94643702
93.05806452
336.5473218
270.6182059
82.43881843
102.1639742
508.7763322
409.3285935
181.1903282
211.7212312
111.8899497
175.0589759
210.6570254
192.0622301
75.89510128
250.8862217
263.6884874
217.653171
247.9432653
267.4259085
240.0952897
83.70736661
306.4346914
349.3354298
265.7764756
303.2087522
405.1034143
339.8471681
94.41470821
414.4146822
513.8709185
352.1552393
410.4829861
518.1966067
102.4723986
701.1621874
518.9196137
685.2562605
39.97170533
62.68974077
52.90023178
67.32992773
143.302294
97.06829815
75.40251936
189.9202876
168.2273323
165.4036833
146.891344
68.99894949
1412.292862
260.0761103
605.522981
63.86338037
101.8178805
445.0951483
175.4296319
182.9959624
1268.914591
1413.487356
194.5644569
904.9010212
739.8905071
1362.914548
905.496816
198.3706891
144.1938419
446.4221728
211.509237
656.7745558
477.9069269
154.5035037
634.1694246
932.338556
251.2950512
1488.357618
251.696566
232.3944466
1440.203387
1382.494982
1482.736186
1446.879706
236.3906379
326.0413211
328.820458
281.5972303
283.897166
444.2373417
450.9414932
380.6713164
384.6694087
185.7316201
555.4560186
560.0221443
115.9542102
239.2280045
310.3442329
145.4105194
150.1328678
139.6138414
143.9104615
304.5975917
166.6136715
173.198624
440.5197355
254.9682237
134.3199618
138.2617333
703.1190897
690.022449
340.2272342
368.4005958
158.782158
164.5938675
151.775693
156.9510601
364.0652603
426.2495161
1009.198671
999.6393996
1589.033632
1543.043853
493.1600079
363.1184521
739.701733
705.3085989
995.513261
988.8472039
399.2555727
534.0600288
1621.595626
1596.319087
1627.545371
602.7494206
1462.120887
1398.586448
407.2677555
445.09438
1373.644233
1385.562045
895.3107921
331.8389097
352.98652
305.8055947
325.5963193
888.292169
952.5514786
396.7870903
430.8281551
360.5781968
386.9578285
959.4410215
593.2795058
279.6460607
299.9273987
850.3306207
882.6418998
1526.42802
533.321018
597.16691
508.9753519
522.6142437
1491.839445
645.8777794
656.144344
618.0564814
642.1456104
1421.025595
459.9177305
472.5912038
439.1262679
455.4488452
1412.783686
1467.579184
492.8161865
504.4832522
476.7228288
488.8374337
1464.904021
959.7761611
964.338165
934.6102298
958.3347818
976.44772
988.7480495
966.0681702
973.8999559
672.3931287
682.5098123
659.3609328
668.9596555
722.5222277
892.1841128
687.4447749
699.9183691
1022.419345
1014.982843
430.5333249
1618.632766
1623.305814
1586.636794
1609.321993
1668.052405
482.292436
1507.368393
1075.277153
959.4142946
760.2361317
367.1871197
1036.749436
1492.324923
989.4638237
1046.635188
1551.626284
1574.949114
1511.843717
1541.851795
395.6084781
986.8284556
977.4396604
1654.850973
1626.784927
538.8068154
586.9112781
1718.832452
1657.514391
225.7134904
124.6884706
128.2852353
119.7558772
123.4774162
222.4965303
129.428855
133.0628409
251.25961
315.0084723
657.3303191
632.1992541
610.7567819
546.0368873
293.9896214
1430.887313
1316.502773
1729.189467
1404.974053
901.078815
623.6547786
631.2078606
1327.902591
838.2397374
879.1990504
636.309976
645.8665176
916.9579377
248.153188
273.6178961
566.8958009
711.8163301
1253.017596
922.5335351
1397.852538
1448.46398
938.3245721
1817.974246
1337.217553
1386.909335
946.3491404
947.9375536
1491.775724
1480.758575
1492.615491
1417.148192
1436.808897
1432.225536
910.6213103
913.6385629
895.5083559
900.1508848
1394.367009
1478.020703
937.7790505
940.8561998
916.9719744
920.4031461
1453.095149
671.9522084
661.2937829
317.8001881
337.4318853
686.438805
675.3925804
516.7186586
505.5107189
274.614763
1522.925428
1524.812466
1496.810195
1500.779503
1864.222094
1531.171857
1531.968478
291.3413294
535.138579
521.2696904
1007.568679
708.8687833
712.2742991
1575.45451
1013.615621
1017.217046
988.0885311
1007.630693
1564.462961
1608.36642
1622.556972
1612.017019
1022.379806
1025.61163
1018.714666
1020.941121
1605.616364
1547.731863
1587.772753
1095.268293
1488.973472
2044.841162
1428.802395
1742.793796
696.2903544
903.9009785
1354.95792
1443.298794
931.7388798
1328.904639
1730.597087
1353.280145
1400.525554
692.3884688
766.566973
1282.950999
914.9036396
649.6646271
672.6747462
1361.064988
1329.621146
805.1003862
1395.006438
1731.464116
884.5689521
1401.763955
1391.772355
1001.19378
993.3337876
1453.810859
1498.845018
957.6983056
954.0929794
1464.950157
1474.761257
1447.532365
1457.519172
906.4438888
908.8251248
1429.456341
1403.880906
902.341539
904.2859454
930.2397836
933.3668643
1471.670388
1460.086145
924.0924729
927.2518495
961.4080451
1506.003098
1497.024635
1518.812911
1512.811905
962.7533347
951.0922493
1465.988857
1449.4258
1488.43933
1478.286301
956.0945724
980.9094856
1557.901779
1549.210135
1570.572565
1562.116244
983.0686706
968.1912624
1530.411343
1525.181685
1544.107692
1536.225105
970.4499214
1514.310946
1517.429518
675.6315826
957.5489025
955.5604717
962.5877018
960.9759622
679.4944373
1506.119421
1509.685923
1570.868282
1492.652089
742.4928487
1012.777759
1022.067332
1416.582128
1366.503759
816.8859059
689.5366878
968.1904565
967.5017355
974.2354838
977.9626983
698.600112
1541.015103
1534.304576
1026.507406
730.7516571
732.3362697
718.1623943
720.4873538
1015.42256
1619.021641
1631.618143
1591.771398
1606.819891
1578.199083
1990.909774
1447.214591
857.6737622
940.9347826
757.0984081
778.5044625
1064.873758
1403.814247
1922.415613
1532.3256
1458.232939
1000.174122
1582.79433
1571.053293
1616.193785
1575.707373
996.382008
1558.390007
1568.837633
1523.282348
1533.850931
1641.473223
1033.793787
1040.906032
1027.33826
1032.197999
1638.009373
1674.506398
1053.030756
1106.662963
1042.292602
1055.856707
1677.697856
31.78452749
31.80535334
31.8773075
31.81371779
31.84786673
31.89903012
31.86000586
31.90357315
31.92974201
31.91876176
31.96377308
31.96170063
31.97513755
31.69056555
31.7334737
31.7842261
31.75132557
31.81843417
31.83521234
31.84401277
31.93018408
31.90366844
31.9602837
32.05275388
31.97224003
32.07299422
31.62290781
31.70249743
31.72144771
31.73782078
31.86626907
31.8213078
31.91828681
32.10283669
31.95522162
32.17146129
32.39869754
32.09436289
32.43756054
31.58588373
31.72830631
31.70321902
31.79156231
32.04509228
31.89731336
32.15584372
32.59011267
32.18609227
32.77457263
33.51052484
32.52953984
33.66469666
31.59019111
31.83443721
31.74718052
31.94549329
32.42210866
32.11971549
32.64946083
33.69785787
32.79190811
34.24266254
37.26704856
33.92750999
38.49074039
31.63651457
32.01629241
31.87407231
32.19515336
33.00806117
32.55407917
33.42735979
35.67183644
34.11986881
37.0750566
50.76993569
38.67208758
46.46311351
53.69442478
43.7654187
31.71794555
32.25482952
32.07525979
32.51015797
33.69141542
33.18472277
34.31276444
37.75485587
36.24512441
38.66221826
41.47712644
40.42698995
62.63561412
71.95326141
67.93975958
31.81911665
32.50013518
32.31679806
32.82051878
34.28293698
33.84757636
35.04214518
39.13975799
38.1592424
40.94347962
44.51648487
43.92725918
74.02928043
88.2765521
87.00051344
31.92310926
32.72468407
32.55751339
33.09543832
34.75518118
34.40950164
35.6017361
40.08371767
39.39498346
42.30026507
46.2579757
45.84650294
80.30987103
107.1166928
103.879339
32.02258858
32.92136679
32.77292633
33.33129829
35.14321586
34.8544932
36.05944151
40.90174301
40.27892462
43.39688986
47.81513523
47.33602177
90.388745
123.2888701
120.0741435
32.96211872
35.22711949
41.08815709
44.57478263
50.75411134
48.97054627
102.5769178
144.9160556
140.1064296
86.00057705
84.5616076
71.49239311
102.7433679
98.93579336
77.64016581
119.0586891
116.13783
86.38999288
138.6143527
134.3345749
97.27949672
90.16829949
58.46346436
48.46820856
45.29540238
57.26764443
45.46172359
45.00394242
41.32361114
65.57283415
49.66522967
50.38469362
48.43188149
49.3977106
65.07229594
47.0172112
46.59764636
42.55225666
70.43620445
51.53151921
52.27938447
50.61387592
51.29452543
69.70211406
111.3272326
108.2172063
81.34904298
232.5327886
182.3838318
184.7307311
169.681397
171.6614983
216.3531835
48.71887396
48.1162449
43.61121097
78.04262517
53.76451457
54.86713406
52.54996771
53.44228849
76.99636202
127.9076664
124.3976453
91.70392173
326.5186336
225.9022753
228.9524723
207.4005613
210.7653799
276.8486352
55.21455356
56.33386148
86.39368786
151.8547414
146.5568671
103.208263
472.9790876
293.8737669
289.2236091
263.8937549
268.7349034
422.2216724
186.2494324
260.3712065
240.1905136
337.0858025
315.4672238
206.6136055
121.3920849
146.6500147
132.9357254
227.3792207
218.3315093
169.7937515
202.9214007
114.7185142
118.5216546
110.5313565
113.5891568
200.2601219
76.81833443
97.36068603
90.97345089
256.5344344
413.8129962
402.2539701
487.1032597
476.0829609
257.6028557
223.0887191
355.3125576
342.3568321
398.678333
388.2607504
243.6776894
262.7346498
202.0602542
204.9835583
187.110687
189.5236264
243.8056759
85.01929356
115.197535
112.334744
309.3619077
375.251236
370.8249797
425.0707379
421.1702707
346.0931785
272.4025453
501.6948783
490.7543274
365.7260859
360.4269005
300.0451599
390.9289857
255.186588
259.6320799
232.1552317
235.4980408
349.7996365
95.87805953
132.9768004
129.1258897
418.2625644
529.6335755
525.5235264
694.6365818
688.432219
508.2254373
355.475284
432.9530514
428.5993369
521.0251142
516.9164044
406.7095915
289.7745357
153.7013877
710.7357443
1044.731174
1037.631698
524.0065728
704.250539
699.4818178
1016.751491
966.9138363
660.215735
43.25433478
42.43135874
39.35862484
59.79749069
46.47141005
48.03873163
43.39603916
45.84530751
58.4692491
78.65292612
75.53162486
65.17649445
128.2409575
87.92271171
94.52203484
78.09837008
85.3798176
120.9935649
90.68312563
89.04521676
74.56784576
181.3448982
106.6034538
109.5682315
103.6495018
105.8653465
178.1935545
158.0729846
100.621026
103.008154
96.02480651
99.79055559
155.594662
70.42504507
83.0745918
81.0457494
304.7917794
401.2735104
329.8383456
927.0764815
812.6279287
544.1342658
72.73169089
101.1264525
75.49643512
92.12789618
68.58355142
174.1700684
103.058975
80.70402368
282.8332532
290.1703359
463.6242275
177.9560283
221.6534926
217.5316344
229.4193023
224.6517747
180.3542714
282.5292681
265.992394
190.6110283
506.4406016
541.7514237
820.5950892
202.2463896
307.9406777
287.9672058
181.3086247
166.3827482
133.2709949
351.5681168
221.3313594
239.7199326
164.2306751
182.0971297
314.7484658
633.44701
460.6546363
478.155915
368.3671937
384.7077364
503.8407073
162.293458
207.755726
195.7299647
446.7173026
419.5248781
257.5911733
255.771921
472.2673646
455.9106872
370.4307246
359.2255288
227.9841082
240.1769036
384.770142
374.0587743
396.5699504
393.148286
323.2732232
331.6549974
403.4831579
400.0003735
334.5583832
331.6168696
279.2048897
286.3596716
340.5630942
337.5477367
559.4950742
554.3165825
439.3203879
459.5504433
586.2735849
571.4392726
482.3021284
472.4523092
376.5762172
388.4085475
495.4844365
489.8266615
233.4976448
734.70328
727.5255687
549.0978063
567.9249498
749.6558892
737.7907102
139.9343305
161.1245513
220.0399943
222.9537294
322.9719376
146.9521342
177.4045499
175.2452437
181.7969787
179.5848125
148.5244834
141.0266135
169.0832216
167.0449714
173.1032895
171.0012596
142.4434145
279.135492
213.1109253
216.9159559
168.7601994
208.1238413
204.9850766
214.5762833
211.0532778
170.8771835
426.506363
273.085643
278.7255129
196.9066688
199.5701051
259.0802019
135.6113436
161.5159021
159.7094894
165.2145368
163.3015234
136.9138202
697.6901294
529.9946199
534.8425985
521.9716097
526.3464344
694.4335954
343.2507572
417.7077815
413.9977162
246.554683
250.8629388
385.1313992
160.6635225
196.5176965
193.8066991
202.1543498
199.2609275
162.5855508
153.4591307
186.3809043
184.0608896
191.2398106
188.7741523
155.1845398
353.2032414
238.9859885
242.6434023
538.421662
534.4783392
422.3597771
699.9496495
703.8471686
1001.957633
501.6660817
679.8320664
665.3141576
443.5314557
437.2938701
358.7389831
716.3094687
549.2118681
560.3702434
538.2593343
544.5001233
714.899084
993.4009811
691.5673284
695.4852866
683.5676855
687.4432445
990.4666535
402.9239574
512.6570699
508.5891314
713.6051028
708.6428116
528.8070857
628.2809588
881.3215367
800.3396037
587.505893
475.4995981
342.5133643
419.5773902
592.1358645
509.6809889
746.5305364
631.9227513
605.0659862
615.6600965
899.7953502
338.6240657
442.2769704
431.3102771
462.1455707
452.3028555
345.3806834
312.45795
392.7017469
377.4061875
420.2186524
407.2844387
318.91479
869.0480126
571.6756923
591.6209427
408.1918894
538.9480453
514.3750146
589.7649841
567.7619551
420.1049224
369.4053744
480.2033503
470.534963
500.2974986
487.8437362
377.4681958
433.604119
444.2766312
601.2334402
286.8952812
341.3384203
330.6791722
363.8363877
351.7933662
292.3624672
546.4855336
727.4122237
707.2702269
874.8909111
801.2977497
569.5505569
512.391356
674.3874407
672.0412719
684.8001726
683.4766536
518.1598722
649.3465063
941.7753364
940.0030288
945.9998691
943.3807937
652.7137842
630.4282921
932.0542741
915.7562836
938.7778199
936.7597001
637.45718
464.2325897
628.1972094
624.3319872
635.7845106
631.9075864
468.4264362
445.4690815
610.7219979
603.0056546
620.3230026
616.0398274
450.7300572
496.6596108
659.0259274
655.2764962
666.8566206
663.2936605
500.7830508
480.8109631
643.6778457
639.7364092
651.4652297
647.6502786
484.8700505
662.5020662
949.0911171
947.5899956
953.0200116
951.1923208
665.7550008
434.5236977
547.4922658
543.7534943
641.6129977
610.9979105
470.2198189
914.9712554
626.6290566
648.834585
574.2338704
597.7649269
836.3019085
373.1087887
461.3629246
451.3724158
504.4224213
500.1857007
392.0297655
985.3641945
675.2854399
679.5147244
662.2002147
669.9354389
982.7941311
544.4705063
723.5749397
717.9052667
778.3290848
752.1494911
574.0527346
177.9301322
180.1244773
229.0310666
125.911027
148.1188976
146.6031511
151.2854918
149.679015
127.0868365
121.0133149
142.1653665
140.692307
145.1325193
143.6325587
122.2323428
219.374511
173.6947409
175.7903598
130.6077165
154.5752516
152.9165679
157.9778795
156.2526062
131.8202427
247.4518078
191.9325126
194.4374543
382.8113625
379.2219942
312.2997139
652.2704162
481.7183268
486.3611999
468.6701799
476.0852419
644.9189563
582.6767957
447.9745335
458.9146431
430.5515434
438.2290254
559.4430164
296.9216155
355.3623491
350.9072281
257.8469641
294.2155907
279.5250468
319.9039543
307.1161146
265.2988368
544.0776562
403.9301261
418.3052995
668.4826144
498.4811273
502.3872164
490.5555776
494.5674136
664.9896799
320.4941714
389.7227059
386.3144199
410.5238653
406.9346802
334.461977
682.4987673
514.0344561
518.1547606
506.2363394
510.1877559
678.9495987
513.2003329
405.3213837
408.7683526
398.3159544
401.7472838
509.1419589
276.9457915
328.6955712
325.7983811
347.0708183
343.7295141
288.7448591
530.576593
420.2258999
424.5187403
412.5078111
416.0259037
524.6139103
31.9033292
31.90442876
31.96796105
31.90611422
31.90913865
31.96886382
31.91155429
31.91578247
31.97167722
31.92150234
31.92880121
31.97592689
31.93766231
31.94779179
31.98215563
31.95870024
31.96896679
31.98922014
31.97820352
31.98426695
31.9947138
31.77386546
31.77479096
31.83791769
31.77683964
31.77998521
31.84158913
31.78430667
31.78037148
31.86450797
31.83869015
31.84258472
31.86994436
31.85774137
31.8645297
31.88693738
31.88851313
31.89845631
31.91346476
31.92875151
31.93943876
31.94617868
31.96807033
31.97630903
31.9754186
31.64746287
31.64995596
31.71142716
31.65470232
31.66166633
31.71988427
31.67097308
31.68063713
31.75309263
31.73482072
31.74346398
31.76630351
31.77767554
31.79265507
31.80726236
31.84266935
31.86384546
31.86687504
31.92657008
31.94816869
31.9394558
32.00515182
32.02214505
32.0011598
31.52396413
31.52917717
31.5882054
31.53822064
31.55178343
31.60546022
31.5707252
31.60233033
31.6579567
31.65327962
31.67048221
31.68547025
31.73579786
31.76528699
31.76508293
31.86502954
31.90469422
31.88415304
32.03512581
32.07931848
32.02963242
32.20230721
32.24472651
32.16035597
31.40524788
31.4149519
31.47057774
31.43090475
31.45463368
31.50131172
31.48976364
31.55233667
31.58576027
31.59954521
31.62970403
31.63618243
31.75320011
31.80811943
31.78913251
32.01237296
32.09643915
32.0303165
32.40214821
32.51424745
32.36603238
32.86538086
33.01558765
32.7193004
31.29165717
31.30812414
31.36013101
31.33447087
31.37312281
31.41165752
31.4293104
31.53437866
31.54335433
31.58300778
31.63514485
31.62938215
31.8557851
31.95477471
31.9065559
32.36462066
32.55285101
32.40501813
33.35631632
33.72811966
33.32008563
35.21823228
35.95925628
34.75111156
31.18370231
31.20920413
31.25701408
31.24897654
31.30676053
31.3378611
31.38799505
31.54930568
31.53515994
31.60860936
31.6940961
31.67505032
32.06019462
32.23215762
32.15318194
33.00997317
33.4072574
33.1565605
35.50303533
36.80903689
35.78926935
31.08287857
31.12024162
31.16265763
31.17537629
31.25425233
31.27850471
31.36565873
31.59470863
31.55871441
31.67360048
31.79963387
31.7713071
32.34828034
32.61328804
32.51597053
33.87720472
34.56689653
34.27584372
30.99035333
31.04095283
31.07774088
31.11249683
31.2134592
31.23193255
31.35849275
31.65975624
31.60998126
31.76813774
31.93724532
31.90135372
32.66846094
33.02059924
32.92127289
34.6998378
35.61403403
35.37938673
30.90636035
30.97078485
31.0017845
31.05891528
31.18230492
31.1958218
31.3616144
31.73156158
31.67638122
31.87116237
32.07904714
32.04305078
32.96263156
33.38173265
33.29583079
35.33861636
36.3812522
36.20973108
30.83068564
30.90845252
30.93387804
31.01285348
31.15836605
31.16789065
31.37098431
31.80320505
31.74687911
31.9742836
32.21515668
32.17876278
33.21933386
33.68812348
33.61109682
35.840204
36.9722813
36.83026719
30.8720074
31.14571044
31.8141987
32.07141273
32.33796096
32.30175646
33.43641462
33.94524002
33.87980126
36.2658911
37.486464
37.35271689
62.45430814
58.44598597
53.64879032
48.13293225
51.46187197
66.62079444
59.25809491
59.65646056
56.67347127
57.1908929
63.99096614
72.08490123
62.80596382
63.375201
60.04758993
60.4618222
68.37049165
80.20020763
68.25769247
69.10661593
63.96699293
64.61249869
74.93816242
333.259053
283.4808587
285.8494674
69.90570559
70.80963479
83.8405773
497.1966989
396.6080627
401.9403568
337.4520389
340.804248
413.5785299
207.9870719
165.9011576
167.7640432
154.7149964
156.7564833
194.9677206
311.5949662
308.7522761
261.5722069
267.9752514
317.2408102
314.4110539
400.7414057
330.8177416
334.1231063
288.2013689
290.734421
343.1379795
407.2020035
412.1261439
525.4052047
112.9817497
61.86932809
55.45064023
56.11421964
49.14924753
50.39202931
54.98342069
139.137806
117.4321938
120.5642447
88.60017114
94.87695836
104.6739266
187.1218194
150.4706256
152.7233407
137.840849
139.5819739
171.2593046
162.9062567
134.6205808
136.245835
123.2212525
125.6498914
150.081547
116.9576315
105.9944994
93.77315055
366.0204551
370.2662579
450.6259267
418.3155379
332.512178
349.4663378
197.0787429
218.0802975
244.1604991
283.4724958
276.7319101
251.9547893
252.5880947
293.0220626
288.7565302
279.4885878
231.2627688
201.8213638
273.2765651
274.0001082
315.0744998
297.4644509
273.8803824
272.9653116
435.5407839
358.3875181
362.4367313
309.7206799
313.0745748
373.4601479
360.2437246
303.791078
306.7325608
31.7906167
31.81605016
31.81089182
31.82807461
31.8212272
31.79703228
31.87379457
31.84687114
31.85212614
31.82436939
31.84358226
31.83478563
31.86283232
31.85198284
31.83478981
31.89340061
31.87160124
31.88002648
31.87490111
31.88544817
31.8728864
31.9102386
31.8965323
31.88810535
31.92243209
31.90802049
31.91860845
31.93571487
31.93501262
31.92111644
31.95994935
31.9471105
31.94917203
31.95569039
31.94878101
31.95898891
31.98683843
31.97962845
31.96977802
31.98637305
31.99471309
31.98139176
31.98247757
31.70283731
31.72217496
31.71170243
31.74802024
31.73398135
31.71698716
31.77428389
31.75318465
31.76498073
31.77154815
31.78049916
31.76329316
31.81853623
31.79882629
31.79239458
31.82013747
31.80790469
31.82565374
31.87156255
31.86566036
31.8414878
31.91446757
31.88925507
31.89951704
31.88354647
31.88462219
31.90662502
31.99088953
31.96545831
31.93903162
32.01118149
31.98869195
32.02102955
31.95528249
31.96825896
31.98977686
32.09843423
32.05439295
32.03522143
32.07201087
32.11241313
32.0120251
32.03242823
31.64622713
31.65749618
31.63730124
31.7053638
31.67977367
31.67279378
31.70229856
31.69004785
31.71181848
31.77542467
31.76816114
31.73534851
31.84374197
31.80343183
31.81849854
31.79266539
31.79577282
31.82881537
31.97539923
31.93553482
31.88779419
32.0391271
31.9858634
32.03695813
31.91876552
31.94642764
31.99055023
32.23933651
32.15184961
32.09348443
32.24990639
32.20362244
32.31601747
32.06359553
32.12589445
32.17563083
32.51488328
32.35738623
32.32023282
32.41050966
32.54669218
32.19010805
32.2643302
31.62671212
31.62605169
31.59103514
31.71468961
31.66776234
31.67308903
31.66615917
31.66577028
31.70629807
31.86510993
31.83242938
31.76942466
31.98751734
31.90449169
31.94885357
31.83997026
31.86980228
31.93747958
32.28272153
32.18420537
32.08109097
32.42599236
32.29834888
32.42674681
32.10517868
32.18965059
32.29184169
32.97421402
32.72772095
32.56649695
33.02857893
32.87581406
33.22675964
32.45015319
32.64919363
32.79618237
33.97722582
33.39807819
33.27698787
33.60465162
34.13418638
32.81995527
33.07947093
31.65835233
31.64547548
31.58537514
31.8000615
31.71664773
31.73940771
31.68360669
31.69797609
31.77116406
32.07687456
32.01335713
31.89803223
32.30849314
32.1484717
32.2331485
32.00500589
32.06993886
32.20579065
32.9274704
32.72871854
32.49820595
33.34094963
33.00698381
33.27107422
32.58340599
32.77502972
33.03841766
34.94123249
34.28092601
33.75944237
35.5845193
34.85463492
35.9264265
33.60463986
34.21887389
34.80783919
40.4405058
37.70262486
36.78413193
38.89144333
43.42623001
35.20511226
36.43912889
31.74146485
31.71725499
31.62199682
31.96616609
31.83097066
31.86690025
31.76632049
31.7960809
31.91680214
32.41194502
32.3224037
32.12760989
32.85127757
32.55863302
32.67694173
32.33476231
32.43959277
32.69480744
33.96956853
33.68633641
33.21759455
35.11984556
34.30175592
34.69211798
33.58158776
33.91992447
34.58679465
39.26172791
37.94910981
36.27473397
44.20833806
40.22475597
42.66706659
36.96748753
38.73640161
41.54656727
49.59797229
48.08805002
50.20674173
31.86604883
31.83222771
31.69501331
32.19267449
31.99631544
32.04304024
31.9098157
31.95049969
32.13094689
32.82170413
32.71823266
32.42938523
33.52417092
33.07500832
33.20675141
32.81275862
32.93994362
33.35085678
35.12838188
34.85551274
34.10000035
37.29657325
35.87814357
36.22950031
35.10533659
35.49910275
36.79158188
32.00835943
31.97216702
31.79272702
32.43940901
32.18535454
32.23292477
32.09060223
32.13865776
32.37914329
33.20900096
33.11549145
32.74462069
34.14475009
33.5723146
33.68640301
33.33134782
33.45500874
34.00075109
36.02842265
35.82803567
34.87558046
38.84457401
37.1004246
37.34163847
36.54783302
36.83989227
38.52686658
32.14819046
32.11218697
31.89538857
32.66864591
32.36726935
32.41272528
32.27830539
32.32457527
32.6154281
33.54099244
33.46017305
33.02767997
34.64343877
33.98825329
34.08361054
33.79154659
33.89439302
34.53172851
36.6912194
36.53774608
35.47097007
39.85915987
37.94589976
38.12779213
37.5572392
37.76127764
39.6431386
106.0553321
93.91536141
94.73197952
92.41761566
93.16332272
104.9645186
32.27723778
32.24158073
31.99343643
32.86967781
32.53085092
32.57391121
32.4517807
32.49689632
32.82774817
33.82094141
33.74937747
33.27031159
35.04693991
34.33047945
34.41371553
34.1671672
34.25693888
34.9584555
37.2350893
37.09919567
35.94594938
40.6827577
38.61762573
38.78345178
38.29321573
38.46292292
40.49515744
122.1895609
107.2969232
108.1677601
105.6462649
106.4913847
121.1289304
32.60672016
32.64772643
33.00997294
34.48361523
34.56029957
35.31576734
38.92962331
39.09752565
41.31380207
143.2284973
123.4355298
124.8161083
121.0436339
122.2299067
141.6668595
118.0530993
104.0342026
104.8606144
102.435071
103.2590358
117.0860922
137.1351126
118.7709064
119.9425448
116.6133697
117.6938296
135.7198188
72.21491568
64.90733963
69.71894288
54.85787758
58.14544625
65.03913159
50.9580536
53.99168426
50.63844452
48.60447057
49.88487163
46.71435094
60.58316229
54.97505043
51.99852539
57.12641329
64.62397449
58.47586863
58.87497559
66.08705098
54.32708282
54.01693827
50.15568288
64.52723267
57.64176133
58.07805499
61.78580838
62.28674923
71.2328582
51.76794713
56.18129326
55.85114731
56.89220221
56.52939789
52.02025182
50.83551956
54.9236237
54.6221775
55.53296242
55.22342371
51.06613764
69.01284052
60.87816126
61.32685181
110.3234141
97.27271481
98.1716095
95.54384677
96.41761995
109.2766344
66.71228727
67.4970808
79.15575896
54.10648347
59.56477291
59.0605984
60.64975743
60.09312284
54.45791898
52.82704069
57.68617123
57.28136859
58.57602777
58.12215732
53.12590408
75.94486222
65.27457059
65.99224034
126.7078809
110.7695442
111.7085363
109.0004899
109.9011185
125.5453755
279.1304831
281.277509
329.9146964
55.69722481
61.82512039
61.22289466
63.07176445
62.44016538
55.97364461
84.81061481
71.67713691
72.61130133
150.079876
128.1383893
129.2530219
125.910455
127.3740613
148.3533083
384.7669448
391.7665129
484.3297707
320.7099197
312.6802461
289.4823194
417.8031933
344.1771954
347.7500942
254.0457526
230.8901506
232.9188272
228.0974841
229.410048
247.534702
330.5034916
270.8743798
276.0826742
260.2543711
265.6499738
323.1903838
162.3223108
164.0940269
205.4309376
115.9901351
136.4071113
134.9811192
139.2553316
137.8174776
117.2434048
111.9462761
130.5881705
128.8676082
133.5738593
132.1354715
112.6067626
197.007683
158.5985833
160.4869745
409.6165269
334.4440095
338.0271373
328.6555292
331.537716
405.689053
483.4328846
377.9589489
381.3081706
371.3129592
374.6318191
479.7726615
259.5747676
305.8944613
302.9684209
351.239422
287.8781806
291.3168932
280.3979899
284.4900104
346.9900751
395.2316904
323.0045265
325.9921377
317.363498
320.2471375
391.7348975
114.2625664
100.7960789
101.6471405
99.05739354
99.96772549
113.2967288
322.9296496
320.0711131
270.133624
498.0589598
391.441615
394.8420322
384.6705424
388.0367669
494.3661189
323.9313669
327.3758792
396.079811
346.4647082
293.1761916
295.8299229
131.6603024
114.5605279
115.59844
112.6175652
113.5944672
130.3813112
291.0045843
333.2710117
327.4425584
130.5689157
53.83139805
54.70985523
60.93701
56.86445814
51.67174663
52.83829512
109.823486
113.9532744
134.1493289
90.46131058
98.24738615
94.64924059
104.0520459
101.1784592
92.48036474
90.70760257
85.6320106
81.7102458
112.6523305
100.0830405
105.1853918
145.7385133
148.235947
184.4627115
107.4941323
123.9307248
122.4659627
127.1494251
125.4703027
108.398269
104.3879752
118.8731703
117.7512844
121.1897385
119.9620797
105.0574556
174.7806424
141.4256697
143.5565987
131.3623929
133.0550192
160.4787885
101.5230314
114.4443098
113.113438
116.7124728
115.5496076
102.220167
97.54157331
108.4698
106.2883084
111.8092789
110.1394351
98.63988818
152.9435496
127.7079157
129.6580251
78.96948037
88.25224664
82.42138868
78.19503911
83.36951537
140.8206736
123.0997411
135.9718074
94.82490746
103.5480579
121.1859676
86.56279847
94.51538568
85.66422826
456.2006861
374.3525139
379.7014912
276.9141049
239.2849104
242.109921
234.7480619
237.113929
271.6514759
300.4583418
251.4641121
255.8046317
244.7219881
248.1579621
294.1830755
287.6803268
312.426486
385.6576817
265.6687416
248.5417878
228.7550496
274.619885
240.9645279
262.8480148
436.3045106
348.5362067
352.5571922
341.0515573
345.9119954
427.0246649
299.9277287
296.6686673
254.0682168
468.0398548
364.5544185
367.9804475
356.8812824
360.9028083
462.8648405
366.7492526
300.0601326
303.0187048
294.2221824