/*--------------------------------*- C++ -*----------------------------------*\
| =========                 |                                                 |
| \\      /  F ield         | OpenFOAM: The Open Source CFD Toolbox           |
|  \\    /   O peration     | Version:  v2012                                 |
|   \\  /    A nd           | Website:  www.openfoam.com                      |
|    \\/     M anipulation  |                                                 |
\*---------------------------------------------------------------------------*/
FoamFile
{
    version     2.0;
    format      ascii;
    class       volScalarField;
    location    "1.85";
    object      nut;
}
// * * * * * * * * * * * * * * * * * * * * * * * * * * * * * * * * * * * * * //

dimensions      [0 2 -1 0 0 0 0];


internalField   nonuniform List<scalar> 
3019
(
0.06605616106
0.2050451754
0.2757194858
0.3614336868
0.4692967266
0.6168957413
0.8381466743
1.090957779
1.155313099
1.150632787
1.148640626
1.148218165
0.1278182884
0.3026405448
0.3843876885
0.4681002127
0.569677635
0.7062986743
0.9069214059
1.133884841
1.15635047
1.15124615
1.148979234
1.148457893
0.1781008922
0.4521829244
0.5841034634
0.6351519422
0.7141366094
0.8348711157
1.014286456
1.166299863
1.157347225
1.151912251
1.149446718
1.148865202
0.1989642669
0.4764304774
0.7528456406
0.8811445843
0.9132481961
1.002396677
1.166151703
1.167367426
1.158255337
1.152601923
1.149997042
1.149367304
0.2271716942
0.503611999
0.7742523103
0.973722518
1.088103522
1.143566734
1.167405309
1.168128003
1.158996391
1.153223368
1.150527187
1.149867602
0.258344506
0.5302585671
0.7919738992
0.9799538245
1.09003644
1.144727996
1.167961647
1.168541844
1.159549279
1.153752752
1.15103583
1.150359721
0.2806255062
0.5461381787
0.7997404249
0.9819871164
1.090714081
1.145015563
1.168027011
1.168645248
1.159880498
1.154119456
1.15141412
1.150731552
0.2872877827
0.5481053049
0.8015307163
0.982660538
1.090528559
1.144681011
1.167708432
1.168488618
1.160078699
1.154419019
1.151742509
1.151052428
0.2905797266
0.5484321563
0.8005649377
0.9822094514
1.089720412
1.14390799
1.167096018
1.168128716
1.160094283
1.154554984
1.151915367
1.151219812
0.292639889
0.5478133929
0.7975904417
0.980591897
1.088397092
1.142812963
1.166264124
1.167617267
1.160043332
1.154660879
1.15205771
1.151349553
0.2937731596
0.546479036
0.793554454
0.9778000509
1.086565598
1.141450216
1.165266138
1.166995256
1.159851921
1.154615664
1.15204495
1.151323308
0.294228171
0.5445737385
0.7889907575
0.9740500433
1.084219001
1.139836581
1.164135159
1.166291322
1.159650226
1.154584755
1.152041068
1.151298164
0.2941450997
0.5422280565
0.784152071
0.9696452569
1.08139618
1.137982699
1.162892494
1.165524855
1.159328358
1.154409386
1.151886805
1.15112244
0.2936415859
0.5395874302
0.779184067
0.9648297902
1.078169862
1.135907426
1.161555261
1.164709255
1.159039085
1.154291212
1.151785563
1.150993581
0.2928986735
0.536798756
0.7741735205
0.9597555519
1.074617062
1.133637536
1.160139155
1.163854596
1.158632037
1.154025286
1.151532177
1.150713842
0.2920698296
0.5339278502
0.7691355436
0.9544970618
1.070802145
1.131201103
1.158656922
1.1629675
1.158288638
1.153850132
1.151368023
1.150519132
0.2911699457
0.5309647874
0.7640364961
0.9490870484
1.066775313
1.128622774
1.15711754
1.162051242
1.157819011
1.153518651
1.151044691
1.150167884
0.2901508462
0.5278748892
0.7588458267
0.9435460059
1.062575016
1.125920912
1.155526046
1.161107643
1.157428794
1.153295246
1.150833101
1.149926417
0.2889921065
0.5246616744
0.7535593645
0.9379003491
1.058228838
1.123107077
1.153883266
1.160133936
1.156914633
1.152924475
1.150472305
1.149539921
0.2876928596
0.5213067965
0.7481832283
0.9321666677
1.053753906
1.120183987
1.152183848
1.159128683
1.156461504
1.152644467
1.150214775
1.149257069
0.2862430477
0.5177963203
0.7427298681
0.9263590295
1.049157586
1.117142446
1.150414915
1.158079284
1.15593999
1.152281894
1.149870538
1.14889426
0.2846036163
0.5141479047
0.73723666
0.920498594
1.044432413
1.113962402
1.148561317
1.156986598
1.155361276
1.151904933
1.14953519
1.148539761
0.2827867246
0.5104489135
0.7317716292
0.9146029679
1.039561376
1.110614598
1.146623055
1.155841895
1.15492757
1.151627352
1.149288866
1.148286289
0.2809700468
0.5068669689
0.726425783
0.9086909083
1.034542175
1.107080376
1.144665783
1.154717819
1.154073963
1.15108084
1.148819543
1.147804089
0.04906671791
0.06185413235
0.1804484629
0.09494787573
0.05048295204
0.1216008885
0.2446098968
0.1835272654
0.1308868981
0.09900342203
0.1427769195
0.07910657958
0.07584495955
0.09257372221
0.1586633042
0.1464341035
0.03353190105
0.0600342808
0.03053565923
0.04031395839
0.1038792228
0.06429735184
0.1720307086
0.3767908073
0.2751768032
0.1198527086
0.1086798896
0.04349981949
0.1968721975
0.1648463079
0.09621480517
0.1072566748
0.007200965335
0.02071707066
0.03560150629
0.08551882056
0.01091322798
0.01335470204
0.0401356763
0.01098685078
0.01081957233
0.01355016314
0.01092781106
0.01136062365
0.02161207384
0.01502665962
0.03116205867
0.02438407376
0.01114514633
0.00745271516
0.02329184634
0.01060827844
0.01089877749
0.1874789137
0.2397582879
0.04228986396
0.01470678652
0.02099921562
0.01093692312
0.01616457882
0.0310082412
0.06196110734
0.01102900464
0.007773510088
0.007888312649
0.01120568664
0.01111062708
0.03958069571
0.03351435884
0.01061757805
0.01054166749
0.0106528257
0.01072582283
0.007411706924
0.0107830633
0.01093676974
0.01223119708
0.01117317299
0.01095438326
0.01111506076
0.01095714156
0.01151456635
0.01139559122
0.01117622039
0.01115741685
0.01138679378
0.01264505713
0.01199857836
0.01080375329
0.01093710893
0.01087216508
0.01263463972
0.01160201816
0.01065541052
0.2574306185
0.3182459697
0.3412131246
0.4198579388
0.4498557617
0.5518048936
0.07862203395
0.1205986183
0.1203833537
0.2694060744
0.3320071429
0.2573298688
0.3512294659
0.4143893998
0.3382617143
0.4367401668
0.5124166192
0.4395741754
0.5405318338
0.6324797381
0.5707936195
0.1413913597
0.2613650553
0.2116585055
0.4458837156
0.511227246
0.3665267723
0.5238051863
0.5686134285
0.4464772066
0.5865506205
0.649166238
0.5423236699
0.6740147585
0.7545799485
0.6602877929
0.1184925047
0.1041225944
0.1932574849
0.3994924532
0.3826545613
0.4702090161
0.6810106039
0.5761992676
0.7473956359
0.8067097422
0.6196938437
0.8103234375
0.8421036695
0.6909386438
0.8579510913
0.9235980077
0.7942741908
0.1445729836
0.1240213415
0.2194460285
0.4246534085
0.4053878135
0.4965537152
0.7049876248
0.6869571037
0.769037426
0.929363503
0.8862417217
0.9713501752
1.0652799
0.9002240566
1.087350605
1.133104175
0.9748192216
0.1789881123
0.1526519698
0.2509166939
0.4521231702
0.4315241962
0.524153645
0.7273418177
0.7109364011
0.7882095924
0.9394708274
0.9323697513
0.9789843077
1.068215383
1.066283439
1.089690395
1.134670797
1.133608733
0.2096448543
0.1876232475
0.2765890442
0.4734236948
0.4585188236
0.5436671541
0.7410705521
0.7319242857
0.7988519776
0.9432876598
0.9410185919
0.981623289
1.069426755
1.068639299
1.090637899
1.135220502
1.134889441
0.2215990055
0.2145814137
0.286233432
0.4796864759
0.4765893868
0.5478348147
0.7436653313
0.7421223306
0.8013499849
0.9446575405
0.943765757
0.9826006233
1.069584603
1.069550027
1.090640359
1.135043591
1.13523451
0.2260734074
0.2228786775
0.2898838172
0.4816030467
0.4802985864
0.5484502313
0.7429819706
0.7437537579
0.801036136
0.9446380098
0.9447818348
0.9824273778
1.068989379
1.069497763
1.089972669
1.134347675
1.134911528
0.229099984
0.2269439962
0.2922253328
0.4822893017
0.4818750301
0.5480420027
0.7403238619
0.7424497335
0.7984640798
0.9431556399
0.9444077159
0.9811098234
1.067775771
1.06874189
1.088774783
1.133270575
1.134110253
0.2310855817
0.2296784844
0.2935593726
0.4820420956
0.4823035741
0.5468707
0.7367255373
0.7394853642
0.7946268871
0.940254219
0.9425529042
0.9785993239
1.065944308
1.067376746
1.087072056
1.131880466
1.13295128
0.232316541
0.2314530971
0.2941691944
0.4810715503
0.4818591114
0.5450964383
0.7326448791
0.7357394839
0.7901644563
0.9362776872
0.9393432328
0.9750602978
1.0634806
1.06538637
1.084852593
1.13019487
1.131486792
0.232940918
0.2325229533
0.294209992
0.4795357054
0.4807330089
0.5428478909
0.728277452
0.7315731073
0.7853784142
0.9316270402
0.9351638742
0.9707928098
1.060440738
1.062770518
1.082142768
1.128221476
1.12972822
0.2331245183
0.2330184919
0.2937968956
0.4775858254
0.4790776783
0.5402663412
0.7237522869
0.7271551465
0.7804321132
0.9265904088
0.9303948354
0.9660622034
1.056929466
1.059602288
1.079009844
1.12597982
1.127685351
0.2330388834
0.2331196261
0.293095996
0.475415013
0.4770555491
0.5375033907
0.7191697647
0.7226080115
0.7754279618
0.9213363336
0.9252921863
0.961043174
1.053052299
1.055990344
1.075532028
1.123501127
1.12538118
0.2328220769
0.2329910428
0.2922819805
0.4731626346
0.4748522337
0.5346530007
0.7145676799
0.7180201844
0.7703990768
0.9159400591
0.919998405
0.9558268258
1.048891506
1.052035561
1.07177751
1.120819887
1.122848603
0.2325181263
0.2327523296
0.2914040458
0.4708625706
0.4725939162
0.5317162016
0.7099170109
0.7134102916
0.765319
0.9104216874
0.914570743
0.9504524082
1.044505789
1.047813651
1.067799554
1.117967325
1.120121714
0.232092676
0.2324219061
0.2904191247
0.4684389167
0.4702694404
0.528658377
0.7051741475
0.7087400411
0.7601525391
0.9047906943
0.909023059
0.944945032
1.03993916
1.043379086
1.063639569
1.114968501
1.117230552
0.2315188371
0.2319587226
0.2892959237
0.4658411113
0.4678046077
0.5254774449
0.7003228365
0.7039703472
0.7548896527
0.8990570634
0.9033627877
0.9393212108
1.035223951
1.03877272
1.059327941
1.111840738
1.114198143
0.2307985377
0.2313465865
0.2880333198
0.4630759494
0.4651637717
0.5221594583
0.6953658062
0.6990921508
0.7495350765
0.8932404762
0.8976083377
0.9336078707
1.030382658
1.034023897
1.054884326
1.108592665
1.111039843
0.2299322251
0.2305881591
0.2866255855
0.4601414364
0.4623562592
0.5186888047
0.6903106502
0.6941094342
0.7440989609
0.8873551617
0.8917741593
0.9278165343
1.025427556
1.029152656
1.050317795
1.105221323
1.107761688
0.2288808782
0.2296786904
0.2850382268
0.4570419364
0.4593791459
0.5150700102
0.6851854844
0.6890326714
0.7386098641
0.8814234385
0.8858743919
0.9219672071
1.020357236
1.024171704
1.045624913
1.10171198
1.104357703
0.2275998348
0.2285719369
0.2832494039
0.4538338343
0.4562433772
0.5113666399
0.6800572251
0.6838995005
0.7331286674
0.8754758238
0.8799362362
0.9160788929
1.015179081
1.019075648
1.040796088
1.098038207
1.10081003
0.2261851164
0.2272521962
0.2813702878
0.4506357713
0.4530344865
0.5076889613
0.6749827608
0.6787880854
0.7276958844
0.869511349
0.8739894115
0.910140941
1.009851794
1.013860787
1.035802638
1.094172831
1.097090472
0.2247483311
0.2258846728
0.2794517064
0.4473247595
0.4499280107
0.5038607606
0.6696274117
0.6738098994
0.7219338668
0.8630903949
0.8680665024
0.9037170176
1.004004175
1.008518585
1.030291068
1.089874452
1.093181835
0.0464623494
0.038039186
0.0399026811
0.08065706803
0.07641876007
0.05732800847
0.1645150811
0.1451722363
0.1536664167
0.0880267556
0.03525125144
0.02368953756
0.03144702457
0.05172418042
0.1500482657
0.1395023088
0.1065388605
0.2126827709
0.1797766558
0.2161404199
0.1575588361
0.1724239168
0.2055988986
0.1115390246
0.09722780835
0.1396961245
0.1282163879
0.1255423804
0.1246886
0.138781375
0.02589995015
0.03606082341
0.06183190825
0.06482044404
0.08194403372
0.07210326287
0.05422479175
0.05815112848
0.1258377221
0.1236109181
0.08272152089
0.154001495
0.1382508246
0.1424482958
0.1306807227
0.1336739499
0.1500871595
0.02312509229
0.02585390728
0.0356593321
0.01443979781
0.01353093082
0.01123683772
0.0562387988
0.03378073177
0.03892218494
0.0282452378
0.0177654926
0.02028786738
0.06320455459
0.05860727164
0.03344775007
0.09958988438
0.07863108871
0.08298894949
0.07401810817
0.09482508305
0.04671759444
0.05088619746
0.06819878807
0.01737783494
0.01587822414
0.04160336291
0.04096265039
0.2474234876
0.2403613426
0.1480330497
0.3703529639
0.308642332
0.3149353674
0.2384757805
0.2941387665
0.319530525
0.1174769963
0.09640174468
0.1005604493
0.08757324422
0.09187332503
0.1127125559
0.05292875152
0.07190775058
0.06746405418
0.1833392357
0.1628007641
0.1737358599
0.1474730144
0.1543499362
0.1725502743
0.1012418211
0.1334093068
0.1276811212
0.1025908673
0.06595129677
0.06920164907
0.0182478817
0.01155546384
0.01268654213
0.04818840764
0.04580484782
0.05090400971
0.04940067367
0.03360326691
0.08351630367
0.06715135498
0.06816191836
0.01133674441
0.01618507179
0.01421418675
0.02098607116
0.01844987472
0.0122969725
0.03810927679
0.02853949378
0.03106859219
0.01926751964
0.01310288846
0.01427494184
0.01143699464
0.01200012259
0.0169758634
0.02926123228
0.01929723635
0.0213200559
0.01583346472
0.01744010734
0.02651491199
0.01420714559
0.01573718933
0.02558738042
0.2076813329
0.1948035851
0.1751977247
0.2244383849
0.2074703838
0.2213656379
0.03337508615
0.03559507004
0.04459983367
0.01623929823
0.02580680834
0.02347178225
0.03082725793
0.02856248046
0.0184751969
0.04093888414
0.03895071224
0.02840691787
0.0575633937
0.04929676135
0.0493660938
0.04587609008
0.05603336872
0.02123082622
0.01940748979
0.03738477728
0.02869195958
0.03093167924
0.02380389745
0.02626707762
0.0351467371
0.5880538349
0.6980848411
0.8133217531
0.9336060752
1.065194474
1.160022395
0.07036385804
0.08909227576
0.08502678014
0.2216759907
0.24152179
0.2227345425
0.296955965
0.3173600906
0.295618502
0.3837353367
0.4082763468
0.3857304617
0.4909190077
0.5224073178
0.5011944198
0.6693563767
0.7734842278
0.7298280308
0.8683649824
0.978706249
0.9542668312
1.089193674
1.161347629
1.160663914
0.1323797754
0.1708056289
0.1650703068
0.3448300122
0.3640344974
0.3219010554
0.4244175162
0.4434722509
0.404506256
0.5033014722
0.5260719388
0.4916078314
0.600788058
0.6298397156
0.5992897265
0.7829345792
0.8762328818
0.8223389735
0.9558118537
1.05556933
1.014211259
1.146113293
1.162564975
1.161976319
0.1832031794
0.2582211937
0.2533706647
0.4582180578
0.5296054792
0.5234417445
0.654111994
0.6580450394
0.5947242653
0.6885314617
0.7028561963
0.6522039212
0.7584800198
0.7809667281
0.7389522146
0.9376707734
1.008611489
0.9378817914
1.083980898
1.167455012
1.107876796
1.166764188
1.163651741
1.163163966
0.2052459001
0.2778084712
0.2724646766
0.4828991946
0.5545028863
0.5480576534
0.7582829945
0.8186573056
0.8138105841
0.9639501896
0.9568298033
0.8830877795
0.9722362371
0.9852374395
0.9286281389
1.13768239
1.160394254
1.091308468
1.16684234
1.168938134
1.168400079
1.167800464
1.164536925
1.164144969
0.2351204677
0.3032855698
0.2964339627
0.5106646574
0.5816861105
0.5748283657
0.7792490116
0.8367279144
0.8325172671
0.9758140119
1.011136925
1.009579384
1.088733775
1.106845374
1.106304195
1.144533953
1.161589908
1.161131488
1.167752527
1.169624732
1.169338526
1.168390719
1.16515405
1.164906244
0.2652435453
0.3300785909
0.3238442441
0.5356345027
0.6055299224
0.6004470662
0.795044897
0.8493526612
0.8469939791
0.9806192231
1.014467132
1.013937286
1.090304871
1.108162016
1.107944255
1.145012285
1.161970221
1.161859105
1.168048944
1.16986932
1.169794272
1.168641094
1.165494886
1.165380342
0.2836730418
0.3468589424
0.3442230565
0.546993791
0.61522438
0.6146323538
0.800450106
0.8532708968
0.8526504902
0.9822671876
1.015706518
1.015514336
1.090736668
1.108453412
1.108457493
1.144812437
1.161801806
1.161944612
1.167909886
1.169752383
1.169848239
1.168605041
1.165593125
1.165598559
0.2882418321
0.3509620123
0.3501145352
0.5482917044
0.6157159763
0.6157795104
0.8015320788
0.8543926584
0.8543250839
0.9826511629
1.015833335
1.015890677
1.090378178
1.108029971
1.108190585
1.144134522
1.161231356
1.161559026
1.167434058
1.169357013
1.169582637
1.168337928
1.16549193
1.16559292
0.2912001153
0.3534518327
0.3529558755
0.5483540999
0.6146938419
0.6150429738
0.7999665244
0.8532315613
0.8537266921
0.9819176772
1.01504521
1.015327069
1.089436153
1.107083595
1.107362791
1.143111753
1.160368404
1.1608312
1.166703712
1.168755723
1.169076707
1.167895025
1.16523207
1.165409021
0.2929953573
0.3548504114
0.3545812688
0.5475391195
0.6128477009
0.6133686824
0.7966520983
0.8501793694
0.8510777273
0.9799986215
1.013320704
1.01384337
1.08798738
1.105702844
1.106087361
1.141812803
1.159282924
1.159850491
1.165783482
1.168002813
1.168394364
1.167322708
1.164857387
1.165086903
0.2939429289
0.3554466102
0.3553659274
0.5460503341
0.6104374245
0.6110855567
0.792449408
0.845984501
0.8471054201
0.9769399912
1.010637241
1.011393194
1.086026379
1.103900462
1.10439102
1.140260732
1.158013528
1.158669659
1.164715793
1.167135188
1.167580667
1.166655806
1.164394784
1.16466581
0.2942512421
0.3553715699
0.355446034
0.544022105
0.6075888084
0.6083360035
0.7877993874
0.8411924757
0.8424272424
0.9729987
1.007129616
1.008072014
1.083555182
1.101676312
1.102270894
1.138465489
1.156581743
1.157316858
1.16352667
1.166177195
1.16666565
1.165917486
1.163870538
1.164168335
0.2940509843
0.3547514281
0.3549505967
0.5415884133
0.6044205498
0.6052356246
0.7829170262
0.8361001389
0.8373909747
0.9684719973
1.003016144
1.004089811
1.080624084
1.099059247
1.099747762
1.136443339
1.155005034
1.155810385
1.162234665
1.165145929
1.165669338
1.165124229
1.163294648
1.163617011
0.2934693959
0.3537574009
0.3540296591
0.5388984371
0.6010642991
0.6019140969
0.7779328979
0.8308705836
0.8321851568
0.9635810624
0.9984889441
0.9996513669
1.077309247
1.096101144
1.096869471
1.134219543
1.153302218
1.154168143
1.160856204
1.164055053
1.164606877
1.164287125
1.162683421
1.163019686
0.2926955395
0.3525772138
0.352883943
0.5360879439
0.5976286911
0.5984920942
0.7729168396
0.8255824665
0.8269087182
0.9584561135
0.9936765939
0.9949017549
1.073685491
1.092859152
1.093693366
1.131822412
1.151492099
1.152409462
1.15940571
1.162915348
1.163490504
1.163415259
1.162038509
1.162391332
0.2918521846
0.351289313
0.3516206542
0.5331962525
0.5941385793
0.5950180765
0.7678674952
0.8202418647
0.8215833178
0.9531574308
0.9886507664
0.9899246785
1.069813369
1.089383643
1.090271992
1.129277618
1.14959034
1.150551779
1.15789417
1.161734252
1.162329429
1.162512658
1.161369427
1.161730971
0.2909274659
0.349891716
0.3502529613
0.5302043221
0.5905542027
0.5914619366
0.7627472865
0.814822915
0.8161863056
0.94771249
0.9834529676
0.9847669148
1.065739934
1.085715744
1.08664889
1.126605345
1.147608057
1.148608566
1.156328631
1.16051594
1.161129135
1.161583065
1.160674076
1.161049279
0.2898741122
0.3483579369
0.3487551596
0.5270829889
0.5868343332
0.5877786114
0.757532226
0.8093119346
0.8106984443
0.9421399684
0.9781145854
0.9794611454
1.061500974
1.081886783
1.082857834
1.123818899
1.145550965
1.146588332
1.154712234
1.159261737
1.159892552
1.160624712
1.159953386
1.16033823
0.2886815225
0.3466759802
0.3471099098
0.5238360549
0.5829719736
0.5839502726
0.7522226827
0.8037131295
0.8051207718
0.9364743313
0.9726628303
0.9740317331
1.05712149
1.077918405
1.078922801
1.120923487
1.14341916
1.144494025
1.153043059
1.157969106
1.158618634
1.159638043
1.159211288
1.159607005
0.2873481616
0.3448435406
0.3453145319
0.5204439907
0.5789759844
0.5799876568
0.7468256185
0.7980387836
0.7994642601
0.9307202774
0.9671137101
0.9685093312
1.052615594
1.073821163
1.07485743
1.117912931
1.141204396
1.142322414
1.151311089
1.156630083
1.157302924
1.158613588
1.158429092
1.158841987
0.2858568838
0.3428488709
0.3433616585
0.5168945142
0.5748701935
0.5759057553
0.7413571152
0.7923027359
0.7937408138
0.9248974509
0.9614848059
0.9628992257
1.047988369
1.069594752
1.070664164
1.114769946
1.138884375
1.140061204
1.149496253
1.155229102
1.155933883
1.157547035
1.1576349
1.158050096
0.2841649457
0.3406697056
0.3412277048
0.513221233
0.5706864193
0.571736221
0.7358636927
0.7865489008
0.7879860158
0.9190270475
0.9557862234
0.9572165806
1.043230665
1.065225434
1.066331954
1.111466202
1.136421286
1.137689507
1.147567222
1.153743274
1.154501592
1.156415424
1.156759606
1.157215124
0.2823094141
0.3383694084
0.3389534618
0.5095198778
0.5665061503
0.5675530836
0.7304077894
0.7808263787
0.782256654
0.91311956
0.9500192295
0.9514697935
1.038315477
1.060686201
1.061837894
1.107974343
1.133747334
1.135202821
1.145468196
1.152127836
1.15300581
1.155192585
1.155878818
1.156350811
0.2804400379
0.3360787919
0.3367229304
0.5058491427
0.5623506583
0.5634974357
0.7249403166
0.7750718593
0.7766210087
0.90709479
0.9441046844
0.9456659212
1.033199987
1.055928567
1.057172237
1.104087822
1.130633964
1.132689654
1.143039327
1.150274481
1.151508039
1.153797242
1.15480063
1.155500771
0.1728714308
0.1651399273
0.1697368476
0.09361493109
0.07038133763
0.07699952481
0.04293311632
0.04329044063
0.05465681295
0.1795799143
0.1810399488
0.1902463297
0.1333416744
0.139172556
0.1088267025
0.1055596109
0.09018962261
0.05011900721
0.04746302
0.03828697119
0.03003807512
0.02841095699
0.04385987773
0.05585488642
0.05164094164
0.09712454562
0.1095631904
0.1096050531
0.03397017519
0.03242902738
0.2764357955
0.2597278567
0.2414974586
0.30077119
0.2796379883
0.2969474682
0.3657781591
0.34782889
0.323501307
0.4018482607
0.3737589851
0.3917925981
0.482113975
0.4644415136
0.431989579
0.5360727132
0.4989911041
0.5163592178
0.097067855
0.0933170373
0.07465711072
0.1213304894
0.1131638586
0.1125293063
0.1049824022
0.108950525
0.1228368801
0.2888459517
0.2631235591
0.2430850685
0.3027024213
0.2799361741
0.3085183677
0.2374965781
0.2565413281
0.2780438075
0.3711891652
0.3423931964
0.3220564767
0.3858421714
0.3635096579
0.3923483594
0.3163520707
0.3382431291
0.3605716113
0.4609463127
0.4328619
0.4084220042
0.4857213072
0.4586669782
0.4858255293
0.411628734
0.4342693115
0.4615085811
0.5712805068
0.5459443938
0.5150253487
0.6102689034
0.577771006
0.6027566207
0.5348244619
0.5552590809
0.5879350717
0.180782214
0.1755989862
0.1384466706
0.1889585873
0.207573548
0.2331670177
0.4793577766
0.4160393226
0.3987530875
0.4556398204
0.4373374461
0.4967513226
0.3437948293
0.3864870049
0.4074013674
0.538038862
0.4875059874
0.4704926253
0.5234591636
0.5052988303
0.5531249837
0.425444405
0.4628334886
0.4820829978
0.6061676223
0.5640839436
0.5434195107
0.6090669021
0.5860671431
0.6269334269
0.5160758131
0.5497126913
0.5740153246
0.6994688165
0.6631535392
0.6352330829
0.721244837
0.6915773626
0.7263113829
0.6296117147
0.659651495
0.6884867003
0.11357852
0.1091011658
0.2675137829
0.2628285536
0.1880574971
0.3938229583
0.3300595042
0.3350009157
0.3202832165
0.325202309
0.3882603395
0.541802942
0.5356826223
0.464175723
0.6750840437
0.6065485206
0.612577416
0.5677985391
0.6005440044
0.6537055574
0.8088984674
0.7314974818
0.7370408729
0.7382376472
0.7321768139
0.8088003091
0.6066078961
0.6661874936
0.676226184
0.8181653144
0.7581858802
0.7470984734
0.7877956576
0.771787294
0.8288593389
0.6707942892
0.7191709952
0.7375146958
0.875739111
0.8265444452
0.8063747278
0.8784942245
0.8495560036
0.8977945581
0.7643745416
0.8055096489
0.8333323784
0.1370788737
0.130207956
0.2898329777
0.2836040855
0.2120958733
0.4179784526
0.3513276815
0.3574250991
0.3401431782
0.3455656188
0.4115433606
0.5679471527
0.5611414404
0.4896215689
0.698968733
0.631315568
0.637777921
0.6186971287
0.6249448284
0.6929454173
0.8280585569
0.8234189435
0.763694572
0.9261213603
0.8776490114
0.8815784991
0.8693251149
0.8735527309
0.9226842779
1.007752218
1.005682586
0.9687351608
1.032821464
1.033968269
1.038916772
0.8897956514
0.9565187566
0.9627575677
1.105661642
1.046396985
1.036732709
1.083992352
1.061422071
1.120763856
0.9483969636
1.003120486
1.02504453
0.1700706415
0.1612300862
0.3171669741
0.3102576663
0.2430956122
0.4454095649
0.3772004726
0.3838496087
0.3638382504
0.3704600738
0.4384727722
0.5946788261
0.5883481348
0.517576593
0.722234497
0.6568047682
0.6626245891
0.644249651
0.6506431081
0.7167201796
0.8440631405
0.8406018019
0.7839456022
0.9374815513
0.891834374
0.8945181057
0.8852934307
0.8887339641
0.9350932003
1.013292785
1.012383781
0.9775823092
1.067696011
1.042241171
1.0428708
1.04029319
1.041399323
1.067069258
1.107657046
1.107293323
1.089259233
1.134387058
1.122195739
1.122511663
1.121328692
1.121804106
1.134036247
0.2031569642
0.1958489148
0.3404648388
0.3356833358
0.2713286933
0.4694059928
0.4015769699
0.4059719522
0.3902886457
0.3962235382
0.4642828161
0.6127901765
0.6096622263
0.5402249663
0.7389225882
0.6761335962
0.6789253529
0.6678745814
0.6724926429
0.7358215859
0.8518986764
0.8509648839
0.7974630727
0.9427082316
0.8993365185
0.9000647939
0.8967182445
0.8983575057
0.9420135823
1.015248017
1.014901275
0.981169991
1.069237892
1.044153239
1.044412015
1.043390447
1.043815282
1.068977943
1.108413352
1.108316476
1.090503434
1.135160226
1.123068938
1.123142658
1.122758383
1.122942608
1.135052153
0.2201863608
0.218417076
0.3491640698
0.3481033188
0.2850745001
0.4789714746
0.4126386388
0.4135484198
0.4094770194
0.4115920918
0.4781291047
0.6157350845
0.6155596481
0.5474718577
0.7433696346
0.6813129915
0.681498675
0.6802655774
0.6809147251
0.7428581108
0.8541126636
0.85375957
0.8009892517
0.9444473079
0.9015758154
0.9018668832
0.9006758821
0.9011789684
0.9441514441
1.01589054
1.015830328
0.9824706334
1.06962459
1.044779127
1.044782249
1.044598775
1.044719542
1.0696147
1.108316574
1.108405234
1.090710955
1.135143135
1.12308985
1.122992801
1.123168069
1.123149378
1.135208207
0.2251080216
0.2240482042
0.3523751665
0.3517143877
0.2891069237
0.4812519555
0.415709872
0.4162542173
0.4143610491
0.4150806436
0.4808199952
0.6153355009
0.6155632684
0.5484055252
0.7433909604
0.6810634753
0.6806731224
0.6815004903
0.6813470661
0.7436564614
0.8540902914
0.8543138981
0.8013639063
0.9447748915
0.9020847721
0.9019271875
0.9020510402
0.9021251775
0.9448223226
1.015551649
1.015720168
0.9825741486
1.069198385
1.044489701
1.044298206
1.044733228
1.044635162
1.069368593
1.107614352
1.107837252
1.090192433
1.134561648
1.122505862
1.122285524
1.12286153
1.122698453
1.134750261
0.2284529205
0.2277379071
0.3542592112
0.3538828197
0.2917490867
0.4822147426
0.4174253705
0.4176709947
0.4167177602
0.4171088087
0.4820789583
0.6138522128
0.6142951448
0.5482236694
0.7411050721
0.6790419566
0.6783847771
0.680196441
0.6796490605
0.7418191825
0.8518943211
0.8526165123
0.7992612165
0.9436667638
0.9007564677
0.900145013
0.9016521239
0.9012609027
0.9440848106
1.014304624
1.014704832
0.9815518135
1.068135638
1.043450827
1.04307462
1.044061556
1.043779497
1.068457686
1.106445624
1.106777749
1.089121108
1.133570889
1.121475354
1.121158524
1.122039621
1.121769179
1.133850815
0.2306675513
0.2302020375
0.3552408326
0.3550695635
0.2933021149
0.4821778407
0.4180460162
0.4180639434
0.4178529792
0.4179770306
0.4822668172
0.611704339
0.6122921573
0.5472249816
0.737680824
0.6761821795
0.6753831563
0.6776859321
0.6769508591
0.7386030475
0.8481835503
0.8492111068
0.7956618432
0.9410968257
0.8977553327
0.8968033887
0.8994351157
0.8986357412
0.9418654499
1.012094047
1.012737147
0.9793335976
1.066461736
1.041654256
1.041081826
1.042650308
1.042177155
1.066939269
1.104854852
1.105292078
1.08754596
1.132256236
1.120076019
1.119670964
1.120819719
1.12045881
1.132612794
0.2320664844
0.2317825643
0.3554849129
0.3554855504
0.2940756589
0.4813724365
0.4178470598
0.417691159
0.4180351774
0.417962294
0.481636626
0.6090609454
0.6097618417
0.5455895272
0.733697309
0.6728331552
0.6719371744
0.6745574991
0.6737073382
0.7347301653
0.8436402235
0.8448273948
0.7913184351
0.9373490064
0.8936082979
0.8924539143
0.8957897037
0.8947225433
0.9383732554
1.008973113
1.009829293
0.9760252296
1.064153873
1.039078924
1.03832104
1.040460997
1.039793004
1.064789665
1.10284006
1.103383362
1.085455294
1.130644065
1.118324743
1.117831936
1.119244255
1.11879546
1.131074254
0.2328334037
0.2326968462
0.355122802
0.355264475
0.2942458911
0.4799651225
0.4170146085
0.4167341011
0.4174995118
0.4172737097
0.4803648705
0.6060366725
0.6068216151
0.5434468953
0.7293883953
0.6691420805
0.6681791378
0.6710223616
0.670090491
0.7304879391
0.8386715264
0.8399394622
0.7865948953
0.9328347154
0.8888075608
0.8875444607
0.8912659473
0.8900493432
0.934015233
1.005135246
1.006149508
0.9719118236
1.0612492
1.035810382
1.034902264
1.037522087
1.03668452
1.062026476
1.100413975
1.101057093
1.082862841
1.128741374
1.116226329
1.115649466
1.117317895
1.1167825
1.129243194
0.2331089206
0.2330763676
0.3542879969
0.3545295184
0.293935292
0.4781005345
0.4157738693
0.4154176301
0.4164332208
0.4161131262
0.4785995701
0.6027577969
0.6035938581
0.5409343971
0.7248919107
0.6652281776
0.6642283138
0.6672048019
0.6662209402
0.7260270022
0.8334956204
0.8348010597
0.7816769414
0.9278746495
0.8836624479
0.8823442955
0.8862642789
0.8849697581
0.9291436797
1.000794606
1.001916921
0.9672770449
1.05784538
1.032000754
1.030981112
1.033963175
1.032995435
1.058736911
1.097619151
1.098349426
1.079828364
1.126564221
1.113803496
1.113151156
1.115053153
1.114437571
1.127132356
0.2330754024
0.2331049098
0.3531832295
0.3534741517
0.2932884123
0.4759686831
0.4142744
0.4138736532
0.4150476396
0.4146662814
0.4765173541
0.5993525637
0.600210074
0.5382040242
0.7203170397
0.6612076264
0.6601953953
0.6632243855
0.662217546
0.7214635714
0.8282320783
0.8295526342
0.7766810858
0.9226646693
0.8783454094
0.8769995149
0.881018208
0.8796852128
0.9239837415
0.9961128615
0.9973089052
0.9623186194
1.054050846
1.02779401
1.026693167
1.029939179
1.02887648
1.055030674
1.094512259
1.095315103
1.076429717
1.124141458
1.111095071
1.110378281
1.112482065
1.11179645
1.124767836
0.2328828232
0.2329414392
0.3519455875
0.3522642948
0.2924910524
0.4737265616
0.4126334831
0.412205088
0.4134675465
0.4130548026
0.474289869
0.595892414
0.5967622309
0.5353731602
0.715720555
0.6571514737
0.6561317178
0.6591822841
0.6581681591
0.7168714655
0.8229202969
0.8242530194
0.7716592101
0.9173006668
0.8729323093
0.8715654894
0.8756488343
0.8742933957
0.9186536348
0.9911874254
0.9924381547
0.9571465369
1.04995465
1.023294437
1.022131863
1.025575731
1.024442688
1.051003019
1.09114783
1.092010376
1.072738795
1.121507681
1.108144776
1.107373962
1.109647395
1.108902684
1.122183627
0.232601629
0.2326821295
0.3506065916
0.3509513686
0.2916313736
0.4714460819
0.4108829242
0.4104271346
0.4117707084
0.4113306158
0.4720234164
0.5923613603
0.5932532127
0.532459843
0.7110866125