/*--------------------------------*- C++ -*----------------------------------*\
| =========                 |                                                 |
| \\      /  F ield         | OpenFOAM: The Open Source CFD Toolbox           |
|  \\    /   O peration     | Version:  v2012                                 |
|   \\  /    A nd           | Website:  www.openfoam.com                      |
|    \\/     M anipulation  |                                                 |
\*---------------------------------------------------------------------------*/
FoamFile
{
    version     2.0;
    format      ascii;
    class       volScalarField;
    location    "1.06";
    object      omega;
}
// * * * * * * * * * * * * * * * * * * * * * * * * * * * * * * * * * * * * * //

dimensions      [0 0 -1 0 0 0 0];


internalField   nonuniform List<scalar> 
3019
(
797.02982
147.4414721
70.83386176
45.59035103
36.56948444
33.21740111
31.68537381
31.09264309
30.72220568
30.57704886
30.49771261
30.45565506
491.303901
136.9421776
68.75303658
44.98170566
36.4991527
33.26613665
31.68304828
31.05520916
30.65472527
30.49692857
30.40846333
30.36171696
350.7869851
125.9790062
65.05212064
43.97023869
36.26730783
33.25245474
31.65656465
31.00895779
30.58734916
30.41883541
30.3221286
30.27172179
289.8489174
111.2196328
60.27723935
42.6198962
35.96146015
33.17789544
31.60427259
30.95237541
30.51508978
30.33868735
30.23583872
30.18172914
209.2500413
93.26048283
55.08426601
41.25372177
35.6955642
33.07131164
31.532
30.88541844
30.43878845
30.25709289
30.14863927
30.09196722
156.1878906
78.58765977
51.13412296
40.36347601
35.46782883
32.94343914
31.44214212
30.80525122
30.35366168
30.16840742
30.05701292
29.99807558
129.4600217
71.03264096
49.41586336
39.9069403
35.23495891
32.80068251
31.34000884
30.71486056
30.2625409
30.07576843
29.96238471
29.9022034
121.2941991
69.16603047
48.58701396
39.50174917
35.00749952
32.65047997
31.22906864
30.61562379
30.16326345
29.97555267
29.86108763
29.80027141
116.2979472
67.8150034
47.93046095
39.14452308
34.79057869
32.49770531
31.11187092
30.50905783
30.05947796
29.87241568
29.75770756
29.69671322
112.2925957
66.72518741
47.43052441
38.83589648
34.58697309
32.3456603
30.99036073
30.39672481
29.9485799
29.7618073
29.64724765
29.5865593
109.0125622
65.82063047
47.05091561
38.57655672
34.39883059
32.19677276
30.86630254
30.28008438
29.83597789
29.6509128
29.53701668
29.47686872
106.2753755
65.0573428
46.75371287
38.36257816
34.22750762
32.05279871
30.74125613
30.16051481
29.71732691
29.53270283
29.41943114
29.36005896
103.9504518
64.40445513
46.51317903
38.186236
34.07291922
31.91483792
30.61644739
30.03913762
29.60021007
29.41768441
29.3054009
29.24684948
101.9386045
63.83847355
46.31388901
38.03954102
33.93373858
31.78329521
30.49272518
29.91694196
29.47696419
29.29432963
29.18268456
29.12503124
100.167349
63.34143631
46.14611752
37.9160707
33.80817439
31.65811502
30.37066124
29.79459554
29.35897951
29.1785713
29.06791846
29.01110952
98.58212509
62.89916727
46.00307915
37.81100082
33.69443184
31.53898749
30.25059705
29.6727431
29.23288288
29.05140802
28.94119102
28.8852257
97.14245282
62.50038324
45.87966953
37.72077648
33.59095739
31.42553987
30.13274963
29.55165576
29.11713284
28.93801524
28.82864251
28.77341328
95.81824025
62.13612843
45.77199738
37.64278177
33.49646428
31.31739339
30.01724757
29.43181701
28.9883096
28.80697619
28.69778422
28.64326595
94.58540544
61.79975768
45.67717918
37.57506363
33.40989754
31.21420076
29.90417979
29.31320657
28.87805841
28.69922952
28.59064167
28.53669139
93.42612453
61.48640319
45.59301575
37.51609051
33.33036851
31.11563056
29.79361395
29.19635837
28.74467766
28.56259642
28.45398479
28.40059292
92.32853239
61.19235387
45.51772815
37.46458478
33.25709078
31.0213579
29.68565756
29.081019
28.64452918
28.46469679
28.35635323
28.30334227
91.28430191
60.91458816
45.44977502
37.41941994
33.1893618
30.93111323
29.58059263
28.9682133
28.50174802
28.31865278
28.21017163
28.1575823
90.28807935
60.65065866
45.38769873
37.37951924
33.12650595
30.84457867
29.47918953
28.85799182
28.41951396
28.23650871
28.12789236
28.0754771
89.34241086
60.4002862
45.33037593
37.34393881
33.06804888
30.76163062
29.38354016
28.75382921
28.23675665
28.05001257
27.94085709
27.88873511
978.8991001
832.8562231
179.0293006
605.7824645
958.3694515
513.110355
173.6403131
176.9794543
458.4487816
596.6490793
340.9118525
696.3539391
715.750677
628.5281858
300.7241105
328.8111358
1386.633939
843.9996749
1530.085022
1155.317167
598.0089999
802.2607112
367.1863323
158.4565491
169.8848272
521.4496579
574.8940737
1083.272894
274.8915723
291.6596166
611.434834
553.5510116
6188.864904
2338.215792
1316.168745
643.7450838
4826.821543
3545.571993
1162.084954
4971.930795
6067.449054
3502.428234
4741.087055
6445.144862
2302.18702
3155.649468
1579.89422
2056.889887
5791.351749
6402.291691
2060.500176
6133.291747
5355.609414
162.2755442
83.81178177
1106.666826
3220.885509
2349.093267
4586.441578
2967.967566
1501.249207
855.5731062
6220.971931
6552.62689
6690.819065
5570.878741
6387.393426
1211.697437
1445.049993
5926.406333
5437.292644
5998.884165
5559.204155
6318.31633
6269.752408
6133.655677
3922.548858
5446.342766
4992.178958
6086.361448
6290.155013
4326.11177
4615.577103
5048.617407
6348.419599
5224.897094
3857.635306
4169.022326
5958.959143
4610.226009
4854.354751
3765.081113
4201.520031
6134.180435
71.43760464
49.72576382
45.59949381
38.03482999
36.53778139
33.75134394
707.0236972
466.7377746
503.9173266
139.9502031
80.54870725
83.07572668
69.13124588
49.06356533
49.66789456
45.18452739
37.98092112
38.05541555
36.53661658
33.81822616
33.77924972
446.1244806
244.8638536
268.7029308
128.8744973
76.30392399
79.84681913
66.03722434
47.79268607
48.76902184
44.24719852
37.65390675
37.9100229
36.33967309
33.81102566
33.82222545
478.0201893
551.5361427
308.989224
141.5323314
154.8962143
115.4047488
70.24905513
74.98700111
61.58145639
46.03554332
47.40822412
42.97868937
37.21938019
37.55876761
36.0406364
33.73099364
33.79378122
319.7543894
441.1697836
227.7303177
117.9723305
136.0705622
97.69841914
63.02190156
68.46990576
56.32361572
44.05525388
45.53748056
41.57088529
36.76721327
37.09813202
35.75147934
33.61197584
33.70309984
205.7380871
283.8965618
166.5529095
95.8256141
111.9105959
81.65498687
56.88240979
61.29761255
51.93730901
42.50309135
43.60025198
40.51480062
36.46750684
36.67940268
35.52581664
33.47190965
33.578844
157.6090532
188.8907519
134.032369
82.48471965
91.50855379
72.23077487
53.50973665
55.73854445
49.65414353
41.80224919
42.25335589
40.01592213
36.19464781
36.39881636
35.29296619
33.31540641
33.43375526
143.5333499
151.8648376
122.7419881
78.58525157
80.70068958
69.56016414
52.41521843
53.1936458
48.77782291
41.30587311
41.6716305
39.59850756
35.93217278
36.12774759
35.06351458
33.15195696
33.2748507
137.1031885
141.7975384
117.4411635
76.66241055
78.06114696
68.12404574
51.59189957
52.18722009
48.07891434
40.87599455
41.19229112
39.2293406
35.68549314
35.86889349
34.84364963
32.98722518
33.11071963
131.8502586
135.6917191
113.2172964
75.10571271
76.24418384
66.97808553
50.97696585
51.42082805
47.54258036
40.51173279
40.77871483
38.90840043
35.45719845
35.62660877
34.6364998
32.82459792
32.9462736
127.5012514
130.6877353
109.7757041
73.81140467
74.76040776
66.03211658
50.51016144
50.84873656
47.13679127
40.21291164
40.43102503
38.63689267
35.24940799
35.40324982
34.44431967
32.66652273
32.78456768
123.8447962
126.529353
106.9165416
72.71812316
73.5212029
65.23675131
50.14072758
50.4101802
46.8219114
39.97260955
40.14777852
38.41221229
35.06347626
35.20085825
34.2687381
32.51497028
32.62796313
120.7237031
123.0199967
104.4990046
71.78240342
72.47095229
64.55872963
49.83822807
50.05968744
46.56897188
39.77898664
39.92031257
38.22725179
34.89892513
35.02039675
34.11005625
32.37118828
32.47826927
118.0101442
120.0117642
102.4165778
70.9706433
71.56903376
63.97288107
49.58506392
49.77084629
46.36044189
39.62076608
39.73649813
38.07381595
34.75364462
34.86090067
33.96718371
32.23557129
32.33652092
115.6069914
117.3836504
100.5908881
70.25727821
70.78401962
63.46007167
49.36998302
49.52810359
46.18551369
39.48948502
39.58569744
37.94504953
34.62499741
34.72002848
33.83838995
32.107919
32.20293027
113.4435999
115.0462794
98.96348277
69.6222639
70.09194045
63.00527475
49.18490406
49.32119389
46.03682679
39.37912966
39.46013455
37.83575897
34.51046671
34.59513387
33.72185151
31.98771883
32.07719476
111.4692479
112.9341207
97.49054181
69.04966996
69.47387916
62.59654376
49.02359467
49.14258456
45.9089172
39.28538155
39.35428195
37.74209857
34.40792053
34.48378027
33.61593869
31.87437706
31.95876213
109.6482669
111.0011749
96.13987088
68.52684403
68.91480974
62.22436191
48.88117986
48.98641078
45.79761465
39.20511468
39.26416253
37.66125046
34.31565957
34.38395274
33.51930676
31.76733763
31.847049
107.9500078
109.2137986
94.88610829
68.04402743
68.40279687
61.88153386
48.75400831
48.84810796
45.69981045
39.13603114
39.18688284
37.59111976
34.23232473
34.29404029
33.43084683
31.66609239
31.74150342
106.3486844
107.5419635
93.709573
67.59403863
67.92877662
61.56280821
48.6393663
48.72429695
45.61316389
39.07637209
39.12030604
37.53008863
34.15680999
34.2127574
33.34963621
31.57018372
31.64163304
104.8285354
105.9626617
92.59699852
67.17141129
67.48610462
61.26422322
48.53512374
48.61243881
45.53580742
39.02470013
39.0627702
37.4768256
34.08816362
34.1390447
33.27486364
31.47917882
31.54698962
103.3784872
104.4623981
91.53853091
66.77170249
67.06964371
60.98257534
48.4395049
48.51051374
45.46615759
38.9797723
39.0128976
37.43017772
34.02554955
34.07198254
33.20581212
31.39270847
31.45715202
101.9879675
103.0324467
90.52508138
66.39078244
66.67526848
60.71487278
48.35082925
48.41680243
45.4027087
38.94040944
38.96947321
37.38905554
33.96817446
34.01075281
33.14179549
31.31038435
31.37175364
100.6430647
101.6674291
89.54505812
66.02326584
66.29980089
60.45708435
48.26705739
48.32971419
45.34370714
38.9053445
38.93133116
37.35230366
33.91519854
33.95457407
33.08207774
31.23175641
31.29040746
99.25401543
100.3710836
88.53099505
65.64151998
65.94341869
60.18918785
48.18077083
48.24822266
45.28362094
38.87121633
38.89743139
37.31663199
33.86277465
33.90285137
33.02252521
31.15181757
31.21294882
1023.316373
1225.727817
1164.993713
705.8699745
732.733186
880.2232416
186.0654538
305.6452278
277.7902027
635.2375748
1148.702571
2093.263412
1531.366044
940.105598
404.1119868
419.6695829
560.5942327
169.1577721
244.6830955
234.3569467
269.3998913
250.726559
170.5476563
533.290327
601.6841477
353.5569228
488.0307002
451.5966059
505.1836918
337.8658344
1819.536127
1287.70121
822.1352631
789.9804472
675.1453065
741.2597751
909.1256164
861.3341171
418.8261958
457.3437679
682.6041888
308.2096578
377.0474598
366.0998667
434.538169
393.2220557
318.8508114
2100.775113
1854.236927
1301.588551
3329.202306
3562.709838
5004.391926
880.954892
1413.729705
1198.862518
1663.090497
2713.141467
2393.377397
836.851116
882.7855254
1387.143594
619.4246229
731.8828866
703.6688614
765.1549353
645.3470485
1024.548828
950.5975352
770.0525257
2805.183703
3033.404225
1167.680266
1168.006761
257.1233901
266.600125
425.586391
161.9797901
201.2697279
195.9962368
228.0082531
207.1668103
165.811224
536.5125653
627.6065375
607.0191707
675.7199537
651.6272184
556.9422742
933.0227115
765.1305362
799.8683525
278.4007781
335.7093811
329.457671
353.5513753
345.3252259
286.4716791
577.2286539
426.2144468
445.3293994
574.358543
810.595024
776.6762381
2648.488467
4201.613777
3748.807735
1020.30872
1065.39229
917.7108587
948.2447233
1393.505554
662.4725286
758.5007024
740.5830458
4386.035166
2968.34993
3332.290707
2337.062786
2630.380928
3907.474974
1215.660787
1657.173199
1510.634906
2541.623764
3650.424747
3329.585376
4482.447861
4065.421301
2835.945506
1702.594164
2536.558647
2343.333125
3016.915302
2772.891412
1891.347271
3350.825885
3038.985832
1852.406552
121.0633015
122.3617993
164.4265627
84.32660016
100.194441
99.36896071
1400.222564
1306.891797
1058.501262
2943.670717
1887.326213
2088.353763
1543.481657
1681.251634
2625.477135
1143.508062
1199.106334
1647.737358
898.6402793
992.6989271
987.6929683
1048.583467
914.8232852
2367.250294
2545.323417
1279.437883
1766.038806
1627.419465
2125.189206
1936.580145
1374.908791
33.19646531
32.1784987
31.67577889
31.33921819
31.11336836
30.95244616
762.4957499
657.4396387
679.6072015
144.9967038
117.5629284
118.9236374
70.40910405
61.50181525
61.75138672
45.40474787
42.33497759
42.42861066
36.57671985
35.41799823
35.40485385
33.26096109
32.22221429
32.20325389
31.68582827
31.32603549
31.33350242
31.07919075
30.90294366
30.92933253
475.9640402
377.3215152
390.1382718
134.1490519
110.3654207
112.277431
67.7090455
59.58299483
60.25421492
44.81823104
41.8577155
42.03075595
36.45073305
35.3625162
35.3907455
33.262407
32.21720986
32.2219155
31.67454207
31.29681834
31.3126175
31.0376576
30.84985954
30.87782899
338.4523173
242.4086664
248.9861634
122.7995499
101.6549502
104.1348993
63.98388417
56.78325286
57.5799894
43.66196448
41.07096446
41.29008149
36.19645603
35.20192329
35.24754295
33.20059751
32.17892814
32.20224799
31.63562878
31.25167185
31.27531625
30.98601514
30.79118162
30.82167815
269.0918838
202.7073593
214.379792
106.8018972
89.5863783
92.85915798
58.94767305
53.11125661
54.08082058
42.26112904
40.07611349
40.33028031
35.8841761
35.00554357
35.05408656
33.10047043
32.105353
32.14521079
31.57107761
31.19190915
31.22164665
30.9245988
30.72524336
30.75929136
192.9165252
156.7054431
167.3963082
89.04744413
76.68536929
79.72945319
53.92670968
49.48105007
50.31315633
40.96728417
39.19183385
39.38327749
35.63986897
34.82472076
34.87116002
32.97775919
32.01344701
32.06181298
31.48886979
31.11592623
31.15510519
30.84944762
30.6498863
30.68887118
147.3905967
123.1180017
129.9730931
75.98865768
67.23643064
69.12978465
50.48290957
47.05671176
47.50780632
40.24320665
38.70837212
38.80606709
35.40955182
34.62824893
34.67848789
32.8376832
31.90477223
31.96084126
31.39238886
31.02730041
31.07262366
30.76345739
30.5647592
30.60824886
126.0698109
106.9086909
109.2621282
70.4415963
63.28729954
63.73234828
49.19209136
46.14904713
46.33329427
39.80106238
38.33740532
38.42702905
35.17731524
34.42506249
34.47590329
32.68865345
31.78495054
31.84595153
31.28547167
30.92822357
30.97860773
30.66795453
30.47111999
30.51876328
119.9329849
102.6584893
103.6190508
68.79722245
61.90251259
62.20759895
48.40698288
45.49239929
45.64480678
39.4079648
38.00036826
38.08139422
34.95214756
34.22413547
34.27386004
32.53606603
31.65832116
31.72227646
31.17112722
30.82087067
30.87521266
30.56444133
30.36972373
30.42118413
115.2159204
99.27957023
100.0613143
67.52187875
60.88238095
61.11217817
47.7919169
44.96000794
45.08162154
39.06272781
37.69811962
37.7703638
34.73833159
34.03006981
34.0777867
32.38354351
31.52792016
31.59343999
31.05154472
30.70727624
30.76456212
30.45445995
30.26193736
30.31646538
111.4129696
96.50434969
97.14985347
66.48374832
60.08577365
60.26906369
47.32598253
44.5450468
44.63872412
38.76649754
37.43215681
37.49514612
34.53841258
33.84557398
33.89068261
32.23365276
31.39599874
31.46203108
30.92854897
30.58930012
30.64861026
30.339541
30.14883206
30.20596056
108.2832448
94.19350675
94.73384228
65.61794711
59.43540926
59.58685468
46.97012485
44.22614779
44.29838605
38.5190759
37.20356199
37.25725984
34.35439894
33.67271346
33.71474784
32.08830085
31.26433663
31.33003815
30.80381889
30.46850896
30.52908155
30.2210846
30.0320186
30.09085055
105.6599993
92.24302542
92.70153746
64.88483308
58.89103147
59.01870055
46.68901235
43.97656261
44.03372612
38.31529626
37.0101664
37.05546245
34.18732796
33.51281822
33.55154686
31.94876134
31.13433053
31.19905799
30.67876144
30.34621349
30.4074165
30.1003442
29.91228583
29.97255109
103.4215086
90.57251877
90.96756166
64.25562764
58.42774906
58.53701546
46.45994871
43.77573461
43.82219288
38.14706688
36.84694326
36.88523407
34.03674716
33.36605778
33.40154966
31.8155947
31.00690469
31.07025665
30.55440897
30.22343784
30.28478843
29.97835236
29.7911685
29.85196597
101.4757594
89.11993467
89.46540013
63.70839867
58.02796383
58.12273288
46.26930365
43.61045748
43.64896345
38.00671211
36.70831387
36.74094272
33.90114405
33.23163682
33.26414732
31.68884033
30.88257635
30.94433276
30.43146025
30.10096089
30.16209012
29.85593457
29.66879948
29.73025616
99.75554015
87.83804018
88.14466997
63.22625654
57.67841115
57.76169767
46.10827338
43.47224462
43.50461295
37.88823977
36.58951467
36.61757767
33.77869729
33.10835816
33.13820394
31.56823219
30.76158233
30.82165731
30.31035966
29.97933451
30.0399918
29.73372022
29.5467373
29.60785087
98.21001924
86.68996632
86.96607922
62.79582591
57.36865499
57.44284459
45.97057109
43.35522192
43.38274721
37.78717334
36.48678434
36.51112926
33.66765678
32.99495972
33.02244676
31.45339562
30.64399279
30.70236481
30.19137715
29.85895847
29.91896091
29.61216889
29.42425844
29.48571002
96.80170256
85.6474576
85.89946021
62.40641798
57.0903548
57.15736562
45.8514166
43.255072
43.27871906
37.70022111
36.3972749
36.41854018
33.56653807
32.89032037
32.91571453
31.34395634
30.52979726
30.58648265
30.07467532
29.74009314
29.79932629
29.49162878
29.30334692
29.36375332
95.50235552
84.68856996
84.92147586
62.04966974
56.83702094
56.89829847
45.74719489
43.16859512
43.18907447
37.6249578
36.31884327
36.33751042
33.47411632
32.79348049
32.81700734
31.23955769
30.41892496
30.47397427
29.96033787
29.62293291
29.68132942
29.37231752
29.1820984
29.24296344
94.28922262
83.79616959
84.013818
61.71946267
56.60394339
56.66051939
45.65522986
43.09341918
43.11126237
37.55955971
36.24985154
36.26629162
33.38939013
32.70363657
32.72548233
31.13986364
30.31130229
30.36477815
29.84840109
29.50757272
29.56513813
29.25442615
29.06362114
29.12273027
93.14606753
82.95769985
83.16286856
61.41124623
56.3876101
56.4402796
45.57344093
43.02768105
43.04331871
37.50256639
36.1889711
36.20349504
33.31149445
32.62007546
32.64041281
31.04454029
30.20682212
30.25885813
29.73881089
29.39405031
29.45091746
29.13796148
28.94406112
29.00439284
92.06164595
82.16425508
82.35914048
61.12150532
56.18529056
56.23469098
45.50012677
42.96983804
42.98363532
37.45274878
36.13507579
36.14795112
33.23966827
32.54216177
32.5611424
30.95331841
30.10523995
30.15621464
29.63138626
29.28218506
29.33881585
29.0228816
28.82870326
28.88667197
91.02689828
81.40863471
81.59576625
60.84721452
55.99462773
56.04138451
45.43376863
42.91850123
42.93080257
37.40899987
36.08715179
36.09862755
33.17321976
32.46931628
32.48708445
30.86588021
30.00598883
30.05693962
29.52561142
29.17154542
29.22921165
28.90863191
28.70987359
28.77194795
90.03200155
80.68318844
80.86808376
60.5851858
55.81314304
55.85831836
45.37281712
42.87226491
42.88347077
37.37022651
36.0442031
36.05454065
33.11146288
32.40095634
32.41766786
30.78183703
29.90750404
29.96167673
29.42009882
29.06069588
29.12289322
28.79391606
28.59603862
28.65847763
89.06069987
79.97415631
80.1776501
60.3286497
55.63569774
55.68491132
45.31474256
42.82902755
42.84049287
37.33493585
36.004838
36.01485658
33.05323282
32.33598104
32.3525345
30.69592058
29.80274522
29.87300297
29.30693818
28.94118225
29.0221363
28.66943668
28.4628942
28.55238624
181.0817056
204.6926645
201.8024579
621.2340233
710.9448805
697.0431198
1092.574031
1075.239707
904.0926946
198.4383351
196.0611124
174.5807078
402.7002725
357.8554263
553.705385
566.2702936
643.1657077
972.82911
1015.247453
1214.488572
1698.045081
1809.782214
1067.049505
902.0051303
952.63499
600.022972
530.2409152
541.7593532
1459.282546
1560.388248
62.14158617
62.20687304
71.61784291
49.73034
55.13314633
55.11387422
42.42201616
42.42561546
45.6035418
38.02519048
39.95012078
39.95503142
35.37162744
35.35612512
36.52719874
33.72569345
34.43992411
34.46142729
617.1254026
635.3447773
732.3508698
478.702973
550.3157353
536.3297552
586.1576851
568.5786451
490.9051303
114.4274694
115.425438
141.676089
81.59959244
96.15349261
95.16281523
98.26580732
97.36741783
82.35614928
60.63195307
61.12562924
69.89849646
49.3313059
54.42429209
54.12488416
54.93404326
54.69930801
49.42029705
42.1737406
42.25241371
45.35193017
37.99348294
39.85515917
39.81724779
39.96534117
39.93967397
38.05140276
35.40260305
35.40728888
36.54241257
33.81401181
34.51818721
34.51422438
34.49154718
34.51138226
33.79851409
355.6899081
366.8752155
455.7180941
318.1966182
312.556034
262.224406
106.3929024
108.4277122
131.5694224
77.51332267
90.89512898
89.33605185
93.78819028
92.34626482
78.60560516
58.30276829
58.94797868
66.91820498
48.13289763
52.83977677
52.37065606
53.71126943
53.40508193
48.60483959
41.4872517
41.72928317
44.52447603
37.79485867
39.52714909
39.33692571
39.71317101
39.59404285
37.8284977
35.30260973
35.32590907
36.41411769
33.81547954
34.48341871
34.47304001
34.51208195
34.49852215
33.81899367
507.9312536
529.0725422
225.1586307
234.5880997
325.4165701
146.505421
181.2065402
174.8313049
191.4785795
186.7384822
150.9528986
95.99646143
98.93991939
119.2795983
71.95095891
83.64232266
81.40580502
87.63196537
85.72517534
73.53978632
55.02687592
55.93048056
62.82478579
46.52035457
50.62395433
49.96076466
51.84053983
51.25527016
46.98133309
40.5845857
40.83394687
43.32898076
37.33909878
38.87923636
38.70476459
39.19895809
39.04568647
37.45346743
35.10280745
35.15368556
36.12038996
33.75429905
34.38405605
34.35164184
34.44116176
34.41397138
33.77676487
359.4077644
400.6391
178.8031056
190.6880101
247.9302266
124.1331743
151.8378374
143.6281536
167.6818272
159.9395876
130.2236825
82.94211285
86.25547583
102.2555891
64.81767333
74.13250282
71.6899193
79.04478914
76.60323749
66.64712989
51.20744193
52.14677046
57.62052719
44.53893689
47.87841551
47.20096821
49.27669431
48.57718999
45.03825714
39.59922221
39.83212356
41.91162283
36.86731468
38.18195073
38.02770278
38.52672333
38.35137476
36.97975229
34.91615212
34.96071663
35.81465115
33.64364906
34.24878814
34.21096302
34.31895522
34.2848025
33.67505662
227.0130144
252.8801295
137.9203025
146.8388908
178.711614
100.7088685
120.5001899
113.8975125
135.5323457
127.7723011
106.1126097
71.34258819
73.87828282
85.15802075
58.20037635
65.05273423
63.20989448
69.33055009
67.10353159
59.68177812
48.06492652
48.72793589
52.87134229
42.81551765
45.43466872
44.97477777
46.55917417
45.96671939
43.18405829
38.90738783
39.03202936
40.7187022
36.53609656
37.66624831
37.58217987
37.88482515
37.76470288
36.60489499
34.72814437
34.77697504
35.58326257
33.50872744
34.09235948
34.05019344
34.17289531
34.13333923
33.54465921
165.5503136
175.7083453
112.744659
117.3464751
140.0503212
84.80101527
98.82483008
95.57977764
108.02309
103.0203244
87.85444777
64.52214512
65.7134177
73.85178254
54.04119569
59.18116101
58.34821279
61.6086695
60.25105556
54.79300821
46.5263353
46.73846865
49.97151264
41.93734259
44.10914988
43.94401013
44.59347182
44.30299225
42.07869585
38.51877421
38.6125739
40.12801034
36.26221249
37.33807698
37.25883768
37.49990281
37.41847927
36.33032549
34.52680074
34.57763196
35.35121142
33.35539246
33.91863617
33.87373345
34.00702884
33.96312594
33.39502969
145.3704656
147.5506924
104.6334669
105.7072249
124.2876924
79.14500267
90.78401971
90.03538471
93.09343254
91.60246937
79.75689827
62.53811927
62.89697131
69.98308294
52.6586592
57.20902545
56.91510006
57.86850811
57.52511121
52.91783703
45.8049912
45.97302
48.97948326
41.42356415
43.48852943
43.34843331
43.78612639
43.6343759
41.54545467
38.16457885
38.24991622
39.69826833
35.99644356
37.02911869
36.95541522
37.18087494
37.10428738
36.06165947
34.32396019
34.37439007
35.12014371
33.19307537
33.73786329
33.69250083
33.8285625
33.78323358
33.23411726
138.5880013
140.1509035
100.8830319
101.7476739
118.6508248
77.10299843
88.01446857
87.40615296
89.32643548
88.65374357
77.56826798
61.35734361
61.61998261
68.4507478
51.77614035
56.1562924
55.93977973
56.64247959
56.3900101
51.97436591
45.21083057
45.34774174
48.23767034
40.97736271
42.96186272
42.84416924
43.21399211
43.08514313
41.08280027
37.84483397
37.92150848
39.3171621
35.74552197
36.74344545
36.67591156
36.88321933
36.81255661
35.80666807
34.126055
34.17485629
34.8975198
33.02831802
33.5573304
33.51272321
33.64726772
33.6021766
33.06950301
133.0693474
134.3482942
97.82616302
98.53533773
114.1904228
75.46729788
85.74674396
85.24316652
86.82666794
86.27403766
75.84629737
60.46219996
60.66622415
67.24330888
51.1143826
55.37750095
55.21418661
55.73886703
55.5519283
51.26198276
44.73885889
44.84584273
47.66282766
40.59656938
42.52479443
42.42947896
42.73209591
42.62563852
40.68556139
37.56048372
37.62815063
38.98401625
35.5124278
36.48307653
36.42215969
36.60998756
36.54569462
35.56890757
33.93648655
33.98296344
34.6869647
32.86492229
33.3809726
33.33783387
33.468456
33.42450933
32.90548638
128.5164748
129.5774091
95.29805652
95.88768059
110.5749034
74.11416111
83.86081123
83.43868022
84.76186863
84.30147936
74.43017934
59.7453512
59.91144839
66.25294573
50.61613443
54.77957728
54.65013563
55.06077484
54.9162011
50.72873796
44.37532447
44.45739576
47.22828375
40.28172997
42.17521232
42.10026884
42.33957276
42.25489232
40.35439041
37.31323172
37.37152155
38.70018133
35.29933281
36.24993685
36.19610093
36.36298119
36.30556724
35.35062065
33.75758093
33.80119991
34.49085441
32.70550036
33.21132217
33.17019691
33.29517113
33.25297967
32.74485275
124.7033282
125.5973092
93.17863319
93.67551345
107.5851053
72.97517785
82.27285084
81.91469903
83.03397574
82.64566838
73.24265252
59.15173859
59.29050537
65.42345463
50.22590881
54.2988187
54.19246395
54.52722152
54.41027329
50.31558755
44.0941694
44.15819461
46.89392268
40.02782029
41.90094249
41.84202201
42.02977719
41.96343573
40.08614725
37.102736
37.15207337
38.46433202
35.10789928
36.04530333
35.99852873
36.14406218
36.09380648
35.15369264
33.59110377
33.63149391
34.31103194
32.55216594
33.0503822
33.01167885
33.12966093
33.08971054
32.58983444
121.4613372
122.2259159
91.37704547
91.80187801
105.0683038
72.00357286
80.91937563
80.61151202
81.57026144
81.23871352
72.23289558
58.65047774
58.76839278
64.71873602
49.9086894
53.90036259
53.81103478
54.09081185
53.99353413
49.98242293
43.87102096
43.92240732
46.62751101
39.82367813
41.68399172
41.63678319
41.78638976
41.73378957
39.87072833
36.92514263
36.96675654
38.2702304
34.93815672
35.86806586
35.8276769
35.95343335
35.90996474
34.97863493
33.43783005
33.47491651
34.14818476
32.40637309
32.8994637
32.86335352
32.97362755
32.93621667
32.44206468
118.6563859
119.3228947
89.82217684
90.19100488
102.9105087
71.16351099
79.75000417
79.48167709
80.31439002
80.02738145
71.36281335
58.22081827
58.32243128
64.11185068
49.6444243
53.5637283
53.48754053
53.72529076
53.64291306
49.70629055
43.68926033
43.73147639
46.40908632
39.65751774
41.50882548
41.47020664
41.59196517
41.54936285
39.69605108
36.77487401
36.81018482
38.10962884
34.78830463
35.71494911
35.6799795
35.78873574
35.75117995
34.82404106
33.2973731
33.33134025
34.00151305
32.26871855
32.75888705
32.72531255
32.82789651
32.79307372
32.30236286
116.1830127
116.7746758
88.46016425
88.785068
101.0267022
70.4275959
78.72600249
78.48911512
79.22188634
78.97011266
70.6030477
57.84761514
57.93631985
63.58231962
49.42066987
53.27523126
53.20940414
53.41416729
53.34343759
49.47333203
43.53837958
43.57363142
46.22654393
39.52014449
41.36463849
41.33253174
41.43337922
41.39822199
39.5521848
36.64669357
36.67691926
37.97524009
34.6557436
35.5820972
35.55163162
35.64621987
35.6136095
34.68740736
33.16868522
33.19982344
33.86937084
32.13911252
32.62821639
32.59700692
32.69235619
32.65999257
32.17077782
113.9652161
114.4989826
87.24921271
87.53971758
99.35435702
69.77462437
77.81750153
77.60556623
78.25897082
78.03518539
69.93107439
57.51912457
57.59760398
63.11424117
49.22873177
53.02475981
52.9671359
53.14579321
53.0842737
49.27412536
43.41138554
43.44119539
46.07186621
39.40501752
41.24417843
41.21714609
41.30180403
41.27237443
39.4319968
36.53633954
36.56245226
37.86148747
34.53790031
35.46603267
35.43929154
35.52216216
35.49364256
34.5661116
33.05049956
33.07913011
33.74993134
32.01710382
32.50666662
32.47760019
32.56635686
32.53624597
32.0469242
111.9473802
112.4352539
86.15700004
86.42040077
97.84621364
69.18773241
77.0008318
76.8087944
77.39897257
77.19746265
69.32904274
57.22602275
57.29642235
62.69497726
49.06198805
52.80439305
52.75325129
52.91125509
52.85703028
49.1016217
43.30326154
43.3287471
45.93920001
39.30745072
41.14235558
41.11936237
41.19119875
41.16628412
39.33040114
36.44052544
36.46326262
37.76421881
34.43253311
35.36389231
35.3402626
35.41337473
35.38825263
34.45781094
32.94160918
32.96801958
33.64149903
31.90210118
32.39336094
32.36622726
32.44903422
32.42095813
31.93022534
110.0910328
110.541536
85.15872913
85.40065251
96.46755351
68.65348997
76.25739302
76.08119545
76.62101887
76.43725724
68.78273409
56.96089834
57.02489704
62.31442336
48.9152376
52.60782419
52.5618249
52.70348578
52.65502183
48.95029125
43.21028929
43.23227778
45.82407534
39.2240564
41.0554833
41.03577571
41.09724443
41.07596048
39.24372671
36.35678722
36.37670067
37.68038828
34.33784049
35.27345293
35.25246351
35.31732974
35.29506697
34.36059789
32.84097992
32.86541369
33.54265982
31.79353606
32.28750111
32.26211535
32.33954747
32.31330765
31.82010322
108.3650014
108.7856521
84.23494507
84.45983549
95.19172019
68.1614375
75.57231341
75.40880243
75.9083967
75.73877301
68.28095641
56.71819136
56.77701211
61.96481195
48.78453925
52.43025295
52.38841707
52.5169265
52.47307049
48.81588523
43.1297212
43.14882447
45.72314011
39.15235848
40.9808658
40.96388685
41.01678847
40.9984892
39.16929837
36.2832569
36.30076798
37.60774475
34.25238563
35.19299325
35.17427633
35.23207042
35.21225058
34.27295075
32.74773095
32.77039364
33.45224915
31.69088521
32.18838148
32.1645835
32.23714051
32.21256287
31.71601942
106.7415745
107.1384135
83.37078676
83.58194571
93.99744153
67.70381028
74.93427093
74.78109884
75.24804122
75.08985347
67.81532476
56.49386533
56.54841227
61.64047701
48.66698436
52.2681801
52.2297769
52.34747975
52.30740061