/*--------------------------------*- C++ -*----------------------------------*\
| =========                 |                                                 |
| \\      /  F ield         | OpenFOAM: The Open Source CFD Toolbox           |
|  \\    /   O peration     | Version:  v2012                                 |
|   \\  /    A nd           | Website:  www.openfoam.com                      |
|    \\/     M anipulation  |                                                 |
\*---------------------------------------------------------------------------*/
FoamFile
{
    version     2.0;
    format      ascii;
    class       volScalarField;
    location    "1.76";
    object      omega;
}
// * * * * * * * * * * * * * * * * * * * * * * * * * * * * * * * * * * * * * //

dimensions      [0 0 -1 0 0 0 0];


internalField   nonuniform List<scalar> 
3259
(
31.9859234
31.98804482
31.98579918
31.98145084
31.97655972
31.9720996
31.97006338
31.96808856
31.93474462
31.93343497
31.93231841
31.93129925
31.9420531
31.95250158
31.94573619
31.92608478
31.90247984
31.88263564
31.85366872
31.84375002
31.80612253
31.80255415
31.79929779
31.7962347
31.9283623
31.94898151
31.93527628
31.8923574
31.84107529
31.79594041
31.74732281
31.7257067
31.68206309
31.67510545
31.66936286
31.66444843
32.03831855
32.06104748
32.01004489
31.92505626
31.82858519
31.7408163
31.66045526
31.61915672
31.56308585
31.55142655
31.54266703
31.53544747
32.54059547
32.51743787
32.32133285
32.10182527
31.90732229
31.73850811
31.60412112
31.5286486
31.45167162
31.43191514
31.41874534
31.40891175
34.53069218
34.14726855
33.2373267
32.58391993
32.15432067
31.82082014
31.58383303
31.45797604
31.34874577
31.3154961
31.29649159
31.28362031
44.9390292
41.87847782
35.71844031
33.6457425
32.66217598
32.03151382
31.60452701
31.40928957
31.25401005
31.20283144
31.17564316
31.15901634
67.50911681
41.52364621
35.5715288
33.50752406
32.39578827
31.68261767
31.37926529
31.16781551
31.09333603
31.05568275
31.0346307
124.6563309
50.24047182
38.28084448
34.64654214
32.88778138
31.80904172
31.36634053
31.08971123
30.98889775
30.93839538
30.91211707
156.165667
58.01459768
41.15062558
35.93398945
33.44710008
31.96340126
31.36819207
31.01948743
30.89009608
30.8254876
30.79343566
157.1867352
62.74692834
43.66487101
37.15911634
33.99415255
32.11721761
31.37667901
30.95619456
30.79956533
30.72018223
30.68171842
146.2176904
64.86743782
45.51661006
38.14775226
34.44209246
32.24622498
31.38726861
30.8992273
30.71615757
30.62296492
30.5781458
145.7119086
75.54806889
186.6646928
151.2406573
185.7258745
188.3345374
168.9390074
183.7259419
166.4875399
44.24298552
69.40589357
41.7292615
405.4354047
147.6287055
118.1976559
54.29824322
44.82886517
1342.247874
941.9722736
154.3566677
65.79706053
57.53104994
794.0954602
1070.015891
158.1336701
72.29688151
67.9640901
464.827564
605.6317857
1747.42705
305.9140372
355.4981623
915.600761
426.0821725
114.7477288
347.6287364
650.0872283
1080.973785
1344.761783
171.4072327
952.2002052
843.2583012
671.9619274
948.5427218
169.0075789
631.387349
777.8642171
189.145254
601.2690874
480.6466203
835.2871119
621.3454132
189.6714437
365.8257789
448.817487
2590.004079
3004.295735
300.7856495
1541.896386
2270.282952
395.5442746
4934.960595
147.9908721
74.49230173
73.22111242
5309.033123
668.3643324
740.7956618
124.9774448
309.0442098
106.2047054
756.883988
958.66439
175.2949707
371.8360166
317.3319321
465.6911853
381.8884679
177.7031204
68.4723305
129.8722086
66.1278447
69.97183456
3049.496603
286.5078794
2171.540619
304.368482
1604.599592
258.7126926
1092.010105
1077.133068
906.6280182
925.8393688
1791.443738
4099.604399
518.0683104
2139.941294
1191.04606
4609.506746
2534.49081
538.6205996
563.1132599
637.7218027
4700.356068
646.1171571
613.5645208
1137.244147
1147.59144
887.4776643
315.041336
306.5612563
317.7094811
316.5088886
881.9053303
800.411386
279.4586686
256.4500063
302.4780126
286.2698451
816.1525592
667.5281083
4786.081077
679.4058533
1126.874173
834.3384504
408.3766937
1013.49609
1663.06135
5544.692164
540.877718
2742.597623
1688.110605
2293.339822
935.8346778
2668.856
3851.009764
127.4784729
321.3629715
116.0776104
134.9188261
1261.337269
2979.014596
3126.855436
1009.590122
843.6268712
2311.75279
1708.4866
3852.683506
3820.413943
1025.239983
793.9941232
2679.667414
2964.945712
458.8875467
207.4468976
175.3074762
247.1598283
218.4396972
478.9593035
1107.43373
3780.978101
3856.392131
1284.29414
1618.562571
1493.625766
735.9142249
546.2866968
288.675843
298.6799484
753.6759802
312.7386163
317.1626976
302.1734465
310.2705014
740.9166669
396.0056367
805.1046806
653.0332876
4580.228771
1360.781838
1638.519452
1223.783337
4885.157701
4959.263754
1158.781967
1504.438946
5521.931049
1097.873364
447.059798
1098.260079
3778.075227
2536.879706
850.5032037
4519.61313
5298.62619
3108.737919
922.1035792
577.3298626
1484.839799
1012.66124
522.6599597
334.9398316
910.0833778
3293.739869
4169.856225
1200.464529
1025.898332
3163.579705
3300.830872
2525.569519
2398.956312
862.655645
4201.533115
4116.362543
3006.118648
4092.463639
4077.019349
999.5912986
3963.78333
2596.59648
2671.145439
3019.788251
1617.114503
769.5368287
829.2640726
3403.757187
962.8374505
1086.14143
853.6332478
927.2743188
3182.879251
3314.013377
909.343162
1069.446608
1931.418614
2019.119163
753.0443291
2837.406133
2856.977656
3609.739132
1970.403056
1646.6839
2760.251841
1949.740196
521.135583
1394.210862
1845.924944
3651.442296
3731.566342
1115.45542
1235.234293
3798.971959
3626.573128
1410.501819
1642.834082
1129.875156
1314.191672
5028.478493
2577.485984
2808.873096
1752.069766
2473.101671
5371.537857
1199.093461
5216.612423
4462.118796
5195.48555
1281.962593
5489.968844
62.83900125
42.16452495
36.56828273
5390.546775
5365.6117
74.65175431
5618.710852
309.4944045
260.3345001
160.4282889
277.7450784
200.4654399
405.4358623
1445.316792
272.4137331
297.9523373
52.61206571
61.39193025
114.5258302
354.6885131
666.885467
969.5461891
783.4186034
868.9192996
2822.380182
624.0099487
550.3018765
332.3563693
1052.156807
1340.644115
492.6212227
4239.566306
3520.315585
5489.966008
4867.250311
763.9459009
2411.196833
4761.455419
3253.900846
3685.015472
5236.25777
1386.743254
1122.782507
676.368501
163.7995841
130.7973776
223.7393407
822.5777441
2153.612136
1530.39801
89.67762062
111.5142765
261.2122883
2497.589949
1641.414594
1271.973209
3208.897685
2552.290954
1960.333407
3643.075027
3317.714155
5268.965129
4976.142065
3530.223327
699.9975765
752.0799481
1490.622709
4767.270716
2455.203915
2750.398341
4056.481323
2331.813999
2752.315675
4658.521325
4604.181327
2878.46307
3054.454899
4754.098985
4649.958291
4846.965096
722.2004397
1441.654367
1208.038896
5492.581109
5292.791771
5203.772407
3976.4892
3673.564808
2056.909763
1137.18543
1138.200187
1299.679404
3111.952415
5297.113331
4481.886145
5351.164725
5114.421618
3569.17549
179.8830203
247.7898749
760.5130453
3204.072539
3125.091713
3292.715403
3269.010846
3052.149125
1994.202161
1973.882159
2015.944985
1997.815474
3060.736668
3894.879729
2211.181593
2226.315011
2125.938278
2186.932328
3961.763735
2801.543845
1807.055609
1632.911332
1958.866916
1905.069583
2876.680323
3768.558699
2259.224232
2273.001312
2241.734992
2249.071486
3811.693994
3383.025277
3316.952878
3466.375876
3316.838012
5653.193211
5855.355427
5432.041782
4022.61983
5710.032833
2077.431634
2932.600808
2047.161337
2731.266811
2051.925652
808.4907061
2859.760861
2051.573947
4937.97675
5142.726488
5465.564436
4015.145423
4651.884368
931.5445476
5144.391215
5428.004241
5057.840231
2349.410644
1698.792089
2389.188219
1266.062589
1826.621984
2427.542004
2668.41393
2466.030637
3432.337055
2171.340956
2054.947873
2950.876425
2144.55551
3219.641549
3211.182443
2038.169544
2019.663734
2065.66575
2037.920859
3231.110796
2484.857246
1501.982235
1525.808877
4152.12447
4142.777614
3521.728224
4580.873357
4409.223014
4232.734636
4143.780914
4340.953235
3263.366331
1784.605183
1987.331008
1564.139969
1639.626323
2783.392299
5011.270924
4207.035663
2238.795097
5362.042969
5123.34157
5104.187136
3201.895387
4996.183569
4834.215371
1867.929325
2099.801958
4017.905007
1933.185224
1339.034809
1316.786146
1471.679295
1424.267905
2042.03227
2999.861721
2813.809096
1845.115206
2695.742982
2820.736541
2540.432636
2670.1255
1812.07663
2701.024455
2653.792653
3387.166595
2531.56426
3699.40274
2305.384684
2317.095411
2280.060838
2290.898359
3692.037443
3634.413649
2537.54516
2923.860137
2342.881286
2398.4014
3635.18113
4621.855762
4480.796001
4838.6982
3269.373488
3865.056979
2652.704037
4405.488249
4465.074868
4395.214106
4404.45546
2712.362347
1948.994503
3721.289057
3141.025136
4325.848437
4468.873304
2245.765525
5011.102237
3176.275346
3411.037747
2343.981113
2838.651897
5101.596525
5112.015404
4946.322316
3725.929031
4315.236551
5467.473347
5274.694624
31.91911763
31.93661152
31.92566465
31.94205527
31.95118921
31.94390305
31.93789125
31.94937979
31.93277268
31.90511723
31.93255466
31.89615247
31.86307144
31.90891543
31.85305225
31.82304761
31.88751362
31.97051558
31.92104774
31.9884016
32.01288374
31.9473776
32.00980548
31.9919193
31.94133253
31.97916298
31.92868473
31.90482667
31.90904484
31.84659098
31.85341058
31.82567962
31.76746667
31.80521415
32.29340975
32.02328287
32.32422033
32.35781223
32.06024243
32.31758651
32.25123594
32.02566743
32.20965464
32.09167348
31.94762303
32.04768057
31.9160936
31.85302641
31.87470141
31.76446631
31.75933156
33.53245597
32.49593381
33.61938549
33.64723284
32.50437095
33.42113274
33.06592288
32.36527257
32.91092307
32.56043139
32.1547619
32.44934517
32.1570399
31.95410947
32.0711458
31.85784106
31.7759292
42.16719149
34.37186211
42.1812242
39.91970192
34.21727181
38.0049916
35.4845
33.40982405
34.85141992
33.65202671
32.71834673
33.36351721
32.68721858
32.24856442
32.50807476
32.08636169
31.89783587
59.89767848
57.96620655
44.8359533
47.36230436
41.99174153
39.52294822
39.67300001
35.82536499
34.0123118
35.10530975
33.61077975
32.86468089
33.26181198
32.49141678
32.16675444
89.10173748
64.31589259
54.12299498
47.96109882
39.16766167
36.47050855
37.72824794
34.96671782
33.89415518
34.36382272
33.06991373
32.61705132
140.9886233
88.55135364
79.8209414
56.27048927
42.86387831
39.96403443
40.67804852
36.52128237
35.29198865
35.63174113
33.75242216
33.2305693
159.167342
101.9821342
98.39845134
61.7422251
45.97028673
43.5650452
43.2431629
38.03487252
36.85443736
36.88120423
34.44320338
33.92716463
153.8711645
104.4670116
104.4644666
64.35467679
48.24674618
46.52203324
45.21810481
39.25966753
38.31576856
37.93256132
35.04395186
34.60406135
141.8474245
107.123484
108.2114779
48.59995324
39.5130762
35.1572674
134.2991343
180.3841804
203.1107404
85.36278916
99.65782592
84.99815278
184.0849312
260.3420118
263.0273086
210.1602618
228.687913
161.5020839
186.8345474
246.0123563
244.1102727
263.0060327
261.6631466
189.4634036
170.8665571
199.3365526
195.8107515
223.7809746
219.5980134
181.9424486
192.0171511
188.801635
164.5846034
1193.805498
1277.433262
1229.493371
59.92498279
1603.355316
1102.76081
61.91298283
66.63497874
76.91480749
43.60180641
56.27563009
49.97348572
386.7291464
440.9491006
470.5056355
184.4143268
216.0646802
178.7321412
77.24443572
66.70111206
96.22044499
51.03881739
59.5091908
64.33727832
50.23971544
54.77074437
47.82524646
1331.455793
2035.958697
2042.683059
1337.397838
1363.519324
967.8523051
96.87671987
90.72972042
145.0263061
63.35523132
76.86741659
80.08504821
68.90646726
73.16283637
60.54135282
810.6609718
988.8633814
959.7046298
1443.128763
1430.95928
1058.757738
104.2483864
102.7655518
159.2295387
71.19942033
86.32768459
87.44605749
82.69721616
84.79990417
69.70431763
481.0446114
616.001198
589.4482154
879.9566685
815.4137069
582.4030492
1170.633087
1270.779067
2012.659946
325.2037176
527.9180624
471.7884996
418.6206935
406.2006808
348.360411
880.1097411
1263.34173
1310.62431
514.5332152
546.1349498
445.5761719
146.7480668
171.9824732
127.0130584
367.8439527
283.5059194
260.9964911
402.3693268
384.0457909
572.5853873
1090.041962
1462.704044
1455.047229
2039.170628
2031.554476
1339.515555
250.8480566
258.7796414
173.3782311
936.4822407
483.3015953
493.9399252
521.1013673
525.0202065
862.5022201
732.7042507
435.0360373
418.6048445
493.1398448
490.6565059
904.975626
162.8516802
233.9090984
247.4925737
657.5315282
994.2768708
904.6108498
934.836544
914.50394
763.6003279
254.3409853
248.6780075
188.3836895
582.9914959
440.2299683
449.7909231
274.1758584
284.558168
528.1752868
806.6303369
510.2757041
516.7066985
459.5511854
469.2177032
694.5113266
189.831615
260.4279146
256.3610343
374.4161448
447.5965151
432.9541574
565.538071
542.5614515
434.6351251
454.7578618
1078.640178
532.4756595
1046.637067
628.1742379
109.4094525
104.2586494
152.3029687
74.26986219
88.52668379
88.3789195
88.09252777
88.48601379
73.80278782
699.4560329
1051.57686
899.7200269
831.3323427
813.6983745
720.015215
190.5332845
119.7542819
95.0157401
239.7801639
219.0756586
286.7101921
93.91570992
112.2862541
137.5264715
777.8559486
897.5797568
866.5020937
1279.311152
1188.978931
920.3976827
207.4367273
203.4937663
173.3462515
346.1192463
250.530478
244.9263612
236.6389446
242.9170507
337.8580138
426.0693627
260.5691918
270.7119501
247.2297414
257.4882202
413.6869556
179.6274077
215.5703305
211.2756123
101.1962856
112.0576898
126.6134755
145.1829352
67.0385472
92.47617508
79.7731665
104.0513279
99.96740844
68.38273123
408.5375718
612.9870339
345.0009043
739.134743
307.8507159
229.9595568
1099.226341
938.9094757
1548.349067
204.216155
289.7863755
376.4278552
1466.200756
1520.120205
1117.380968
1058.588054
1436.874613
1464.17594
1135.456366
1115.333668
892.7483355
946.1806824
1200.423824
1162.247472
672.72324
643.2893079
499.3410241
1886.957035
1242.153236
1335.820233
926.9890592
959.0906721
1264.441108
1450.494366
1557.469065
2860.425228
558.7933882
792.3005531
758.5407934
586.2923998
709.1600702
676.2635501
856.7464387
792.1437998
612.0236958
895.0790203
935.487296
679.7641718
580.6286926
794.0258797
840.3673876
1499.268565
1494.174639
1130.013081
1163.634276
1536.12669
1510.389058
528.2949655
527.9261653
920.6375449
312.778841
394.8224368
396.4773635
387.6902072
391.517254
310.0810811
317.8883427
397.5915368
396.5903572
398.0026587
397.9984784
317.597712
868.2997827
526.9902085
527.9188803
464.0610768
449.3722618
750.5322836
272.5293324
341.0334811
348.9996402
319.0426898
328.9940069
264.4128544
297.6336758
375.3644298
381.8545275
359.8698453
365.840902
292.2052171
880.0255973
490.5874238
476.5439133
1152.973035
1034.90139
609.9013147
694.2238926
816.9298642
799.8114725
965.9508435
687.0801268
688.8762681
627.8979895
656.0956092
925.5349606
420.6013554
520.6341007
500.4972165
1069.38761
1542.98539
1399.910016
3118.498664
2766.064967
1527.035034
644.9796946
1875.992863
3459.453084
3096.269895
114.9220963
158.013939
213.404343
149.3438676
105.8646519
309.714065
169.2551989
248.3248334
289.4046346
393.9327606
126.8201462
187.3945951
156.9888576
219.3132958
208.7217783
132.9621606
1897.497678
1995.036696
1306.615536
987.620121
1378.558972
1400.263181
1050.704777
1020.600753
828.3234368
2125.079211
1349.776912
1412.624803
1210.607797
1274.843404
1875.946349
1043.69371
1410.018223
1378.351795
1114.163033
1199.65777
840.483262
326.2676793
301.8600461
409.3972167
197.2905767
237.1469156
251.3621929
207.0609523
222.2928689
185.8978009
238.2849599
294.0272702
305.7918657
266.4773203
279.6471365
228.0128085
547.2814493
365.8683888
346.1201773
1477.966332
1471.095221
1099.309705
1322.287637
1989.684787
1888.792054
1569.149294
1132.983443
1164.620206
1080.109384
1105.206671
1530.815584
749.5016309
895.1925251
877.4737603
421.0811326
430.5326159
564.1392916
291.8118351
349.4382369
343.9331655
360.5441257
355.1846799
295.6319026
494.6519447
503.3419236
792.9823167
314.4807627
388.6879558
384.8697269
394.6583112
392.0270385
316.211686
304.9176527
371.0754867
366.029545
380.554324
376.0910543
307.9807233
711.5721409
477.6237247
486.7760414
481.4954051
464.1647366
385.6546598
759.8017641
575.4270313
600.2994915
529.0946144
551.6427376
682.9131205
776.3939942
1229.925102
2155.79808
1244.438629
1961.73171
1748.529523
2604.090461
2223.658298
1360.999453
527.067922
3440.83949
1807.104507
2020.556215
1461.838546
1624.924121
3019.837808
877.4936827
1110.019094
1042.533976
767.5901153
1134.284052
1404.516723
826.4600678
1032.138495
697.3185224
1559.097165
1821.064458
1188.14083
433.6383712
592.9215242
735.4088259
421.8438726
512.0253078
392.6569942
1130.597619
728.8604039
624.5531697
1152.169386
1562.846799
1717.289319
1410.284164
1431.336914
1045.328843
1452.452499
1479.638836
2448.736625
875.7585052
1095.802025
1075.44475
1321.440706
1256.472138
973.0507173
1114.352744
1169.711672
1730.434019
787.9453084
916.9766045
888.5604834
993.8083384
952.6844904
808.6014583
998.343867
1333.1873
1248.150068
1535.075429
1439.116335
1044.604102
874.1191852
1087.609366
1041.267932
1182.776216
1135.116573
904.0570492
2992.396238
1644.809097
1735.95362
1804.136305
2049.591658
3780.442348
947.2341663
1273.54758
1173.127381
1544.927528
1393.777531
1012.631334
712.8168279
987.2066352
1044.65457
686.5691197
729.1360699
546.7449694
1551.936778
1056.524365
991.4997297
1232.672599
1174.205253
1757.703093
1122.470057
1488.7361
1483.934851
1722.803203
1596.390615
1192.363017
1499.155964
2656.760512
2376.404743
2936.645833
2776.075565
1569.26994
1174.319581
1699.651252
1616.584748
2043.088794
1824.14804
1233.860991
1828.136536
1689.940299
1134.274965
1391.22328
2306.901727
2010.972304
52.27730634
47.17226405
49.48576532
39.89767057
42.34908707
46.15450841
37.65303871
39.93381925
38.0683574
88.11012189
87.63745906
74.62216572
298.0341881
224.2958022
229.7493089
213.2548464
218.4549241
268.8598799
245.8200206
352.1462662
416.2631872
235.3827615
302.3678019
212.9659616
846.8443702
381.5668286
339.7864444
640.215757
1130.66639
2273.765489
291.0492553
434.6620581
371.2548407
476.9276379
474.2941048
299.9671931
73.44213479
66.15300309
58.67630165
88.37612712
75.08464225
80.9082601
380.5764433
407.4864217
370.0183936
777.1999073
550.9918387
488.3222392
663.0039816
592.3025518
838.1138235
809.5487427
957.3575319
911.5734028
1087.352517
1016.665291
837.9245425
2376.895638
1409.860839
1583.141113
598.588634
488.8702037
508.11887
454.2331388
470.4347902
573.2898914
1185.032969
789.8596412
722.1202738
908.6960043
853.1521544
1228.356804
469.9019291
596.163244
628.9427461
866.74165
1287.022771
966.4601712
1008.188907
885.1536289
915.997376
1202.053863
708.5082246
777.4344685
779.153237
152.8999305
177.0390504
192.2903741
246.417663
196.2395021
178.795239
984.9750914
939.680931
799.0762528
1914.815743
1230.127269
1327.283539
1075.071218
1142.348049
1704.619385
94.78489529
105.3045503
99.18626678
130.9696995
122.0553611
100.568605
187.1295277
142.6404211
179.9170967
719.0631773
809.2358278
794.6628367
859.1540208
836.6117063
733.8042899
1369.740142
1009.13141
1057.003992
857.6633726
838.9265893
707.8596552
1368.441097
1016.282712
1049.167981
948.7330885
978.2924246
1280.112467
190.3800458
239.4337947
214.9822433
314.070223
279.6978058
215.1829027
523.8670497
358.4024353
453.1442908
31.96011307
31.96369531
31.98752135
31.96496786
31.96368832
31.98740627
31.95984603
31.95345296
31.98382838
31.94611206
31.93852243
31.97894087
31.93125944
31.92495919
31.97433489
31.92045928
31.91464233
31.97119403
31.91083419
31.90815571
31.96906887
31.93349419
31.93876943
31.94542144
31.94529683
31.94558758
31.95251621
31.93874322
31.93342339
31.94231266
31.913965
31.90620003
31.92076834
31.88416915
31.87690772
31.89765242
31.81616712
31.80774553
31.85961699
31.79817651
31.7906307
31.84830608
31.78528389
31.78275342
31.84032905
31.93719336
31.94796619
31.93655268
31.95987544
31.95912808
31.94861781
31.94190043
31.93158903
31.92621032
31.89371122
31.878032
31.87810788
31.83186851
31.81692384
31.82801747
31.75211929
31.72046307
31.76189747
31.69959371
31.6840384
31.73551875
31.67262367
31.66592736
31.71868128
32.10161135
32.12638167
32.04481141
32.11487517
32.10891727
32.05174271
32.05976457
32.0376684
31.98994361
31.95654914
31.92666603
31.90117084
31.83607259
31.80824364
31.80400552
31.73343402
31.66605603
31.68994106
31.62593979
31.59589087
31.63760918
31.57355242
31.55882404
31.60583421
32.74964337
32.81405066
32.52944556
32.69884343
32.64746548
32.47979428
32.46869838
32.40440341
32.26405444
32.20273119
32.13639141
32.05073189
31.94979086
31.89516046
31.86151616
31.7961931
31.65999246
31.65566694
31.58512535
31.53232072
31.56167942
31.49236177
31.46431742
31.50550454
35.6263036
35.78415389
34.4703109
34.86849446
34.51644447
33.93773649
33.64796247
33.40552734
33.04818189
32.82188274
32.66089543
32.46185582
32.25123592
32.14167702
32.06320387
31.97628511
31.71247855
31.67606467
31.5892572
31.49659731
31.51216331
31.4320625
31.38395133
31.41859093
48.06083596
48.37589585
45.63594598
36.77357746
35.85056254
35.01874063
34.12467818
33.72538491
33.34172461
32.84057507
32.62266229
32.48095257
32.30032869
31.85044202
31.76931395
31.63693386
31.4956822
31.49291683
31.39271127
31.31908653
31.34696197
74.53274806
67.6466882
62.7194419
43.55505509
40.72755506
39.24720307
36.34443217
35.49836444
34.88372146
33.78372925
33.39034406
33.17362934
32.75933118
32.07127311
31.94809283
31.74153328
31.52055964
31.5036499
31.37106851
31.26727522
31.29038963
130.3615283
109.8617655
105.2375088
52.35602129
47.05332009
45.46412735
39.19425946
37.76747273
37.02965693
34.98342587
34.36630889
34.10001179
33.30609039
32.35337514
32.20479185
31.88477879
31.57276885
31.54303995
31.3665375
31.22649274
31.24598536
157.6294819
132.8063974
131.282453
59.41442844
52.56393135
51.37212814
42.05017965
40.09386657
39.35452782
36.25884409
35.41114688
35.15458164
33.86639444
32.64727998
32.49992118
32.04196718
31.63956535
31.60392595
31.3728554
31.19444753
31.21148731
156.2935417
134.7248559
135.1343016
63.35841948
56.15772032
55.46965192
44.35994734
42.05499299
41.4539352
37.42582321
36.38345255
36.16705795
34.35254326
32.90608751
32.78400583
32.18574935
31.7056181
31.67161913
31.38462326
31.16913333
31.18393899
144.8820121
127.8102874
128.9366943
64.9513697
57.97465859
57.79928541
45.93329763
43.48460043
43.08457449
38.38899968
37.20104123
36.98564062
33.01339109
31.73140761
31.16016915
48.45429289
100.2784559
95.05522554
111.2077955
129.4230993
127.1725859
151.9300935
135.4762966
135.627139
158.7295346
312.4127865
354.1242917
346.715516
520.0292715
504.5037969
625.2620058
952.8530468
717.3100013
714.7051016
685.6361076
689.9979827
849.965588
693.5877327
546.4991915
531.4384275
710.5022078
704.0675058
939.6985542
385.0969488
393.4832478
495.9840563
827.2962425
675.7308834
681.0555679
337.4418603
129.8154817
130.8341416
149.3426532
146.2308113
124.5230871
114.7178683
362.980593
311.2240816
316.4698219
278.9884003
284.0784344
323.1294346
451.8879069
368.3261844
376.2277246
324.1965452
329.9485065
391.5730854
65.70547516
73.57960707
75.13251725
76.34603726
76.50012138
70.10395052
423.9231836
309.0980688
260.4327797
706.6453286
707.9946732
894.365251
877.9147036
704.0804355
705.095721
620.5982425
607.5579714
784.250793
834.0898479
644.4402356
631.4019466
778.1385262
766.1866458
652.3763729
1068.36683
864.8146503
888.7281609
735.341333
754.2653082
859.7976629
423.7279178
414.0814113
438.6658746
500.764318
444.1889246
430.8558772
632.5721372
640.3947018
765.1824314
731.9458696
617.4197874
625.2446979
789.2033468
700.718523
720.3120952
58.54807117
54.46658702
57.01752136
305.2037583
269.2578914
274.7042749
162.2361108
185.4100638
182.5170447
54.8600361
61.66438956
58.19190778
102.0834919
93.75394986
98.49604087
338.8067474
393.9669547
383.1299785
148.1405615
162.3560334
141.4793858
233.6252253
199.8623341
212.009436
31.92038841
31.92761071
31.93259912
31.93254708
31.92659323
31.94057291
31.93633523
31.93740303
31.94916012
31.94174081
31.94402031
31.94393105
31.94262506
31.94245756
31.93723386
31.94115056
31.94220231
31.95135196
31.94468629
31.94208348
31.9243787
31.92625139
31.93274159
31.91198101
31.92032181
31.91594526
31.93704279
31.92764467
31.92065426
31.88517056
31.89404846
31.90405742
31.87583628
31.88573572
31.87497541
31.91407343
31.89899089
31.89113488
31.8418613
31.85819344
31.86757061
31.84234285
31.85063899
31.83260441
31.89191706
31.87059584
31.86425085
31.94474348
31.92794614
32.00478519
31.96638904
31.95604802
31.98125523
31.97490405
32.01197171
31.94261385
31.95472172
31.9587815
32.00783585
31.97807675
31.98182815
31.96441259
31.97210681
32.00356868
31.94638402
31.95639342
31.94975759
31.96440458
31.94244693
31.95465679
31.91412011
31.92945461
31.94772155
31.91688821
31.92073939
31.90738577
31.88798789
31.88082597
31.89837092
31.84417325
31.86322323
31.86782545
31.86645047
31.86202083
31.84563105
31.80350858
31.8086136
31.82540032
31.77717651
31.79289473
31.78465321
31.816681
31.80341906
31.79044347
32.19182988
32.07862855
32.3612081
32.20812115
32.20930915
32.2130875
32.21247309
32.37054622
32.05432981
32.13446436
32.12931544
32.29878174
32.20035485
32.21967252
32.14636874
32.16568396
32.2912835
32.03700383
32.10327454
32.08204731
32.17358087
32.08768446
32.12087826
32.02182748
32.05476219
32.13432726
31.96956846
32.01270342
31.98499561
32.00294556
31.95473508
31.98848787
31.88526795
31.92031045
31.95898734
31.87756482
31.89639935
31.86565767
31.83556842
31.81809
31.85129172
31.75879124
31.787432
31.79871071
31.78073525
31.78214252
31.75709793
33.08320646
32.69142941
33.72688033
33.16527701
33.17161887
33.07257645
33.117331
33.72558148
32.51860603
32.82272138
32.79464816
33.292368
32.98606379
33.07283978
32.74367041
32.82778773
33.22090236
32.40284391
32.62706512
32.54865996
32.78966867
32.55885571
32.66025255
32.37281382
32.4615421
32.67624759
32.20824956
32.33976858
32.27101646
32.34743308
32.21293967
32.29027859
32.07033164
32.13995552
32.25084131
32.00205916
32.07253966
32.00896751
31.99398715
31.94033659
32.00464254
31.82152115
31.87890685
31.92346654
31.81753458
31.84416845
31.79655141
37.49324783
35.44163697
42.21610129
37.6757504
37.80644861
36.76025978
37.28691954
40.87232564
34.36096598
35.6886038
35.42231563
36.96387997
35.76077689
36.37320732
34.57181424
35.01647694
36.2781339
33.60213657
34.29330488
33.95600079
34.37136032
33.82165592
34.18716031
33.2414011
33.50559254
33.98576938
32.87085818
33.1969011
33.00097657
33.11101043
32.82590801
33.0196714
32.50665313
32.65494372
32.88713589
32.34982078
32.51400116
32.37667336
32.35108746
32.24179191
32.37059708
32.01211028
32.12258284
32.21238305
31.97716093
32.04389058
31.95304325
60.11750903
53.88531575
53.70276563
52.20950318
53.10339629
59.77835065
45.26028627
48.3894443
47.97683104
37.9620876
36.80935451
38.11728584
35.08242087
35.83042227
36.73658662
34.45831706
35.14673584
34.58878602
34.51178015
34.01801329
34.48653904
33.32080817
33.6402586
34.01961578
33.08675585
33.38405399
33.0941019
32.96627925
32.78941201
33.03759922
32.36797231
32.56730484
32.71394838
32.31691621
32.43360975
32.26406548
78.49150702
72.87366761
80.78578558
60.09454305
65.12501826
69.52836504
43.85192996
42.23904064
45.75552755
38.12804333
39.83399978
41.09957729
37.63969322
38.78632281
37.40073636
36.59747542
35.88794389
36.84836481
34.54217067
35.14563269
35.69504526
34.34243401
34.81292564
34.25295873
33.86169103
33.60255267
34.0345562
32.90563154
33.22968344
33.4357058
32.87817903
33.05341421
32.76114793
118.0207498
114.0760329
135.9181058
85.65007237
97.47590538
100.7379272
90.3223867
94.08297611
83.22087654
50.03636194
48.58472862
54.45032411
41.79816833
44.60613803
45.82780702
42.2365786
43.50765033
41.0246458
38.96687507
38.19248766
39.72555697
36.06593648
37.01573654
37.60724916
36.06850173
36.63562889
35.72858321
34.89698375
34.62020216
35.28209135
33.57357034
34.05594097
34.27792811
33.63226129
33.84591155
33.4025749
134.8375452
133.9581823
158.5107414
100.9687053
114.9904895
116.06016
112.3095953
113.8638394
99.80938512
54.583537
53.67833495
60.77223639
45.17973485
48.72582127
49.6052107
46.81007203
47.87364102
44.53092012
41.12620207
40.47973368
42.51901522
37.61591855
38.88730768
39.42700598
37.97148728
38.53328569
37.28625275
35.92896555
35.67593055
36.56741194
34.2736716
34.91838668
35.1249619
34.49183367
34.69894018
34.09634676
133.3971264
133.9291473
154.9598134
57.23049579
56.79529502
64.04889197
47.62576614
51.52074843
52.12365163
50.28893764
51.07179993
47.28230873
42.7971664
42.37048167
44.66637114
38.98406149
40.51595187
40.85136589
39.71306392
40.21245269
38.69218031
36.81360931
36.61534889
37.70221277
34.90460838
35.69125335
35.8578723
35.32291359
35.49975135
34.75057818
52.53839348
52.8861302
48.97496812
41.13584703
41.46072432
39.79146632
35.99753933
36.17841381
35.29501138
188.0966008
163.8253241
156.7098273
174.9661575
168.6894842
195.8796654
261.7157877
222.2164779
220.5453357
224.4207598
223.3529031
262.426527
216.7285317
185.3173184
179.7082536
194.5512864
189.8181562
222.9336858
244.4489457
217.1962692
218.7420568
262.8226875
225.5541203
225.0603579
225.7378581
225.751827
262.2664897
52.19941665
47.25715497
46.50991131
43.23677549
53.92700878
49.05402219
50.16038205
46.10916627
47.10839902
51.59320069
73.41160994
82.29842906
86.45850585
73.73679835
78.13937462
70.84462904
104.2016708
89.63013217
84.02602839
94.99351417
108.5278347
110.6477207
103.564981
106.2611565
93.12212605
149.0130038
124.5672517
121.4881348
103.8991132
117.5791301
117.7997098
116.6899412
117.3193519
103.428304
159.0925036
135.666057
135.330763
858.133698
743.0866707
759.6589241
710.2213038
727.0767699
833.9019557
372.6179947
363.4618829
318.5062075
508.1765545
424.6110233
438.1505716
399.6934469
410.6253662
488.4920009
155.0221554
139.4086418
131.0755088
151.8088131
144.1821697
163.8872046
599.7334157
492.9484036
477.5104994
254.0285752
214.7855196
212.0606808
218.8869788
216.742148
256.4438828
715.3718377
717.1927204
947.3725333
495.6690223
551.710947
570.0362236
541.2610173
548.3872694
495.2828183
856.754642
693.6969392
697.0003271
572.200256
557.5920436
712.9958292
491.832627
526.587512
535.2782955
507.4917384
518.1596637
491.0679564
925.9490844
695.5706249