/*--------------------------------*- C++ -*----------------------------------*\
| =========                 |                                                 |
| \\      /  F ield         | OpenFOAM: The Open Source CFD Toolbox           |
|  \\    /   O peration     | Version:  v2012                                 |
|   \\  /    A nd           | Website:  www.openfoam.com                      |
|    \\/     M anipulation  |                                                 |
\*---------------------------------------------------------------------------*/
FoamFile
{
    version     2.0;
    format      ascii;
    class       surfaceScalarField;
    location    "1.76";
    object      phi;
}
// * * * * * * * * * * * * * * * * * * * * * * * * * * * * * * * * * * * * * //

dimensions      [0 3 -1 0 0 0 0];
oriented        oriented;


internalField   nonuniform List<scalar> 
6464
(
0.4582589017
0.001987010775
-0.002019818235
0.4583428764
0.002011941798
-0.001963178009
0.4584191313
0.00187404668
-0.001763066519
0.4584649121
0.001633154466
-0.001482517191
0.458478143
0.001339374236
-0.001194172894
0.4584863869
0.001022785958
-0.0009487127811
0.4584598447
0.0008388680454
-0.0006950563407
0.4584672815
0.0005777748246
-0.001597626619
0.9186986924
7.807253587e-05
-0.0005291383413
-0.0009991383951
0.9187515118
3.678367495e-05
0.9158140779
0.9138367837
-0.003230377456
-0.2289850543
0.2287971291
0.003418188974
-0.004030407333
-0.2291707167
0.2291300327
0.00407109137
-0.003922316621
-0.2293063506
0.2293695075
0.003859159717
-0.003494841608
-0.2293954278
0.2295360339
0.003354235563
-0.00288685174
-0.2294187999
0.2295882119
0.002717439814
-0.002259199266
-0.2293932818
0.2295524317
0.002100049405
-0.4588933632
-0.003257277975
0.4603476275
0.001803013614
-0.0004709142221
0.4609860473
-0.001237623451
-0.4592775096
-0.001357616529
0.9183464743
0.0002285197106
0.001481314979
-0.0008297273192
0.9182236226
0.0004311206098
0.91455323
0.9142679043
-0.2275583754
0.02848368523
0.2271324086
-0.02806085662
-0.2222068181
0.02371851713
0.2197742969
-0.02130652348
-0.2235260911
0.01132943299
0.2193749315
-0.007199237966
-0.2301968194
-0.005776302226
0.2296589726
0.006313062196
-0.2303319064
-0.005359125991
0.2306657699
0.005025262499
-0.00377969197
-0.2302895029
0.2309709815
0.003098213394
-0.4630077335
-0.0004549794543
0.4618943079
0.001568405065
-0.4601240333
-0.001649465331
0.4601710909
0.001602407672
0.000615912774
0.9203496732
-0.001507665564
-0.00111144615
0.001894933719
0.9169446016
0.0008848475808
0.9155633162
0.9151527519
-0.2257976353
0.03838053298
0.2254004892
-0.03799072763
-0.2137023473
0.03568047276
0.2123812224
-0.03440321564
-0.2079710328
0.02821051273
0.204921716
-0.025224958
-0.2148526203
0.01352161944
0.2101690616
-0.008887788387
-0.2342527519
-0.001294259987
0.2365948602
-0.001049886342
-0.00415199979
-0.2318842056
0.23192228
0.004113925384
-0.461971059
-0.006349494836
0.4632951832
0.005025370687
-0.4609707949
-0.003709310168
0.4620581042
0.002622000965
0.003584186567
0.9206334697
-0.002041730964
-0.001826252091
0.002446573601
0.9180822146
0.001133043116
0.9168768466
0.916285795
-0.2244711973
0.01674676078
0.2242325599
-0.0165164143
-0.2117002795
0.01866695387
0.2129831423
-0.02000142121
-0.1995653828
0.02337990513
0.1994351056
-0.02334131181
-0.2095372528
0.0307156036
0.2008838638
-0.02215662323
-0.2159091087
0.007271381713
0.2115941856
-0.003010008935
-0.006069219391
-0.2334135573
0.2340146492
0.005468127428
-0.4650945078
-0.007500573173
0.4668440095
0.005751071543
-0.4631124734
-0.004456328059
0.46421205
0.003356751418
0.004443240704
0.9229088598
-0.003738163142
-0.002980467652
0.002473889878
0.9200515654
0.001126999839
0.9182237367
0.9174127948
-0.2232368392
-0.02726524287
0.2229343476
0.02756608896
-0.2238666419
-0.01608230636
0.2281844262
0.01173523896
-0.2109624746
0.007885731854
0.2124031466
-0.009416747163
-0.1927004561
0.01112955111
0.1926183945
-0.01117043257
-0.2015166196
0.00743573886
0.199254834
-0.005273493803
-0.003202059087
-0.2324897535
0.230610722
0.005067206657
-0.4684252345
-0.007858516776
0.4700468498
0.006236901466
-0.4649307666
-0.00502368689
0.4656112292
0.004343224273
0.003794254717
0.9256041956
-0.003138775018
-0.003350815442
0.002096143772
0.9217496764
0.0008843282862
0.9194355522
0.9182971231
-0.02475744806
-0.1088465814
0.108249911
0.02535411844
-0.02018990721
-0.2476376993
0.03853921833
-0.02060930325
0.1245079795
0.125389712
-0.0208162072
-0.2232050142
0.2289904135
0.01497117601
-0.1960434459
-0.004491330475
0.1997918648
0.0006129134235
-0.1964904847
0.004448072341
0.19557203
-0.003652940222
-0.0005435134459
-0.2225217966
0.2207465946
0.002271240813
-0.4716866384
-0.006816400034
0.4727952504
0.005707787988
-0.4667351849
-0.004355525817
0.4678407228
0.003249987978
0.002327394661
0.9275722428
-0.002008328192
-0.002287113751
0.001134891324
0.9229421797
0.0004407609464
0.9201296826
0.9187378841
-0.02785949565
-0.136490287
0.1391537125
0.02519607013
-0.02683153376
-0.2480104392
0.2532413015
0.02156975251
-0.205928499
-0.011402987
0.2079727035
0.009236319665
-0.1956742616
-0.00503215653
0.1963856884
0.004182468088
0.0003861589386
-0.2181598035
0.2173315676
0.0003756425472
-0.4742513557
-0.00421282615
0.4754472383
0.003016943604
-0.4687202769
-0.002183855932
0.4694482445
0.001455888379
-6.203679577e-05
0.9285373494
-0.0001281488238
-0.0007749209454
-0.0003176479147
0.9231977908
-0.0002265203057
0.9200385549
0.9185113638
-0.01249787092
-0.1521081277
0.1527678963
0.01183810226
-0.01478028777
-0.2653371378
0.2675733873
0.01252723789
-0.2144270535
-0.00679482769
0.2158767153
0.005231707319
-0.1984638036
-0.001600234722
0.1990671039
0.0008592269912
0.000202949502
-0.2169800974
0.216863078
-0.0001603290046
-0.4768143332
-0.000418712748
0.4778617235
-0.0006286775357
-0.469813674
0.001106468042
0.4699933641
-0.001286158175
-0.002942511222
0.9279412048
0.002072067751
0.001466588101
-0.002093362028
0.9223486416
-0.001092531938
0.9190377249
0.9174188318
0.00472301937
-0.1511013072
0.150224177
-0.003845889159
0.001756104341
-0.2675152543
0.2659338251
-0.0001920382016
-0.2169943148
-0.001629517525
0.2169086561
0.001604455382
-0.2007244816
-0.0005664876799
0.2010965068
6.018872566e-05
0.001387329368
-0.218104774
0.2184156963
-0.001770654595
-0.4778209746
0.004774960153
0.4772073807
-0.004161366297
-0.4697515184
0.003920395771
0.4699737598
-0.004142637202
-0.006121957019
0.9257141799
0.004549371055
0.003799610845
-0.004013164782
0.9202398494
-0.002025646504
0.9170502066
0.9153931853
0.0143037561
-0.1422423231
0.1409629791
-0.01302441217
0.01324590716
-0.2572298438
0.2531228173
-0.009167639132
-0.2139185676
0.0003859396582
0.2150866434
-0.001664664862
-0.2018933383
0.00164850755
0.2021868227
-0.002070163393
0.003849309201
-0.2208497377
0.2213772962
-0.004438730957
-0.476150896
0.009652317723
0.4747097435
-0.008211165253
-0.4699998542
0.006949525332
0.4688674136
-0.005817084754
-0.009049128769
0.9221233848
0.006589964627
0.00604995919
-0.005858589961
0.9170493106
-0.00287691998
0.9140685366
0.9125162653
0.01774982326
-0.132252274
0.1309908785
-0.01648842775
0.01768261575
-0.241038938
0.2367758683
-0.01346521315
-0.2110521266
0.008281916215
0.2063323833
-0.00367541918
-0.2025207015
0.0006192608223
0.2024027176
-0.0006212450709
0.005771766821
-0.2238600685
0.2246640275
-0.006622139057
-0.4729538131
0.0135510808
-0.01151649971
-0.4676309398
0.00976136405
-0.008260532476
-0.01160351339
0.007056839879
-0.007443231505
-0.003610762755
0.1550672587
0.01497804323
-0.1540818992
-0.007717319569
-0.008246083101
-0.1373123316
-0.03096172269
0.1404145586
0.1532432123
-0.002921115352
-0.1541919347
0.002116553348
0.001753284397
0.1556967063
-0.00631247095
-0.00681484765
0.1433507828
-0.01358785504
-0.1447001546
0.007537906133
0.007399320747
0.1522133331
0.003054779863
0.002698118748
0.1326964188
-0.01752113199
-0.1339353689
0.01876008213
0.01566961957
0.1419849193
0.019230347
0.1312158951
-0.1057231552
0.1044543346
0.02805758999
-0.1340534608
-0.0313164608
-0.1219460901
-0.02166254623
0.1234187291
0.04115953061
0.008827488157
-0.04083802308
-0.009148995685
0.02306683567
-0.06901291343
-0.02511173321
0.07105781097
0.01404513441
-0.1511752188
0.2777941091
0.01884869364
-0.2751625979
-0.0214805593
-0.2610857695
-0.03241406875
0.2666630617
0.04768840315
0.0007712191234
-0.04777083444
-0.000688787837
-0.04438924496
0.003410440073
-0.002824904002
0.04380370889
-0.002181461497
-0.151840961
0.2794567532
0.002195581045
-0.2802668065
-0.0013856077
-0.01650163703
0.2795153411
0.03864346799
-0.00424099634
-0.03898976581
0.004587294159
-0.04159907531
-0.001701099514
0.001247499964
0.04205267486
-0.01231072866
-0.1435194495
0.269825268
-0.01098812474
-0.2731489493
0.01430919195
0.003228616003
0.2779839918
0.0698191301
-0.01104878796
-0.07030266115
0.01153231901
-0.07340048714
-0.01012281802
0.0729529762
0.005356078347
0.005214250619
0.008183160551
0.03075550577
-0.007862887161
-0.03107577916
0.06349742623
-0.01148994149
-0.06392639284
0.0119189081
-0.06657726562
-0.01168451606
0.01204787537
0.06621390631
0.003952201643
-0.04473269241
-0.003608754186
0.00848729994
-0.008707822781
0.04138005345
-0.1489073413
0.02201395415
0.1510190242
-0.0118482667
-0.01227737036
-0.08054132388
-0.008121558299
0.08130070631
0.01584947581
0.04325335392
0.004097255904
-0.04339840818
-0.001520313495
-0.04113096021
0.001052198392
0.0001256728501
9.582897318e-06
0.0475531474
-0.07758691435
0.00175090782
-0.001736135868
0.0775721424
-0.04632595874
0.04615103084
0.0003006007501
0.04102954312
-0.001759003004
-0.04079085361
0.04295292456
0.003710869436
0.0007695915518
-0.04632433116
0.002442187319
-0.07769558153
-0.002333520132
-0.009931568742
-0.07387663396
0.00522382546
0.005183890099
-0.004112588066
0.004285504265
0.03847055179
-0.1486600912
-0.01050080195
0.1473489788
0.006021503949
0.005790410412
-0.07688543063
0.004097501738
0.0763861281
-0.007710787278
0.07319348364
-0.009491441142
-0.07363361124
0.0412528837
-0.001924440092
0.004085320997
-0.007440641102
-0.03900598723
-0.03876511963
-0.009300001032
-0.1498511119
0.0053616332
0.005129388553
-0.01159276062
-0.06702137349
0.01203686849
-0.01128608315
0.01166689579
0.06943831746
-0.02953333218
-0.007506601692
0.007100663472
-0.02993724163
0.008587070007
0.01174220062
-0.007466915753
0.02977355312
0.0123227196
-0.04217877495
8.250222783e-05
0.01815471087
-0.03465739217
-0.02003187716
0.03653455846
0.04540917489
-0.007698612376
-0.03754541358
-0.0001651489327
-0.01635027211
-0.1334231339
0.2522296855
-0.01728967797
-0.2571814675
0.02222573983
0.01707307729
0.2659933946
0.03919421986
-0.007498317097
-0.03150987395
-0.0001860288113
0.06456622517
-0.01328962307
-0.06513810753
0.006962510529
0.006898994901
-0.03316908034
-0.006641281948
0.006730360898
0.03308000139
-0.06911435642
0.07076823821
0.02141295388
-0.009089810855
0.01691541432
-0.07953943919
0.02401414049
-0.1463596025
-0.0131218953
-0.01343998405
-0.006687780202
-0.03330833036
0.006827030223
-0.0352526909
-0.006848239272
0.00729523926
0.03480569091
-0.1379648416
-0.01665492421
0.0180154291
0.1366043367
-0.0698447419
0.06938422197
-0.01082556321
0.0665999756
-0.0111750063
-0.06701772992
0.07277266804
-0.009702002413
-0.01068367092
-0.07020985894
-0.0161941355
-0.1393267901
0.01755608402
0.01745728485
-0.05240653808
-0.0162565987
0.05120585191
0.02292345521
-0.06709620825
-0.02484016039
0.03337639613
-0.1208456855
-0.01721396687
-0.0185585848
0.06100935915
0.06223248187
-0.05592626052
0.05498186092
0.01840168445
0.0300140624
-0.0002405092756
-0.07680075473
0.02110241847
0.07858695088
-0.01133615705
-0.01155245758
-0.04056219915
0.05532554368
0.01525071787
-0.03452965089
0.03604099437
0.01664336738
0.01404926396
-0.04228874351
0.02195216711
-0.07497686387
-0.01179622457
-0.0119798334
-0.04010999445
0.002486934104
-0.002485284599
0.04010834494
0.002175767527
-0.04040398893
-0.001881773051
-0.03925253216
-0.003222338111
0.003130072893
0.03934479738
-0.003454345237
-0.03954848518
0.003750298254
-0.006156052945
0.03620173133
-0.03526808541
0.005222407032
-0.00967743027
0.02211964962
0.03296695553
-0.07158998392
-0.01076385188
0.0111378264
0.0712160094
-0.03808141012
0.03622232069
-0.007818340835
0.03612739671
-0.006363366001
-0.03592008365
-0.03408297109
0.03811746365
-0.003808413829
-0.0002260787293
-0.006861539626
-0.03891848287
-0.0106062511
-0.07200259558
0.005543394734
0.005475468026
0.06266244792
-0.01301634552
-0.06315079257
0.01350469018
-0.01325901055
0.06403925094
0.006901408451
0.006884576325
0.01921878082
0.02908370298
-0.009108263943
-0.04255705305
0.005953191566
-0.005753585277
0.04235744676
0.006352067888
-0.04257312969
-0.006335991254
-0.03886904889
-0.0009918698845
0.000876252005
0.03898466677
-0.00134006079
-0.03903818063
0.001509192524
0.03972229491
-0.00106952013
-0.03999283557
0.07969648824
-0.0005061175165
-0.07995552723
0.0007651564973
-0.08056841856
0.001393912849
-0.001233293417
0.08040779913
0.07858886404
-0.00272049497
-0.0788882882
0.003019919124
-0.001089949964
0.00134860545
0.07943783276
0.0397147177
-0.0009842926722
0.04082696587
0.002306333378
-0.04095753172
0.08079602962
0.004937065058
-0.08079062673
-0.004942467951
-0.0805291788
0.007235307103
-0.007374225873
0.08066809758
0.00207108953
-0.08069253265
-0.001946975435
0.004204283476
-0.004197909152
0.0807896553
0.04095900959
0.002354890381
-0.03773809751
-0.004643939618
0.004818863506
0.03756317362
-0.001882652855
-0.03213476733
-6.55509073e-05
-0.004669546199
-0.03795425808
0.004885706767
0.006148668857
0.03629083533
-0.006312107478
0.006939465349
0.03473839077
-0.006633801962
-0.03504405416
0.06820272851
-0.01145808774
-0.06861553109
0.01187089032
-0.03574382765
0.0074306021
0.00548969316
0.03686070702
0.01944629142
-0.0002275105996
-0.01293618037
0.01328204117
0.0334265843
-0.03687502806
0.003448443748
0.03438138433
-0.007010989678
-0.03446875675
0.007098362107
-0.03210369784
-0.006980212731
0.006671211515
0.03241269906
-0.003097306054
-0.01355710876
0.01515724602
0.001497168818
-0.007691580242
-0.03309943876
0.008687321164
-0.03040270625
-0.007716666897
0.006479221688
0.03164015146
0.02283825497
-0.04825202305
-0.02120521988
0.0228214925
0.02379749546
0.01748058383
-0.03303087765
-0.01910709836
0.02472501687
-0.05727828967
-0.02617086126
0.05872413406
-0.0523765384
0.02543193364
0.02410042276
0.02568243699
-0.04491729692
0.003770937455
-0.005653831936
0.0468001914
-0.04006525361
0.03935692955
0.0008469654993
-0.000138641447
0.03832729766
0.0005665100326
-0.03855587826
-0.0003379294404
0.04190584505
0.002562625688
-0.04250496699
-0.001963503747
-0.04002340903
-0.003689411876
0.003824720805
0.0398881001
-0.04195535666
0.003498643671
0.04233873466
-0.003882021672
0.03727713021
0.006875070608
-0.005951249716
-0.0382009511
-0.03686884395
0.03700255795
-2.068311843e-05
-0.0001130308874
0.04260202491
-0.003512523866
-0.03887909512
-0.0002104059263
0.04225722586
-0.002972524171
-0.04257693057
0.003292228886
-0.04296504043
0.005781725
-0.006705103978
0.04388841941
-0.03890642536
-0.02711571331
0.05486469251
0.01115744616
0.001795787878
-0.04167528945
-0.0001857520301
0.04187889212
0.006269049862
-0.0417958741
0.07933896232
0.0113020588
-0.07889164515
-0.01174937597
-0.07705842147
0.01364418255
-0.01433355877
0.07774779769
0.008039432433
-0.08033040268
-0.008238208551
0.01047498634
-0.01086589963
0.07972987561
0.04186795216
0.005964131533
-0.03988420977
-0.00115005198
0.0007649160528
0.0402693457
-0.03637957687
0.03647759818
0.0001446860368
-0.0002427073411
0.0001111742439
-0.03671840912
-0.0002616090662
0.04425610328
-0.002717102156
-0.04624850927
0.004709508142
0.003647279082
0.03794826016
-0.004318409029
0.002565753903
0.0411567288
-0.003497423749
-0.04022505896
0.0385443892
-0.0042386469
-0.03849858615
0.004192843844
0.07498229717
0.00456040706
-0.008620459742
-0.07559179068
-0.007353721337
0.07404195576
-0.07443862669
0.00775039227
-0.07561838711
-0.006474888839
0.006863789658
0.07522948629
0.03933607066
-0.003205819762
-0.03958459613
0.07716683443
-0.004621838296
-0.07756902592
0.005024029786
-0.003231130789
0.003541951337
0.0782780435
-0.006118165043
-0.07602471258
0.006524490514
-0.005028149699
0.005392674331
0.0768023098
0.03930014957
-0.00318641702
-0.01150437045
0.01185694733
0.06785015164
0.03447997277
-0.006589821276
0.06631489377
0.006678406533
-0.01290967573
-0.06677140477
-0.03854087612
-0.009566152398
0.01938133299
0.02872569553
-0.03975222745
0.01805439631
-0.01848016889
0.04017800003
-0.03030916036
0.03947861629
0.02425712837
0.01826426529
-0.03901310413
-0.01900338861
-0.02898272032
-0.002293521513
0.03145187048
-0.0001756286478
-0.006146597648
-0.02261544537
-0.0002206772949
0.03337932929
-0.007320874497
-0.03355798329
0.007499528499
-0.007505583577
0.008072419145
0.03381454876
0.01992885801
-0.01966836829
-0.0002604897181
0.01584977545
-0.01938423954
0.002365707011
-0.01486069635
0.01430091644
0.001905298098
0.006698014427
-0.03162275456
0.03288169932
-0.007956959181
0.009351236797
0.03324016764
-0.008168518336
-0.0344228861
0.03394426662
-0.006774896487
-0.03425925451
0.007089884383
-0.04150242195
0.02045095251
-0.02126546797
0.02812521057
-0.0001617281737
0.03022927888
-0.02984072972
-0.0003885491536
0.0442058997
0.01213847897
-0.0431516216
-0.01319275708
-0.04082832917
0.01279637604
-0.01356263952
0.04159459265
0.04593088104
0.01125847201
-0.04398183999
-0.01320751306
0.01138248188
-0.01169212257
0.04451554039
0.01297344943
-0.04016823313
-0.01363354547
-0.03766822408
0.01370945801
-0.01453695871
0.03849572478
-0.04011813016
0.04130519517
0.01686733129
-0.0370119956
0.03617071948
0.001139471471
-0.0002981953505
0.02580965985
-0.02574233782
-6.732203469e-05
0.004286810679
-0.04255129244
-0.006652815159
0.00238430089
-0.00182422315
0.04134576731
0.03804193165
0.0004993327202
-0.0002139667064
0.0006159366558
-0.03746494886
-0.0001629833974
0.0004349247198
-0.03721621497
0.03859694165
-0.001815651402
0.001072437702
-0.002191037034
-0.04083675733
-0.003447149859
-0.03987305344
0.003296794275
0.03737643428
-0.03596439001
-0.0003396065742
-0.03392600225
0.03490329781
-0.0005423708404
0.03528739456
-0.03488868847
0.006476364523
0.04125581294
-0.0003807349841
-0.002156386183
-0.03165005483
-0.0001195612401
-0.003520058769
0.004374514087
0.04140277054
0.05038828173
-0.00758279285
-0.0002034639722
-0.003556691562
-0.03581590959
-0.03756616261
-0.007008030578
0.007611044428
0.03696314876
-0.005455796588
-0.03615781203
0.00404744601
0.03744535145
-0.006056531906
-0.03684461613
0.03574797399
-0.005981786047
-0.03584436731
0.006078179364
-0.03670852571
-0.005849584754
0.006271256751
0.03628685372
0.0338437863
-0.006895358759
-0.03309502519
0.0367810817
-0.005843991544
-0.03711957311
0.006182482964
-0.03784207184
-0.005340707707
0.005194213571
0.03798856597
-0.005799899999
-0.03693833276
0.006029707048
-0.005647481306
0.005636772164
0.03679179084
0.03589072036
-0.004340455576
0.007492895876
0.0325819412
-0.007660544287
-0.03241429279
0.03231522109
-0.007137910179
-0.03256454145
0.007387230535
-0.007365369774
0.007721086784
0.03302361229
-0.002163764098
-0.04511545936
0.04329761701
0.00398160645
-0.008063366712
0.008501964512
-0.03934502316
0.00587620495
-0.0423393991
-0.006501846276
0.02709357304
-0.03493504941
-0.0002218903333
-0.04123924165
0.03921020792
-0.0001347303695
-2.214027164e-05
0.04016098957
0.005941653244
-0.04274059032
-0.003362052502
0.009693611851
-0.01049511094
0.04673238013
0.004913559823
-0.04597429782
-0.0001785036543
0.008873434809
-0.007955589233
0.039243144
-0.04164214117
0.007387903504
-0.007672205533
0.0419264432
-0.04186116727
0.04222831294
0.008506289137
0.005762833664
-0.0459647332
-0.03575173626
0.03605815705
-1.780387174e-06
-0.0003046403959
0.0002156567027
-0.03619387656
-0.0004013570147
-0.001032685455
-0.03953590794
0.0006843836209
-0.003208354495
0.005697963347
0.04176649443
0.0251664625
-0.02487306968
-0.000293392816
-0.0005766992608
-0.03512217469
-5.28623111e-05
0.03890339888
-0.005856922221
-0.03961653455
0.00657005789
-0.03753127092
-0.005128368639
0.004342512113
0.03831712745
-0.005172075225
-0.03742793422
0.004757937609
-0.006239190689
0.007372612985
0.03776997658
0.02306385279
-0.02267967801
-0.0003841747822
0.04126326364
-0.03990442478
0.00120691505
0.001972152569
0.03696252107
-0.00653145225
-0.03821297196
0.007213153287
-0.004248294669
0.003642432553
0.04186912575
-0.02098167679
-0.0002837911793
-0.03552686142
-0.006529800901
0.006278818988
0.03577784333
-0.02760316614
0.03076317683
-0.003050378788
-0.0001096319055
-0.009664561018
-0.04293987034
-0.006065023721
-0.02139667394
-0.0001414684711
-0.006921151953
-0.0358142409
0.00720853144
-0.03083810544
-0.0002098748026
0.02531060087
-0.1337432979
0.02642864849
-0.2537126335
-0.0338127335
-0.2316793163
-0.02780285424
0.2386295709
-0.02567611912
0.02863961394
-0.002747592226
-0.0002159025927
-0.02000435103
-0.0055002208
-0.0001715472934
0.02261037306
0.2472811404
-0.01970240385
-0.0003019471776
0.06623837415
-0.01132291461
-0.02156727636
-0.1287531202
0.01149031795
-0.01771951342
-0.1286957772
0.01895335507
0.01566219092
-0.02049653606
-0.01480068277
0.01963502792
-0.02061166582
-0.008484989517
0.01909037329
0.01000628204
-0.005362187245
0.00610034299
-0.0142952645
0.02281806978
-0.0282605572
-0.03143254064
0.01767085011
-0.0263641193
-0.0183434918
0.027036761
-0.02291641832
0.02155913365
0.0170194756
-0.1268499563
0.02674777019
-0.02859867468
0.1287008608
-0.1235771334
0.1248066805
0.03214684899
0.02123819929
-0.0674291005
0.009645002118
-0.0399047357
-0.009935129351
0.04019486294
-0.04280446746
0.04328660152
0.01090034782
0.04505562817
0.01021672183
-0.04401387799
0.03118109939
-0.007037984362
-0.03139572667
0.007252611642
-0.007084682415
0.00747679141
0.0319231121
0.0315961495
-0.008580360693
0.00662071418
0.06584785929
-0.01279496165
0.06463971765
-0.01282427204
-0.06510506868
0.06503781366
-0.0116392185
-0.06545378643
0.01205519128
0.04549911913
0.009250120895
0.007223820993
-0.04314333502
0.007593806875
-0.0415431385
-0.007692809547
-0.0267957085
0.005621926367
0.008077533282
-0.02970304158
-0.008311733337
0.03625450902
-0.0279197096
-0.000257266135
0.01804587052
-0.006965747944
0.007091381173
-0.05582921394
0.01416520437
-0.0005147653788
-0.03349078093
-0.003823474487
-0.000231158154
-0.03301071781
0.03310355913
-0.007591158417
0.004906075505
-0.03123939005
-0.006677403272
-0.02636138853
-0.000242409916
-0.03316046275
0.0331574133
-0.00697716328
0.03390780784
-0.006937810741
-0.03398098677
0.03280398927
-0.006623237822
-0.0329008305
0.006720079048
0.01437942892
-0.07627620836
-0.01516164202
-0.07345272403
0.01626979299
-0.01729983518
0.07448276623
-0.07569502811
0.0771470159
0.01965043068
-0.006687996549
0.006995474177
0.03363678899
0.0332293247
-0.00770582395
-0.007271562869
-0.03358048013
-0.06302501156
0.02107317161
-0.02193253711
0.06388437706
-0.05959580371
0.06025725077
0.02406356981
0.01625553749
-0.03330460455
0.01347241488
0.04231450256
-0.0004613737631
-0.04295540734
0.04271525067
0.01371257155
-0.04203668897
0.0143319995
-0.02867081609
0.02869925032
-2.843422682e-05
0.009380791467
-0.03790134761
-0.0001502599485
0.007182724484
-0.03533659311
-0.00711421679
0.0332663971
-0.03222382518
0.006140152569
0.003010922962
0.03547788117
0.02225824451
-0.0001385948831
-0.00642188878
0.02873472288
-5.458958937e-05
0.03394296034
-0.007397893586
-0.00604131541
0.03507113414
-0.03519117016
0.006161351425
-0.005935258594
0.006130023222
0.03555320937
0.03705438047
-0.006617059592
-0.007538439376
0.04599770855
-0.0003418055219
-0.0390666053
0.03810320229
-0.006575036363
-0.03813600684
-0.004739012296
-0.007510811277
0.006011409166
0.03058310509
-0.03220822368
0.03246123191
-0.007763819515
-0.008212928485
-0.03300134603
0.03503126104
-0.001807829058
-0.0002220859571
-0.03035556838
-0.00234266276
-0.0003031148877
-0.03631125079
-0.003707408899
0.002389795656
-0.03434041489
-0.004360631555
-0.02960380521
-0.0001411664659
-0.02353517228
-0.006543492611
-0.00027690349
-0.02333521981
-0.0001999524668
-0.004287525734
0.00442566973
0.03840624521
0.04137041896
-0.004461984828
0.03845312645
-0.005835046297
-0.03914953241
0.02575866374
-0.0003009631496
-0.03278323552
0.04029742401
-0.007284723928
-0.0002294645592
-0.003844907115
-0.0002987144643
0.03045984058
-0.02928884987
-0.004997100904
0.03270934926
0.03359463704
-0.006179038885
0.01133197967
-0.0005622274584
0.004387493823
-0.01151637442
0.01301354324
0.005630564195
0.005701415478
0.00748319897
-0.03324018748
-0.007342450249
0.04030393255
-0.03254199413
-0.0002787394479
0.02733851778
-0.02071398308
-0.0001453130101
-0.005052684328
-0.0001507920226
-0.006652720355
-0.030096422
0.01528307244
-0.01590715393
0.0307205035
-0.02845549554
0.02909191367
0.01703443198
0.02237751644
-0.02986860702
-0.04523323952
0.04153839749
0.003869839074
-0.0001749970423
-0.05297336635
0.00805473526
-0.0003146084302
-0.04034148842
0.03999159471
0.0004187484098
-6.885470791e-05
0.00136673485
-0.0001698257768
0.000605464926
0.0389471693
-0.0001957046742
-0.04423773998
0.04335630849
0.001486896416
-0.04531275253
0.00192197805
-0.04257634969
0.04193312969
0.001209730037
-0.0005075062665
0.001287465057
-0.0001162152214
-0.0001100602729
0.03755183078
-0.0004392125579
-0.04217679178
0.04300451492
-0.0009377834123
-0.04159032894
-0.0006071459588
-0.04385549802
0.04392266391
-0.003579689749
0.0009772790338
-0.001828262135
-0.0003499852987
0.008928854982
0.04595397546
-1.813792998e-05
-0.04506730883
0.04677935317
0.007216810641
-0.04223975583
0.008329893156
-0.04644556353
0.002928598886
-0.004517798355
0.004851587993
-0.0002391123532
7.10312868e-05
0.03648886826
-8.230136504e-05
-0.04011325917
0.04051182233
-0.000327531876
-0.03970266175
-0.0002659113783
-0.04104915548
-0.0004299992139
-0.0002047884957
-0.0003325446595
-0.0004343293633
-0.04009820064
0.04121109676
-0.0007599572626
-0.0003529388524
4.306197975e-06
-0.0001109121268
-0.04458018562
0.05206088459
-0.007179016624
-0.0003016823412
-0.003230029876
-0.0001390589872
-0.01836362971
-0.0002041783906
0.0197654692
-0.000384136205
-0.007868874386
-0.0002853660154
-0.008846220433
-0.0003177591892
0.03323781217
-0.05138873225
-0.0003292488072
0.03375280689
-0.0005149947189
0.01810159298
0.03872691711
0.0007516991783
-0.03487287917
0.0513116626
0.02228813368
0.02223867794
-0.03285442874
-0.03277476955
0.03220910769
0.0005656618486
0.0185310722
5.820845342e-06
-0.001788017851
-0.0002508926066
-0.02221793911
-0.0003975062651
-0.006192999962
-0.0002395305576
-0.02983044529
-0.007601944714
-0.009201389575
-0.01455598207
-0.03349834289
-0.007754007701
-0.0002500713582
-0.0002630305748
-0.005199392488
-0.0001737398333
-0.0414533839
0.05680567725
0.01487698552
-0.0125410193
0.01380288607
-6.724645787e-05
-0.01108023568
-0.04389444858
0.01099284427
0.0412640326
-0.04296347682
0.05675576986
-0.04542763218
0.007813874835
-0.000287590264
0.01180537714
-0.0004273320653
0.00279435672
0.0335395434
-0.000163180631
-0.03844603182
0.03728246554
0.003957922999
-0.03939624064
0.002089680283
-0.03740352406
0.01023981757
-0.007995149715
0.007874091196
-0.0001979441384
0.0004545228923
0.03773657546
-0.0001491666977
-0.04131203375
0.04070371964
0.001062837002
0.00112042866
-0.04011286708
0.001332563094
-0.0005129053423
0.001103757907
-0.0002412787488
-0.00127349337
0.0001356399232
0.0397347951
-0.03902133088
-0.002281015154
0.04002885267
-0.03810863871
-0.002728343572
-0.03540657404
-0.0003106493778
-0.0002471665915
-0.0003676363018
0.02370038887
-0.0490881965
-0.009500880834
0.02394042944
-0.0002400405719
0.03084295727
-0.0004261633018
-0.00758317455
-0.0002492090167
-0.02461518784
-0.006933927153
-0.0001009398315
-0.02426735323
-0.0003478346139
-0.009575124637
0.03569605314
-0.04204923317
0.03911590844
-0.006641799905
-0.005709362114
-0.03774722188
-0.003918108392
0.007053783602
-0.005685097048
0.04433336492
-0.03646476879
-0.0002575517042
-0.009404564037
0.02151410377
-0.007778008388
0.0218243035
-0.0003101997203
-0.02814230953
0.03134679396
-0.000193561467
-0.0001778534688
0.003046342738
-0.005261194427
0.0320623691
-0.0002813034783
-0.0003549536842
-0.03618511515
-0.006587296567
0.03587705296
0.009315255748
-0.007397168608
0.003671159247
0.04123715814
-0.001610700381
-0.0432460856
0.04193138319
0.004985861661
0.005171655554
-0.04443613471
-0.04118221004
0.007444418723
-0.005087696175
0.005836869323
-0.003195561192
-0.03758630696
-0.0005443036479
1.320058281e-05
-0.002923708549
-0.04526508398
0.005448202215
0.0385827734
-0.04116931862
-0.0003371633352
0.03536843654
-0.0001477156377
0.04647312952
-0.000212470604
0.005577905682
-0.0002740947773
0.007045201829
-0.05532064868
0.009618502494
-0.0002721516365
0.02745238123
-3.953392749e-05
0.02775133841
-0.0002989571816
0.01167383374
0.0001129142571
0.03619730695
-0.0002520641581
-0.03855883961
0.03895265322
-0.0002808993449
-0.03803374719
-0.0005268728065
-0.03927427289
-0.0002127321586
-8.035672752e-05
-0.0002412629454
-7.692634103e-05
-0.007330842005
0.03269047937
-0.0001931748627
-0.03661169722
0.03633144642
-0.007050591204
-0.009423882314
-0.03730056808
-0.001309878371
0.002200397886
-0.003169519553
-0.000231297439
-0.03905286298
0.04687395817
-0.007735177622
-8.591756929e-05
-0.003870549767
-0.0001510521665
-0.006346136651
-0.0001938157646
-0.03365889015
-0.007027661393
-0.009464609996
0.0005385227627
-0.03850639205
-0.001936555501
0.03487675958
-0.03413507274
-0.0002031640734
0.03641209729
-0.00032842266
0.03319395683
-0.000378846992
-0.0006594628217
-0.0002816530941
-0.002203333799
0.00979787851
-0.04057680165
-0.007434048823
0.03474235398
-0.04827969528
0.03541201466
0.04034801545
-0.0002934856059
-0.00772790476
-0.000203775075
-0.006435580655
-0.004105414775
0.0350751019
-0.0002065102976
-0.03507096642
0.03657091167
-0.005605360028
-0.03282815856
-0.005293186646
-0.03620034162
-0.008207408685
0.03474318929
0.007607419147
-0.007236849095
-0.0002573492866
-0.03569232986
0.0434948967
-0.007581675035
-0.0002208918018
-0.004049813895
-0.0002957220054
-0.03171952247
-0.007173659807
0.02114605326
-0.00937067903