/*--------------------------------*- C++ -*----------------------------------*\
| =========                 |                                                 |
| \\      /  F ield         | OpenFOAM: The Open Source CFD Toolbox           |
|  \\    /   O peration     | Version:  v2012                                 |
|   \\  /    A nd           | Website:  www.openfoam.com                      |
|    \\/     M anipulation  |                                                 |
\*---------------------------------------------------------------------------*/
FoamFile
{
    version     2.0;
    format      ascii;
    class       volVectorField;
    location    "0.15";
    object      U;
}
// * * * * * * * * * * * * * * * * * * * * * * * * * * * * * * * * * * * * * //

dimensions      [0 1 -1 0 0 0 0];


internalField   nonuniform List<vector> 
3259
(
(101.6102931 -0.2256760134 7.431483703e-21)
(101.5445614 -0.6823034033 1.172329218e-19)
(101.4175597 -1.156341952 -2.361537726e-19)
(101.2087066 -1.683553842 -4.67207227e-22)
(100.831854 -2.072096809 -1.870542094e-21)
(100.4025958 -2.681784716 0)
(99.87932622 -3.448215413 8.162409647e-21)
(99.0774161 -4.180180415 2.083963965e-18)
(97.93517626 -5.225415987 1.18023015e-18)
(96.45178466 -6.593542865 0)
(94.62236545 -8.512406763 1.608596708e-19)
(92.50710403 -10.70906219 -2.145596167e-18)
(102.0551453 -0.2419297596 0)
(102.0026039 -0.7327020613 0)
(101.9017576 -1.240081689 0)
(101.7350068 -1.801112579 0)
(101.4104061 -2.245946773 0)
(101.0713539 -2.908202002 0)
(100.6845126 -3.727923353 -2.427777686e-19)
(100.0515419 -4.506257659 -1.037594481e-18)
(99.17906827 -5.592305778 1.06962338e-18)
(98.08484863 -6.992925512 0)
(96.82282424 -8.964422866 0)
(95.65118216 -11.65768739 -3.63080524e-19)
(102.5247013 -0.2512672487 0)
(102.4861308 -0.7619037573 0)
(102.4136111 -1.288042525 0)
(102.2905224 -1.859908572 0)
(102.0173807 -2.334488056 0)
(101.7762489 -3.013222685 0)
(101.5190241 -3.821586495 0)
(101.063313 -4.617605726 0)
(100.4470754 -5.661672923 -9.027859503e-19)
(99.70111941 -6.952992019 2.756646156e-20)
(98.98809851 -8.649085847 4.211434986e-19)
(98.83972846 -11.1381161 -7.646773063e-19)
(103.0061225 -0.2540689198 0)
(102.9806458 -0.7705374558 0)
(102.9346318 -1.301297869 0)
(102.8522785 -1.867531497 0)
(102.6273355 -2.35285752 0)
(102.4711576 -3.018803289 0)
(102.316093 -3.783974819 0)
(102.0179929 -4.558021109 7.221096295e-19)
(101.598856 -5.515680279 0)
(101.0996132 -6.613813297 1.659708557e-19)
(100.6819999 -7.904572809 -1.437583574e-19)
(98.52181837 -9.180734357 -7.359484119e-21)
(103.4874648 -0.2512251416 0)
(103.4732636 -0.7613874893 0)
(103.4494543 -1.284451358 0)
(103.4014901 -1.831724597 0)
(103.2200923 -2.312415921 0)
(103.1317785 -2.944563862 0)
(103.0534101 -3.645299973 0)
(102.856046 -4.368349344 1.98814415e-21)
(102.579557 -5.210394723 2.987340233e-19)
(102.2062082 -6.106023327 5.292570107e-19)
(101.854921 -7.026515154 -4.502109646e-19)
(95.83976115 -7.170326908 7.982382219e-19)
(103.9584545 -0.2438009874 0)
(103.9534287 -0.7379009324 0)
(103.946973 -1.243369407 0)
(103.9259127 -1.76145757 0)
(103.7808628 -2.224938143 0)
(103.7420026 -2.810180196 0)
(103.7145355 -3.437448825 0)
(103.5720605 -4.080697912 0)
(103.3607465 -4.797006125 -7.480707149e-20)
(103.0052125 -5.510714174 3.716023671e-19)
(102.6922406 -6.198475953 -3.48859144e-19)
(94.09546648 -5.97987773 -4.787174749e-19)
(104.4111112 -0.2328534207 0)
(104.4131277 -0.7034855731 0)
(104.4192806 -1.183978791 0)
(104.4176281 -1.666386308 0)
(104.3005264 -2.103741345 0)
(104.2936891 -2.635813329 0)
(104.2935386 -3.18882242 0)
(104.1760967 -3.748271118 0)
(103.9734361 -4.334680511 0)
(103.5878464 -4.898571671 -5.032336525e-21)
(103.0742438 -5.398861393 1.186476764e-19)
(95.08305884 -5.383127407 -1.787546112e-19)
(104.8396552 -0.2194120331 0)
(104.846637 -0.6614281682 0)
(104.8609344 -1.111941433 0)
(104.8717545 -1.555499899 0)
(104.7746932 -1.961344718 0)
(104.785064 -2.438591747 0)
(104.7941718 -2.923903569 0)
(104.6806523 -3.402238001 0)
(104.4607947 -3.880766317 0)
(104.036824 -4.322363658 0)
(103.2589102 -4.67312882 0)
(96.07789886 -4.736446508 0)
(105.240287 -0.2044277669 0)
(105.2503489 -0.6147442857 0)
(105.2688414 -1.032331664 0)
(105.2861057 -1.436337196 0)
(105.2024831 -1.808097162 0)
(105.2183738 -2.232357414 0)
(105.2226293 -2.65718151 0)
(105.1010226 -3.062377065 0)
(104.8507162 -3.45377078 0)
(104.3831076 -3.802907804 0)
(103.3458972 -4.054904955 0)
(96.80157599 -4.147193875 0)
(105.6109074 -0.1887077022 0)
(105.6224648 -0.565994305 0)
(105.6419288 -0.9494605276 0)
(105.6606848 -1.314707319 0)
(105.5854888 -1.651982986 0)
(105.5982028 -2.02706864 0)
(105.5880047 -2.397606504 0)
(105.4513922 -2.74006666 0)
(105.1651319 -3.061706184 0)
(104.6535178 -3.341141741 0)
(103.3779263 -3.524216966 0)
(97.37357276 -3.631354227 0)
(105.9508523 -0.1728895431 0)
(105.9626423 -0.517178782 0)
(105.9806412 -0.8667116484 0)
(105.9971059 -1.195007031 0)
(105.9263381 -1.498808326 0)
(105.9300144 -1.829331537 0)
(105.8994376 -2.150438748 0)
(105.7438812 -2.441523194 0)
(105.4208969 -2.707144378 0)
(104.8675311 -2.93341244 0)
(103.379411 -3.067214654 0)
(97.81910057 -3.182230611 0)
(106.2605807 -0.1574548958 0)
(106.2716306 -0.469771971 0)
(106.2864188 -0.7865546556 0)
(106.2978891 -1.080372956 0)
(106.2285368 -1.352556563 0)
(106.2193985 -1.643080621 0)
(106.1659109 -1.92057528 0)
(105.9886815 -2.168958635 0)
(105.630789 -2.389669331 0)
(105.0385302 -2.574757659 0)
(103.3656619 -2.672947201 0)
(98.1620637 -2.791242931 0)
(106.5413355 -0.1427546176 0)
(106.550919 -0.424818981 0)
(106.5613009 -0.7107075374 0)
(106.5659526 -0.9729276129 0)
(106.4957889 -1.215818669 0)
(106.4715565 -1.470781804 0)
(106.3940795 -1.710590569 0)
(106.1944043 -1.923031518 0)
(105.8045296 -2.107549826 0)
(105.1759938 -2.260197956 0)
(103.3461652 -2.332531315 0)
(98.42426462 -2.451267691 0)
(106.7948836 -0.129032636 0)
(106.80248 -0.3830278049 0)
(106.8076855 -0.6403058185 0)
(106.8043694 -0.8739920932 0)
(106.7318237 -1.090129835 0)
(106.6913101 -1.313766387 0)
(106.5897729 -1.521231335 0)
(106.3680198 -1.703275205 0)
(105.9495288 -1.858453046 0)
(105.2869889 -1.98513013 0)
(103.3265319 -2.038603758 0)
(98.62418034 -2.15616927 0)
(107.0233444 -0.1164458322 0)
(107.0285984 -0.3448401504 0)
(107.0281817 -0.5760400723 0)
(107.0162496 -0.7842979395 0)
(106.9402018 -0.9763009931 0)
(106.8829666 -1.172541604 0)
(106.7579526 -1.352359431 0)
(106.5151515 -1.508641208 0)
(106.0713866 -1.639892436 0)
(105.3768843 -1.745510844 0)
(103.3098155 -1.785158836 0)
(98.77673151 -1.900606959 0)
(107.2290644 -0.1050839354 0)
(107.2317466 -0.310495352 0)
(107.2254966 -0.5182687025 0)
(107.204657 -0.7041524546 0)
(107.1243233 -0.8745994799 0)
(107.050416 -1.047046719 0)
(106.9028915 -1.203309154 0)
(106.6404086 -1.337755279 0)
(106.1744064 -1.449396936 0)
(105.4498516 -1.537799807 0)
(103.297437 -1.567305357 0)
(98.89368591 -1.680089384 0)
(107.4144732 -0.09498986749 0)
(107.4144466 -0.2800927176 0)
(107.402314 -0.4671243184 0)
(107.3725175 -0.6335958345 0)
(107.2873441 -0.7849695057 0)
(107.1971155 -0.9369058984 0)
(107.0282357 -1.07317206 0)
(106.747589 -1.189160311 0)
(106.2619603 -1.284696878 0)
(105.5091841 -1.358980669 0)
(103.2898409 -1.381075853 0)
(98.98415428 -1.490977525 0)
(107.5820807 -0.08617299794 0)
(107.5792669 -0.2536343456 0)
(107.5613022 -0.4225858239 0)
(107.5226581 -0.572483619 0)
(107.4321928 -0.7071577173 0)
(107.3261647 -0.8415837393 0)
(107.137035 -0.9608121069 0)
(106.8398983 -1.061437073 0)
(106.336786 -1.143746567 0)
(105.5575433 -1.206457654 0)
(103.2869153 -1.223180111 0)
(99.05515842 -1.330193415 0)
(107.7341929 -0.07862746391 0)
(107.7285669 -0.2310730114 0)
(107.7048847 -0.38453896 0)
(107.6576032 -0.5206293651 0)
(107.5615696 -0.6407960584 0)
(107.4403792 -0.7604669429 0)
(107.2320443 -0.864880425 0)
(106.9199535 -0.9533246532 0)
(106.4011385 -1.024743159 0)
(105.5971024 -1.07800552 0)
(103.2882849 -1.09090513 0)
(99.11201808 -1.195124439 0)
(107.8737405 -0.07232084165 0)
(107.8652538 -0.2123056962 0)
(107.8359506 -0.352808013 0)
(107.780262 -0.4776484387 0)
(107.6780167 -0.5854784929 0)
(107.5423183 -0.6928310713 0)
(107.3161183 -0.7847943643 0)
(106.9899213 -0.8635153419 0)
(106.456919 -0.9260927446 0)
(105.6296571 -0.9717243129 0)
(103.2934931 -0.9819988251 0)
(99.15870887 -1.083502839 0)
(108.0010758 -0.0672726964 0)
(107.9898344 -0.1973263963 0)
(107.9550998 -0.3272624211 0)
(107.891306 -0.4437035218 0)
(107.7838817 -0.5406940905 0)
(107.6342835 -0.6379758847 0)
(107.3917386 -0.7207653878 0)
(107.0518313 -0.7907043999 0)
(106.505817 -0.8464052573 0)
(105.6567238 -0.8860061102 0)
(103.3020439 -0.8945898378 0)
(99.19827007 -0.9934051546 0)
(108.1259501 -0.06331239778 0)
(108.1115748 -0.1857873253 0)
(108.0712029 -0.3075699913 0)
(107.9986744 -0.4165879858 0)
(107.8819319 -0.5062133531 0)
(107.718299 -0.5957130755 0)
(107.4601615 -0.6720060656 0)
(107.1076737 -0.7341579383 0)
(106.5493476 -0.784586564 0)
(105.6796044 -0.8195710144 0)
(103.313415 -0.8272109901 0)
(99.23308021 -0.9233581142 0)
(108.2215852 -0.06095270845 0)
(108.20513 -0.1786473145 0)
(108.1603685 -0.2949241394 0)
(108.08189 -0.4016379671 0)
(107.9719602 -0.4813389569 0)
(107.7961466 -0.565381528 0)
(107.5231447 -0.6374597255 0)
(107.158932 -0.6931769612 0)
(106.5888428 -0.7397665636 0)
(105.6994576 -0.7714225409 0)
(103.3271306 -0.7787815252 0)
(99.26502212 -0.8722828834 0)
(108.3992919 -0.05831785883 0)
(108.3784836 -0.1718633407 0)
(108.3254022 -0.2835105655 0)
(108.2324204 -0.3835446989 0)
(108.0544919 -0.4667345943 0)
(107.866072 -0.5472094152 0)
(107.5797888 -0.617257396 0)
(107.2069712 -0.6671537261 0)
(106.6254895 -0.7112258181 0)
(105.7173911 -0.7408091106 0)
(103.3427623 -0.7486166236 0)
(99.29540776 -0.8395377621 0)
(92.33916309 -10.61330355 -1.428294679e-20)
(95.37526122 -11.52041459 1.27351007e-18)
(94.09366671 -8.310223326 0)
(92.43851042 -10.32246768 6.441453653e-19)
(96.26196096 -8.92624797 0)
(95.36784208 -11.22619367 -1.222686212e-19)
(92.77072296 -10.47721916 1.243384595e-18)
(93.8053831 -11.1841169 -4.848419812e-19)
(91.45646096 -12.70029905 -9.745966199e-19)
(90.61362969 -11.88840664 0)
(98.63071547 -11.15702927 0)
(90.54879026 -11.82990425 4.943578603e-22)
(89.87958845 -11.84718773 2.122571222e-18)
(84.07636139 -11.19697491 0)
(91.55603808 -12.76280984 -1.958694685e-18)
(94.00416924 -11.24968031 9.499911571e-19)
(90.2661196 -12.71847019 -5.863328433e-19)
(40.89053839 -6.720461155 0)
(89.93071585 -11.90343259 -1.087647256e-18)
(90.1728916 -12.65295233 2.320911723e-18)
(81.60981361 -28.68691829 0)
(91.21366272 -12.30787754 -5.54865316e-19)
(92.6857703 -11.79721636 5.564081178e-19)
(93.31787713 -12.05142006 -5.246046514e-19)
(91.94635163 -11.4169847 -5.875962936e-19)
(92.49222381 -11.7042128 1.145861218e-18)
(91.14451607 -12.23873258 5.479128137e-19)
(90.22267777 -11.49106674 2.859779765e-18)
(91.27946195 -11.02476687 6.21405085e-19)
(91.77494506 -11.3190318 0)
(91.11878367 -10.92456092 -6.206196549e-19)
(90.14303511 -11.44178538 -5.672214012e-19)
(89.76414043 -11.49414775 6.003541166e-19)
(89.84493894 -11.54023956 -1.801841806e-18)
(93.54526148 -12.11977364 1.041923939e-18)
(94.24336761 -12.22439847 -2.220861405e-19)
(93.36862144 -13.57886402 -1.670273936e-19)
(93.4095545 -13.96223126 1.07212754e-18)
(86.55568083 -24.99790795 -4.173461475e-19)
(83.89909482 -27.1222011 2.838495806e-20)
(90.45341065 -12.2293668 0)
(73.16834258 -26.53995906 8.143882027e-19)
(83.14958028 -27.25368673 1.501703982e-19)
(74.76596725 -26.73876429 -7.550405636e-19)
(90.51677523 -12.30802614 0)
(82.66263836 -28.72551786 8.647005405e-20)
(87.88670472 -28.20346999 -9.185748914e-20)
(98.48345341 -8.787670903 1.782368951e-20)
(98.20028596 -10.59575849 -7.229033933e-19)
(95.76446318 -11.24454257 9.262691439e-19)
(96.92224503 -11.54088982 8.506722466e-19)
(82.97926315 -9.842648123 -9.267603859e-19)
(81.67366093 -10.78270646 0)
(91.27500736 -12.56364031 9.435258894e-19)
(92.54108115 -12.31207116 0)
(92.86331846 -12.46611382 -8.706684018e-19)
(44.22481704 -7.072738969 -4.89952672e-19)
(67.97630687 -11.4670821 0)
(89.46707818 -11.24368546 -5.46392817e-21)
(89.94497271 -11.69172793 2.433636789e-21)
(93.13220433 -12.99959754 1.315325023e-19)
(94.37791811 -12.28862916 1.136399817e-18)
(94.86577 -12.36364028 4.556963167e-19)
(92.98184404 -12.51221779 -7.036659341e-21)
(93.3837787 -12.61989772 -8.523836984e-19)
(91.98088957 -12.98482604 -9.911422001e-19)
(88.24973939 -27.95572617 1.58850883e-19)
(90.70527799 -12.98114188 3.4347446e-18)
(56.0219145 -19.51606125 1.362567869e-18)
(84.14761296 -20.5280123 -3.87076336e-19)
(86.63500097 -24.54563124 -2.002952276e-18)
(88.95411543 -13.55073563 -1.091812805e-18)
(90.19506918 -12.07662801 2.219188695e-18)
(90.08489381 -12.60972248 0)
(92.14922755 -12.1115785 0)
(92.43531781 -12.26037768 -4.583209948e-19)
(91.29574892 -12.50207871 1.490079228e-18)
(90.94511037 -12.09114337 1.061822477e-18)
(91.79680348 -11.90136793 -1.443090415e-18)
(92.06025428 -12.04636721 4.807687463e-19)
(89.52784766 -11.31069393 -1.158926695e-18)
(90.01484842 -11.68283079 -5.776531678e-19)
(92.13233426 -13.06005408 -1.466505311e-18)
(93.53123692 -12.63539388 -1.609145696e-22)
(93.90685218 -12.57038333 0)
(59.68000619 -19.5144292 -3.10580816e-18)
(57.83990024 -19.64037799 8.559163662e-19)
(90.83053576 -13.10102166 1.142768157e-18)
(61.16191791 -21.61814264 0)
(66.11064801 -22.10865935 0)
(85.54515416 -26.40817336 -4.45474395e-19)
(90.28819982 -12.09446939 1.116738434e-18)
(73.65840129 -26.98733861 2.393687876e-18)
(80.35894291 -27.41361968 0)
(61.66643099 -21.97120165 0)
(79.12239443 -27.32777607 0)
(90.17252343 -12.55255312 -7.959062373e-18)
(91.45482885 -11.69224412 -9.679151709e-19)
(91.71027198 -11.8406397 4.84126564e-19)
(90.86009325 -12.05389938 -1.055820598e-18)
(90.45395048 -11.66655104 -5.939858685e-19)
(91.14518697 -11.48233013 9.855270247e-19)
(91.37532035 -11.62971838 9.741015903e-19)
(88.66134776 -11.74587323 -6.329480647e-19)
(88.65902011 -11.70481319 6.009773024e-19)
(89.85487186 -11.79200276 7.847727404e-19)
(90.38732641 -12.79621462 5.745342009e-19)
(89.9981722 -11.97071536 -1.101142022e-18)
(88.76180993 -11.90964002 1.296840824e-18)
(88.69667317 -11.81107378 1.945371948e-18)
(90.11123671 -12.59043754 5.640072193e-19)
(90.83129918 -11.28302823 0)
(91.06909906 -11.42450614 0)
(90.41822642 -11.63111238 1.091377926e-18)
(89.91138985 -11.26591306 2.23517544e-18)
(90.51789024 -11.06738933 5.13660256e-19)
(90.75210966 -11.22315559 0)
(89.14378243 -11.51325777 -1.244562605e-18)
(89.04698046 -11.46323552 0)
(89.67935807 -11.44134255 0)
(89.91783933 -11.58485454 -6.036768767e-19)
(89.30418695 -11.59083042 0)
(89.23001004 -11.55290344 1.256772964e-18)
(92.21162316 -13.18084472 1.7015888e-18)
(93.21543826 -12.90077977 -3.865106828e-19)
(93.32248752 -12.99443133 7.024866062e-19)
(30.8600985 -11.68026278 0)
(90.64712732 -13.48101758 2.670043908e-19)
(85.90189149 -26.16662398 -1.764039028e-19)
(67.48463331 -22.01613747 2.303502887e-19)
(70.13353943 -21.82395807 1.151282457e-18)
(89.2643169 -12.14298406 2.630842634e-18)
(89.23014071 -12.07267666 2.945841784e-21)
(90.40322187 -12.16320068 0)
(73.77326823 -26.75288368 9.903275108e-20)
(69.07548727 -25.41904677 -2.68984962e-18)
(69.83956486 -25.43467089 4.480829329e-20)
(76.70670821 -27.07886347 -1.493310789e-19)
(90.55915829 -12.38967667 0)
(89.38933535 -12.30789371 2.05488878e-18)
(89.33076943 -12.22842224 1.320410109e-18)
(85.56295893 -28.86534119 0)
(87.66031173 -11.09540555 -2.113376985e-18)
(87.68602444 -11.15937746 0)
(87.947066 -11.57614832 -1.385550396e-17)
(89.88281722 -11.73287681 -2.609280357e-19)
(88.75468653 -11.68273235 -5.515915259e-18)
(88.92023791 -11.66136224 1.161737234e-17)
(93.92165146 -12.55962692 0)
(93.83299452 -12.57050381 -4.215770177e-19)
(83.55530186 -11.4180391 0)
(91.81454762 -12.90808284 0)
(92.55137504 -12.83822664 -4.628155843e-19)
(92.70986069 -12.89299325 9.391100717e-19)
(90.53148064 -12.89497391 -5.796999366e-19)
(56.78593102 -19.94284018 5.265796085e-19)
(56.09015588 -20.01098895 6.426528787e-18)
(46.19889947 -3.113478638 0)
(54.79567468 -15.80841814 1.631686688e-18)
(59.69424421 -19.06844872 1.499153818e-18)
(89.03479042 -12.03502224 -1.289993687e-18)
(88.8832761 -12.00060618 0)
(90.08913353 -12.03680361 0)
(90.07045015 -12.58976648 1.078627819e-18)
(87.93260766 -11.43490768 0)
(88.05645601 -11.48245985 0)
(87.72929077 -11.252925 -1.428675973e-18)
(87.81305774 -11.35614954 0)
(89.37767752 -11.67388643 -1.27468345e-18)
(89.3370753 -11.63107677 -1.29600672e-18)
(89.97008959 -11.6273395 1.202607952e-18)
(88.28276984 -11.56712698 1.856629605e-18)
(88.31667041 -11.57247628 -1.285035311e-18)
(88.1577616 -11.5150449 0)
(88.24140931 -11.54177595 1.432439066e-18)
(92.87677984 -12.93233107 4.656945386e-19)
(93.09251171 -12.98486334 -4.376392383e-19)
(92.41914292 -13.17921179 4.749719058e-19)
(60.65705171 -19.89365876 0)
(49.12724363 -16.92704421 0)
(45.72184606 -15.6742281 0)
(50.21932721 -17.77594747 -2.136737617e-18)
(50.49069671 -17.5453847 2.977619643e-18)
(59.50676236 -19.77285191 0)
(91.1310199 -13.25604384 0)
(62.82373063 -21.70399846 -1.337486964e-19)
(71.67468559 -23.94421125 4.249369968e-19)
(70.41033766 -24.0087987 0)
(90.3538625 -12.11840763 1.125530151e-18)
(89.20420616 -12.03547612 1.937171762e-18)
(89.14981637 -12.02953364 1.28575179e-18)
(74.05808538 -26.99576814 -2.720587083e-18)
(65.4523205 -23.49379933 -6.063782895e-20)
(65.93490252 -23.80253939 3.655986805e-19)
(69.09653091 -23.82849553 -1.864983807e-19)
(67.05379682 -23.57292166 -3.1047529e-19)
(60.84911607 -22.01191649 7.64503497e-19)
(65.15495629 -23.80665723 0)
(77.92621908 -27.31595241 0)
(69.43190585 -25.16185957 1.162066018e-19)
(71.00225384 -25.25958173 0)
(89.07848869 -12.46237086 1.9463e-17)
(89.43786728 -12.35314723 -7.827243421e-19)
(90.6187266 -12.46539095 0)
(98.83925701 -4.072083837 2.777770815e-20)
(97.96622491 -4.815091088 4.829016216e-21)
(97.62730738 -5.093526255 -3.033595195e-19)
(96.47578219 -6.05996362 1.280345942e-18)
(96.04645321 -6.436363035 -6.385906447e-19)
(94.6150886 -7.767026222 -2.729788283e-20)
(99.80696806 -4.444431663 1.045919945e-18)
(99.12943556 -5.235026923 1.105650998e-18)
(98.25410581 -4.940790515 0)
(98.86932998 -5.529073756 -1.08152033e-18)
(97.99839926 -6.542854148 1.421260571e-19)
(96.8540276 -6.21114725 -3.14285178e-19)
(97.67928843 -6.93629234 0)
(96.64000991 -8.349083923 -1.058485216e-18)
(95.11149547 -7.950219007 -2.800100795e-20)
(95.16961821 -8.671053249 -1.499953984e-19)
(94.72858402 -9.438766909 -1.100687481e-18)
(93.82026402 -9.163113533 1.227354969e-18)
(93.04028079 -10.92750214 2.058655647e-18)
(92.670424 -11.51002065 -8.736096815e-21)
(92.12306085 -11.23839624 0)
(100.8138329 -4.607638304 5.551295961e-20)
(100.3228754 -5.384741291 -9.248817115e-19)
(99.42033873 -5.298563974 0)
(100.1366287 -5.668813011 9.063532459e-19)
(99.52925521 -6.629065576 -4.632594952e-19)
(98.37661808 -6.602009335 -1.292893686e-19)
(99.3139689 -6.996611439 -2.649852018e-20)
(98.67557734 -8.279169999 1.778161144e-20)
(97.14888634 -8.398187228 1.047257426e-18)
(97.39398725 -8.95123707 4.770460205e-19)
(97.13811519 -9.539401336 6.632007264e-19)
(96.27558826 -9.739078224 -9.639525434e-19)
(96.0643974 -11.65416229 2.04132081e-21)
(96.00233588 -12.30978933 0)
(95.28645171 -12.2123032 0)
(101.7886758 -4.58743159 -3.704126698e-19)
(101.4528869 -5.311597649 -7.481550124e-19)
(100.6162928 -5.384035789 0)
(101.3242889 -5.56999905 0)
(100.9143648 -6.411199611 1.835131974e-19)
(99.89283131 -6.600001289 -5.452325978e-20)
(100.7758308 -6.71824187 -3.623254889e-19)
(100.401468 -7.737104563 -4.060247945e-20)
(99.14547716 -8.173442001 -7.865927783e-19)
(100.3118805 -8.112484775 4.035648613e-20)
(100.3071633 -9.260758433 0)
(98.86715492 -10.27258233 3.765246305e-20)
(98.83026575 -9.725489073 6.25479299e-19)
(102.65818 -4.426885315 1.232591153e-19)
(102.4425924 -5.073648701 3.041203228e-19)
(101.7154975 -5.265510047 3.785426985e-19)
(102.35348 -5.298062055 -6.157689855e-19)
(102.0607174 -6.001439697 5.739068689e-19)
(101.2253519 -6.322720242 0)
(101.960515 -6.245385963 -7.102696822e-19)
(101.6696879 -6.992934604 2.405825161e-20)
(100.7667579 -7.566843187 0)
(101.5960296 -7.243352587 4.302929374e-19)
(100.741357 -7.977903908 -3.834510951e-19)
(100.6357995 -8.950763566 7.339785566e-21)
(96.62255644 -7.625360795 3.391280846e-19)
(103.4039072 -4.158581012 0)
(103.2531699 -4.718504645 -1.251628936e-19)
(102.6620095 -4.994968086 -1.346580506e-20)
(103.1832947 -4.907978737 3.136005135e-19)
(102.9281951 -5.475817246 0)
(102.3032051 -5.877784587 -1.330161981e-19)
(102.8305382 -5.663058169 1.129913244e-19)
(102.5506383 -6.214184967 0)
(101.9184251 -6.79577155 4.542418612e-19)
(102.5187175 -6.400673527 -6.85474312e-19)
(98.43931271 -6.513155482 4.877267293e-19)
(100.3987073 -7.618486528 2.159924134e-19)
(94.21263928 -6.18421416 -6.352779782e-20)
(104.034999 -3.833758226 0)
(103.9002503 -4.296575275 0)
(103.4286108 -4.616050735 0)
(103.8332982 -4.450661422 0)
(103.5655432 -4.904202192 -2.923731515e-21)
(103.1052718 -5.335098549 -6.401748403e-19)
(103.4559347 -5.050429361 0)
(103.1662976 -5.470395303 -8.928591477e-21)
(102.7293709 -6.024917708 -2.253374918e-20)
(103.0176286 -5.596712942 -8.803233447e-21)
(96.22558529 -5.419426471 2.165987491e-19)
(97.70802131 -6.183026714 5.127461809e-19)
(94.74267299 -5.529508494 -1.165046002e-20)
(104.5629795 -3.488976485 0)
(104.4213832 -3.868708916 0)
(104.041258 -4.188934192 0)
(104.3490609 -3.992201897 0)
(104.0547496 -4.348167775 0)
(103.6998256 -4.761406444 0)
(103.9352947 -4.461317845 0)
(103.558366 -4.77493835 0)
(103.2796974 -5.290243634 8.511279379e-20)
(103.2229488 -4.844366186 0)
(96.01698759 -4.719150547 0)
(96.02944547 -5.227793302 1.758951708e-19)
(95.86999652 -4.893559481 0)
(105.0030195 -3.146321186 0)
(104.8421151 -3.45801572 0)
(104.5350874 -3.763852715 0)
(104.7610821 -3.557439098 0)
(104.4355004 -3.839229073 0)
(104.1589466 -4.216203179 0)
(104.3045795 -3.927271194 0)
(103.8127516 -4.158417926 0)
(103.6327377 -4.612319984 0)
(103.3304349 -4.200599089 0)
(96.24934484 -4.115594643 0)
(96.06805424 -4.561925768 0)
(96.6359927 -4.287654166 0)
(105.3696527 -2.818922013 0)
(105.1834645 -3.075616245 0)
(104.9341641 -3.359492371 0)
(105.092607 -3.15623864 0)
(104.7351981 -3.38188484 0)
(104.5171011 -3.720046725 0)
(104.5918425 -3.451336016 0)
(103.9804449 -3.62450498 0)
(103.8614479 -4.017701723 0)
(103.3735448 -3.649495868 0)
(96.53329821 -3.594219547 0)
(96.31749718 -3.977364005 0)
(97.2433746 -3.75371135 0)
(105.6756129 -2.514094315 0)
(105.4622474 -2.726367112 0)
(105.2584577 -2.985105097 0)
(105.3616971 -2.792259671 0)
(104.9743392 -2.97498755 0)
(104.800003 -3.275540665 0)
(104.8185014 -3.030543231 0)
(104.0902992 -3.16141405 0)
(104.0124709 -3.502507606 0)
(103.3809465 -3.175193607 0)
(96.83138308 -3.148478618 0)
(96.60749091 -3.476256609 0)
(97.71824758 -3.288747848 0)
(105.9314532 -2.234889451 0)
(105.6915388 -2.411355468 0)
(105.5237675 -2.644415356 0)
(105.5820421 -2.465640135 0)
(105.1674955 -2.615184641 0)
(105.0264758 -2.880776351 0)
(104.9992465 -2.660095665 0)
(104.1610849 -2.759474142 0)
(104.1110748 -3.055534098 0)
(103.3699313 -2.766148501 0)
(97.12324717 -2.764845925 0)
(96.90549142 -3.047214902 0)
(98.08469632 -2.883950008 0)
(106.1462325 -1.982286221 0)
(105.8815 -2.129807165 0)
(105.7423727 -2.337886821 0)
(105.7640439 -2.174887418 0)
(105.3249383 -2.298422653 0)
(105.2098745 -2.53212411 0)
(105.1443524 -2.334964334 0)
(104.2056212 -2.41069642 0)
(104.1742773 -2.667581574 0)
(103.3512187 -2.413012427 0)
(97.39793443 -2.432914671 0)
(97.19379711 -2.677354291 0)
(98.36521356 -2.531826349 0)
(106.3273015 -1.756040436 0)
(106.0400328 -1.880043612 0)
(105.9238132 -2.064463523 0)
(105.9156424 -1.917765118 0)
(105.4540941 -2.020567448 0)
(105.3596356 -2.225468003 0)
(105.2614048 -2.050423285 0)
(104.2327257 -2.108283688 0)
(104.2137559 -2.330987647 0)
(103.3312523 -2.108074828 0)
(97.65070778 -2.144962505 0)
(97.46326939 -2.35706426 0)
(98.57916789 -2.226041049 0)
(106.4805853 -1.555222235 0)
(106.1732418 -1.660027432 0)
(106.0755028 -1.822335572 0)
(106.042838 -1.691807388 0)
(105.560508 -1.777828202 0)
(105.4826437 -1.956730905 0)
(105.3561433 -1.802294951 0)
(104.2484197 -1.846552171 0)
(104.2375319 -2.039236697 0)
(103.313622 -1.845009822 0)
(97.88048602 -1.895002965 0)
(97.71029429 -2.079115396 0)
(98.74234063 -1.961052628 0)
(106.6109243 -1.378515351 0)
(106.2858832 -1.467586123 0)
(106.2031696 -1.609416136 0)
(106.1502184 -1.494521733 0)
(105.6484759 -1.566815365 0)
(105.5840834 -1.722223008 0)
(105.4330028 -1.586913615 0)
(104.2568044 -1.620770149 0)
(104.2510733 -1.786901413 0)
(103.3000883 -1.61866649 0)
(98.08826548 -1.678355101 0)
(97.93442391 -1.83787378 0)
(98.86724388 -1.732148291 0)
(106.7223053 -1.224460101 0)
(106.3816993 -1.300610141 0)
(106.311289 -1.423529576 0)
(106.2413628 -1.323570068 0)
(105.7214051 -1.384577614 0)
(105.6680026 -1.518659408 0)
(105.4954744 -1.401125831 0)
(104.2606904 -1.4270291 0)
(104.2581095 -1.569463319 0)
(103.2912905 -1.424859148 0)
(98.2761434 -1.491441189 0)
(98.13700744 -1.628955349 0)
(98.96360424 -1.535488236 0)
(106.8180624 -1.091618942 0)
(106.4636942 -1.157169789 0)
(106.403389 -1.262615235 0)
(106.3191425 -1.176859719 0)
(105.7820533 -1.228584208 0)
(105.7376221 -1.34321057 0)
(105.5463562 -1.242250336 0)
(104.2619951 -1.262088166 0)
(104.2611996 -1.383209038 0)
(103.2872262 -1.260154329 0)
(98.4467037 -1.331427669 0)
(98.32029823 -1.449015363 0)
(99.0389147 -1.367882887 0)
(106.9009692 -0.9786883478 0)
(106.5343319 -1.035525967 0)
(106.4823326 -1.12477944 0)
(106.3859242 -1.052526152 0)
(105.8326988 -1.096634354 0)
(105.7955724 -1.19342194 0)
(105.5879342 -1.107969947 0)
(104.2620115 -1.123218591 0)
(104.2620798 -1.2250232 0)
(103.2875627 -1.121700802 0)
(98.60262761 -1.195982863 0)
(98.48695192 -1.295345683 0)
(99.09889257 -1.226609022 0)
(106.9732682 -0.8843792021 0)
(106.5956527 -0.9341214995 0)
(106.550462 -1.008335678 0)
(106.4436824 -0.9489276203 0)
(105.8752406 -0.9868417603 0)
(105.8440264 -1.067177276 0)
(105.622088 -0.9963094492 0)
(104.2616294 -1.008141015 0)
(104.2619257 -1.092300161 0)
(103.2918554 -1.00714342 0)
(98.7463566 -1.083113637 0)
(98.63960944 -1.165723415 0)
(99.14780953 -1.109322503 0)
(107.0369881 -0.8074119437 0)
(106.6494568 -0.8515552942 0)
(106.6097415 -0.9117643134 0)
(106.4941518 -0.8646138227 0)
(105.911303 -0.8975860518 0)
(105.8848053 -0.9626594128 0)
(105.6503976 -0.9055825623 0)
(104.2614642 -0.9149410854 0)
(104.2615494 -0.9828566356 0)
(103.2996176 -0.9145123528 0)
(98.88003761 -0.9910595967 0)
(98.78063422 -1.05821068 0)
(99.18890834 -1.013998735 0)
(107.0942004 -0.7468483725 0)
(106.6973837 -0.7867066732 0)
(106.66193 -0.8337186401 0)
(106.5388929 -0.7984164262 0)
(105.9422971 -0.8275597022 0)
(105.9194753 -0.8783218156 0)
(105.6742115 -0.8344310329 0)
(104.2619293 -0.8420963097 0)
(104.2615102 -0.8948737606 0)
(103.3103289 -0.8422425736 0)
(99.00554216 -0.9184397021 0)
(98.91210155 -0.9711290675 0)
(99.22471158 -0.939054709 0)
(107.1464667 -0.7020384106 0)
(106.7408525 -0.7387102363 0)
(106.7086174 -0.7731587209 0)
(106.5792796 -0.7494189501 0)
(105.9694792 -0.775730881 0)
(105.9494036 -0.8129315107 0)
(105.6947176 -0.7817893675 0)
(104.2633141 -0.7884438418 0)
(104.2621821 -0.8269220944 0)
(103.323493 -0.7891537883 0)
(99.12451201 -0.8642585411 0)
(99.03582288 -0.9031982902 0)
(99.25722065 -0.8833174035 0)
(107.195198 -0.6723311041 0)
(106.7811344 -0.7068452099 0)
(106.7511739 -0.7292571148 0)
(106.6165538 -0.7168716106 0)
(105.9940281 -0.7412963825 0)
(105.9758166 -0.7655195024 0)
(105.7130374 -0.7468544407 0)
(104.2658964 -0.7532047493 0)
(104.2638405 -0.7779305379 0)
(103.3387247 -0.7544788687 0)
(99.23834056 -0.8278690247 0)
(99.15336808 -0.8535149675 0)
(99.2879902 -0.8459598426 0)
(107.2473047 -0.6563890796 0)
(106.8237397 -0.6896735487 0)
(106.7908131 -0.7013261211 0)
(106.6558436 -0.6992105909 0)
(106.0198786 -0.7223774961 0)
(105.9998664 -0.7353203351 0)
(105.732572 -0.727776301 0)
(104.2711645 -0.7355852982 0)
(104.266754 -0.7472206359 0)
(103.3581587 -0.7379856503 0)
(99.36002757 -0.8071448277 0)
(99.26568544 -0.8216036292 0)
(99.32141434 -0.8240698114 0)
(91.95035686 -11.14482586 -5.820678348e-19)
(91.45206344 -10.85969167 0)
(91.84750201 -10.36983791 -1.673204234e-18)
(95.07802183 -12.17831618 4.516964886e-19)
(94.53686043 -12.09822386 3.746839401e-18)
(94.80250196 -11.46768678 -3.090881743e-18)
(89.23850518 -21.43398379 0)
(93.52933021 -9.045619895 -1.846503706e-18)
(92.69765333 -8.677007867 6.670848022e-19)
(93.57782759 -8.071715305 -1.413399876e-18)
(91.51322359 -9.820488602 -1.738683993e-19)
(92.40957825 -8.939862201 -6.683499407e-19)
(93.25399736 -9.351269787 1.239679736e-18)
(95.95591726 -9.721110589 4.74188826e-19)
(95.04343833 -9.510021812 1.094067186e-18)
(95.72743147 -8.802048631 0)
(94.22700753 -10.95946781 -1.398875515e-19)
(94.82621325 -9.842964696 -3.380723118e-20)
(95.78704133 -10.06627572 4.577000792e-19)
(93.55363451 -9.472285125 -1.239820155e-18)
(94.49585175 -9.771898658 1.686044572e-18)
(93.84303246 -10.8693108 0)
(93.48320775 -11.82433034 -5.208642661e-19)
(92.86362154 -11.59606435 -1.086802445e-18)
(93.22324366 -11.01363999 -1.993601887e-20)
(91.37282831 -12.64889952 9.545005908e-19)
(92.07899396 -12.6106319 -9.046132963e-19)
(92.17950594 -12.66409447 7.280504526e-21)
(91.00713283 -11.83662972 9.967020139e-19)
(91.08522493 -11.89340328 1.001283489e-18)
(90.6875465 -11.94861751 0)
(81.52152729 -8.181606498 -5.68561731e-19)
(82.74323227 -9.712017629 -7.357928066e-19)
(97.35909315 -11.4668548 0)
(70.76856482 -11.18495275 6.845377526e-19)
(76.92371049 -11.54060935 -4.122457604e-20)
(89.83152768 -20.59380339 6.163015597e-19)
(91.12472711 -18.30940719 5.860037752e-19)
(90.50024108 -11.77028658 -1.260301608e-18)
(90.87037319 -11.7202865 5.675722336e-21)
(90.93445022 -11.77885059 9.962977161e-19)
(90.44425926 -11.00440897 -1.030885996e-18)
(89.84438797 -11.20390186 -2.223211375e-18)
(91.69159345 -10.26923747 5.715373156e-19)