/*--------------------------------*- C++ -*----------------------------------*\
| =========                 |                                                 |
| \\      /  F ield         | OpenFOAM: The Open Source CFD Toolbox           |
|  \\    /   O peration     | Version:  v2012                                 |
|   \\  /    A nd           | Website:  www.openfoam.com                      |
|    \\/     M anipulation  |                                                 |
\*---------------------------------------------------------------------------*/
FoamFile
{
    version     2.0;
    format      ascii;
    class       volScalarField;
    location    "0.07";
    object      p;
}
// * * * * * * * * * * * * * * * * * * * * * * * * * * * * * * * * * * * * * //

dimensions      [0 2 -2 0 0 0 0];


internalField   nonuniform List<scalar> 
3259
(
119.8109139
-45.95170019
-204.1575681
-342.5685213
-455.2276129
-541.8904465
-605.5384718
-650.0462639
-687.187372
-704.0701932
-713.8039347
-718.287425
146.3576705
-27.59069936
-194.994395
-340.2900856
-456.8764401
-545.2706745
-615.8245619
-657.4809366
-693.8884231
-708.6654529
-717.2210046
-721.1623103
157.5986688
-39.41389945
-223.8573045
-377.4382351
-493.7231283
-576.5473312
-644.0766437
-678.5204979
-709.2997027
-719.6227547
-725.5648911
-728.221138
179.2474935
-69.43473318
-288.2661691
-450.6809328
-561.9967811
-633.9016945
-687.9055666
-710.2906842
-731.4914102
-735.6997638
-737.7237828
-738.483627
222.6114165
-135.8736555
-413.3360658
-581.1998405
-669.7987644
-714.4346229
-745.3885835
-750.8967804
-757.2383886
-754.0055908
-751.2798496
-749.7728627
317.4421789
-306.1020566
-659.0554375
-787.0905482
-818.274162
-817.4154209
-812.3307115
-795.5282957
-783.4421179
-771.8206585
-763.7805797
-759.845636
633.0858643
-852.652207
-1108.253213
-1076.601612
-1000.915768
-931.4535559
-880.5314375
-838.3560886
-806.6292525
-785.9511989
-772.7595045
-766.5253969
-2406.88751
-1773.904683
-1407.677227
-1182.698895
-1037.336425
-937.1984685
-872.0821077
-820.8508312
-792.9766023
-775.7519755
-767.6044202
-3840.984677
-2286.881355
-1650.566487
-1309.949175
-1107.758341
-969.53487
-888.3432182
-822.4523017
-790.1444476
-770.5311576
-761.200455
-3658.340246
-2320.314718
-1691.148036
-1335.75419
-1121.09676
-968.062677
-882.1920219
-809.1079114
-775.8807818
-755.7891159
-746.1925217
-2793.531893
-1984.019685
-1538.299586
-1256.456094
-1073.469342
-931.2349437
-852.6883037
-780.4479717
-749.9062584
-731.290047
-722.3376385
-1853.158644
-1497.55245
-1273.59385
-1103.767977
-978.0140498
-865.1382378
-802.9776815
-738.2456646
-713.4125328
-697.8440442
-690.2802784
-4091.301317
-2532.332383
-3979.219097
-4165.657087
-3036.772844
-3887.402298
-2017.291862
-2906.560926
-1894.318568
824.6260644
-2198.164939
-669.8790549
-5248.301244
-3090.431432
-3765.44591
-2430.410961
-1903.368121
-5621.133134
-5821.624251
-3734.681948
-2597.194077
-2533.372039
-4213.487809
-4968.805859
-2911.563274
-2258.531797
-2547.82988
-2820.232794
-3413.942889
-1630.932111
-1567.12272
-2103.488562
-5821.206262
-5316.466108
-3649.524106
-5092.55991
-5667.966998
-5013.084473
-5593.806634
-4116.702435
-5467.679116
-4924.884777
-5670.15042
-5492.578918
-4139.502519
-3501.443284
-4158.382875
-3421.187319
-4057.660343
-3430.818542
-4881.363358
-4155.914513
-3545.442544
-2181.559368
-2738.177028
-1590.472225
-1631.14532
-1491.233299
-1582.805453
-6264.119396
-3641.66879
-3368.273289
-1967.977488
-1708.207547
-2131.066356
-2020.300379
-1952.423156
-2233.425938
-2967.667002
-4936.224959
-3422.247677
-2279.19736
-2582.307016
-2393.68601
-2694.720978
-2154.21312
-3346.814538
-2774.154281
-2521.141285
1333.44321
-2657.130321
-627.1788797
1095.639968
-6393.57095
-4601.191613
-6235.165636
-3508.169663
-6057.91501
-4275.730725
-5727.103919
-5743.071508
-4573.70242
-4624.898779
-2989.116031
-3306.44159
-3070.086751
-3282.13377
-2961.616848
-3675.748497
-3329.830241
-3154.804938
-1605.733958
-1865.92336
-1948.355586
-5701.478544
-5675.179529
-5290.760384
-5326.232516
-5230.837894
-4657.712827
-4780.353073
-4434.030679
-4607.545753
-5195.614675
-5620.295177
-4876.531266
-4845.825947
-4811.192654
-4870.128744
-5605.121526
-3771.620585
-3712.067161
-3819.969531
-2914.276359
-2604.016269
-2496.728211
-2625.35664
-2937.705088
-1957.63228
-1519.497099
-4329.411114
-2157.26349
-2303.063258
4293.708491
-2337.294532
-2494.398029
2144.235569
-3094.040351
-562.0254388
1460.967718
-5675.561415
-6302.122483
-6234.186682
-5799.838225
-4366.839164
-4560.213457
-4373.651692
-5229.599294
-5078.83026
-4828.294764
-5785.906057
-6262.126536
-6328.960521
-5511.237288
-4585.753276
-4263.885009
-4816.680417
-4662.22887
-5531.131442
-5139.337969
-5413.618073
-5280.871736
-5491.615609
-4315.601157
-4150.860436
-4010.682012
-3778.879302
-3535.919379
-3770.177986
-4554.311447
-4156.453885
-4368.769198
-3848.670563
-4081.324826
-4505.188254
-2417.545759
-2561.33006
-2270.708902
-1765.097956
-5590.706441
-4233.952941
-5235.285287
-3495.947727
-3552.988831
-1977.697481
-2112.216599
-2133.095016
3528.588068
3987.607254
3323.157217
-2657.994868
-2500.49187
-2449.915289
-2510.119031
-2677.733357
-6559.740892
-5746.565916
-5270.422128
-6141.324856
-5867.182814
-5081.501178
-4380.813412
-5233.345073
-6084.665306
-6017.449577
-5687.312848
-5788.129769
-6203.541938
-6113.527974
-4788.247296
-4618.664877
-4419.363277
-4675.205539
-4856.332159
-4430.839667
-4620.573316
-4906.637843
-4778.505576
-5028.138968
-4842.197508
-3126.085832
-3181.653222
-3149.254376
-3062.22973
-3193.608635
-3528.16805
-3421.479516
-3561.122243
-3237.641036
-3375.255952
-3476.589765
-1823.18052
-1793.110479
-1930.159608
-6256.22499
-6255.332965
-5768.823921
-6397.479445
-6433.069219
-6377.198073
-6321.735441
-6219.707783
-6453.834081
-6335.88418
-5555.20945
-6135.38199
-6251.812356
-5569.645078
-5455.214003
-5179.068332
-5448.164262
-5735.130564
-5600.601427
-3792.403278
-3939.54374
-3608.086007
-3746.896399
-3847.468754
-4200.662028
-4368.59009
-3988.758001
-4149.113797
-2690.239742
-2760.270868
-2828.160603
-2677.647082
-2874.657571
-2802.720438
-1841.893204
-2131.748327
-1683.289967
-1092.020457
-2292.128603
-2344.284894
-1562.643846
-2356.911273
-2078.426412
-1585.573575
-1532.332211
2699.28544
3423.702287
4203.58907
-3194.567695
-431.170425
1933.289654
-1349.008346
-929.9165344
-2605.412155
-4950.773699
-5597.020833
-5881.767282
-1610.845278
-1747.11328
-1766.697398
-2185.383269
-1930.557643
-1870.236478
-5960.765198
-6101.408529
-5516.153387
-1604.911059
-1696.503017
-1709.757602
-1621.012576
-1563.705912
-6147.58883
-3404.22277
-2000.894197
-2063.456404
-2072.167183
-2283.62344
-2144.87866
-2104.149533
-4122.370831
-3590.370799
-4277.499489
-2407.309733
-2466.703013
-2325.756106
-1541.886629
-939.1495328
-3049.897595
-6398.117372
-6078.130035
-5919.147762
-6562.398724
-6525.106875
-3034.146219
-3065.167424
-3018.566771
-3323.11913
-3311.559035
-3283.127781
-2885.913856
-3016.454421
-3098.584615
-3639.557202
-3589.823113
-3636.930611
-1936.862907
-1913.488142
-1948.12421
-3957.434015
-4013.717087
-3682.364941
-3734.444034
-3761.706272
-4067.904317
-4093.896997
-3959.531929
-4099.423359
-3946.08553
-1951.377572
-2195.419706
-2236.615351
-2328.537795
-2282.582758
-2260.045467
4241.663901
4706.94321
4003.063605
-2389.035577
-2415.452509
-2344.962818
-2513.089564
-2462.406415
-2447.912202
-1729.599956
-881.3012373
-3135.704316
-5928.085386
-5922.974859
-5874.664962
-5906.682209
-6278.218226
-6130.36845
-6148.232994
-6093.97241
-6113.210225
-6257.31367
-5183.305007
-5103.331691
-5151.197378
-5000.205311
-5054.332827
-5134.507411
-6312.543619
-6143.794654
-6115.510352
-6163.477209
-6162.971731
-6338.634313
-5367.06975
-5284.866947
-5327.718289
-5198.087912
-5241.79356
-5325.697482
-5824.763728
-5848.321873
-5739.545294
-5785.823645
-1614.851089
-1773.742171
-1763.069122
-1749.994413
-1623.274982
-5833.918316
-6141.330276
-5908.183315
-5029.042971
-4804.882914
-4012.452706
-5582.657572
-5257.05908
-3445.702706
-3584.763906
-2124.651475
-2111.497107
-2125.162851
3731.610737
-2578.603318
-2522.62752
-2625.439528
-6345.456417
-6216.066536
-6477.892589
-6053.859385
-6308.785574
-6384.36324
-6502.480878
-6460.587074
-6053.778314
-5951.573804
-5972.682528
-5927.7699
-5935.873618
-6028.236643
-6169.524
-6044.348047
-6070.625528
-5995.89861
-6019.317149
-6140.797647
-4735.299755
-4660.696344
-4713.62127
-4733.868886
-4798.971274
-4487.941157
-4514.778842
-4474.440925
-4564.318798
-4962.555433
-5006.357928
-4967.10019
-4881.918391
-4942.199517
-4767.634831
-4824.412998
-4902.975019
-3162.911015
-3088.847133
-3073.136516
-3102.471875
-3034.981401
-3085.794417
-3237.702146
-3266.259893
-3211.891848
-3490.160014
-3535.73221
-3566.806642
-6258.804171
-6072.908768
-6063.655009
-6092.561934
-6081.229703
-6261.04638
-6422.225862
-6422.016678
-6306.247374
-6526.686739
-6509.366083
-6477.79031
-6517.655046
-6277.997167
-6443.329944
-6514.70366
-6538.667424
-6381.599371
-5536.755806
-5447.201151
-5483.144429
-5368.030625
-5407.902286
-5494.677644
-5685.741092
-5606.217416
-5681.646208
-5514.914793
-5552.737653
-5639.010421
-3878.068338
-3912.054683
-3818.566056
-3786.811586
-3824.190187
-4250.905376
-4284.865499
-4239.278597
-4408.808486
-4340.980234
-4306.291979
-4036.060698
-4073.660046
-4034.393739
-4191.414096
-4142.202074
-4093.290628
-2779.638738
-2759.884217
-2813.468639
-2663.653961
-2710.527244
-2744.243553
-2940.309295
-2981.643317
-2856.566254
-2873.523637
-2884.735563
-1897.467403
200.2854942
187.7239698
153.8479408
12.33495238
14.50458851
-35.2709129
-171.137335
-155.4956184
-214.1449947
-330.3331645
-306.5759925
-365.2206478
-455.4517319
-430.1245376
-481.6680597
-547.4900142
-524.9910811
228.770916
205.7001098
172.467547
-2.096090749
9.863470073
-59.54073559
-219.7580193
-180.0161732
-267.7353288
-392.5656336
-342.3181161
-427.9479104
-516.9710828
-467.9021391
-541.4539122
-601.3618351
-558.4653943
286.3097472
239.510859
208.6000545
-35.62156772
-8.096625188
-113.8450732
-318.1547013
-238.493246
-374.1376305
-506.9525447
-415.4005221
-541.3964402
-620.054451
-538.0156065
-639.2542421
-681.7049922
-619.1766864
413.5990682
308.8873312
285.9291052
-123.5297175
-49.68202176
-245.4123206
-518.4536078
-355.2482687
-581.3667146
-704.7226479
-547.4398279
-728.2559914
-769.9718762
-653.1410874
-777.3624013
-788.5632741
-705.9649883
738.3836197
467.9008715
582.2852656
-450.1919385
-168.0414644
-645.9927142
-938.4903663
-596.4674285
-973.3486435
-1001.329013
-768.5031453
-996.676616
-966.1989277
-815.0192431
-953.5487739
-915.2323538
-818.9827993
859.1095421
-373.4510944
-21.17277291
-1206.942566
-1235.545786
-983.2641625
-1600.355801
-1386.241302
-1092.431273
-1327.102676
-1180.149796
-1020.125516
-1139.960104
-1040.498776
-947.6401717
-3154.152076
-2591.035096
-2108.219497
-2199.647429
-1719.590648
-1482.278032
-1606.287872
-1350.916996
-1229.826667
-1286.41494
-1134.846112
-1068.390581
-3917.997764
-3203.014666
-3092.289461
-2355.651296
-1828.165675
-1771.88295
-1701.20204
-1412.729572
-1378.353083
-1339.731716
-1168.617883
-1149.766234
-3366.07226
-2896.991479
-3076.236501
-2089.892473
-1693.048177
-1815.07559
-1590.629079
-1348.333728
-1407.848238
-1284.778269
-1131.695241
-1165.849767
-2436.893374
-2203.356092
-2476.350856
-1623.664655
-1406.578203
-1631.097315
-1345.307742
-1189.932051
-1315.639721
-1146.447588
-1036.230994
-1112.482845
-1512.601983
-1509.999685
-1697.371357
-1324.25769
-1141.613708
-1005.985121
-3982.304451
-4436.06505
-4599.039297
-2662.568208
-3070.347216
-2858.574926
-4058.729643
-4447.702427
-4291.467098
-4629.298578
-4675.381255
-4209.630678
-3165.955737
-3383.456045
-3163.230229
-4231.179253
-4036.588423
-3780.948379
-2141.315564
-2200.81977
-2068.835163
-3026.936171
-2884.997122
-2777.298413
-1937.836364
-1807.771329
-1772.043909
3362.35415
4121.955257
4740.230051
1250.788606
105.6238171
1861.677692
-1881.570445
-1886.462266
-2257.766457
-221.5466016
-655.2738219
-1129.794047
-5144.718227
-5339.080005
-5434.014338
-3229.524672
-3750.970384
-3515.971342
-3037.185753
-2716.982975
-3354.325546
-2287.586155
-2542.661096
-2718.22318
-2049.362583
-2316.603842
-2109.333465
-5645.481117
-5785.607846
-5757.950072
-5980.08519
-5969.064938
-5816.295666
-3132.176636
-3193.559089
-3897.032716
-2614.352535
-2918.405706
-2887.051572
-2838.996495
-2904.54081
-2594.324884
-4261.368538
-4319.918516
-4265.568422
-5056.781616
-5009.833743
-4923.166457
-2570.460877
-2814.507113
-3256.85561
-2373.446052
-2591.210243
-2449.348269
-2816.914916
-2715.869074
-2471.534929
-2902.994883
-2954.088369
-2868.153859
-3524.661385
-3387.557334
-3326.937423
-1624.443828
-1673.517874
-1684.446535
-1795.603997
-1846.317737
-1593.826454
-2129.44985
-2049.143617
-2025.638736
-5814.965495
-5982.066934
-5986.156842
-5513.65535
-5585.837099
-5398.496552
-4045.937817
-4361.762967
-3835.626895
-5220.140524
-4908.620413
-4779.232235
-5308.679248
-5277.670543
-5628.721768
-5056.205339
-5145.85046
-5102.18409
-5730.667472
-5700.09211
-5564.738806
-4601.885994
-4492.655839
-4078.602188
-5375.956088
-5083.533981
-5130.745494
-4738.427603
-4812.89674
-5047.674164
-5663.009487
-5335.087727
-5327.672327
-5158.454086
-5187.196694
-5548.418495
-4120.775308
-4670.968426
-4626.929673
-3590.485571
-3708.112533
-3570.515029
-4211.976343
-4158.884071
-4110.072228
-3677.31521
-3456.584433
-3294.274805
-3962.722945
-3871.271409
-3959.832105
-3228.611035
-3458.793112
-3689.71906
-4746.335098
-4579.299852
-4660.432994
-4049.833684
-4141.016879
-4307.042362
-3665.779079
-3966.762225
-3750.835962
-2259.862725
-2290.813757
-2209.985618
-2782.993369
-2699.083765
-2656.943988
-1510.260605
-1575.899232
-3804.757853
-4543.158287
-4210.394423
-1893.383717
-2106.794026
-2318.390399
-1852.937013
-1966.193317
-1797.04589
-2295.262085
-2133.123083
-1994.770022
-2039.958578
-2099.236868
-1964.007992
-2248.613887
-2204.721859
-2192.304979
-3989.970528
-3390.41072
-2700.781054
-4626.941625
-4448.552148
-4744.477324
-3155.536579
-3435.705486
-3913.09916
-2321.065476
-2337.996451
-2292.695668
-2604.666715
-2561.186634
-2538.975664
-2470.868131
-2334.663699
-2267.160774
-2460.779376
-2405.737135
-2567.905676
-2119.304151
-2261.064871
-2384.006113
-3097.830422
-2933.72169
-3154.313128
-2641.512666
-2857.776404
-3016.167935
-2649.121502
-2746.046115
-2608.058392
1861.584171
-2250.064694
-2210.871608
-2695.793865
-57.87721218
-584.6295043
-1251.160429
1360.744052
-229.4944257
173.67593
-5019.806976
-5481.860463
-4878.234514
-4825.688895
-4125.058221
-3376.790052
-5717.404686
-5476.45504
-5855.117227
-3917.401442
-4231.238843
-4849.003525
-5848.655814
-5832.65005
-5712.127319
-5758.859905
-5886.390153
-5867.19321
-4644.001225
-4591.605061
-4522.65591
-4676.29506
-4750.652182
-4696.999518
-3128.201598
-3040.78024
-2986.281491
-3244.507147
-3211.483095
-3254.560336
-2934.892797
-2979.740515
-3006.573394
-3298.892995
-3344.424898
-3376.524284
-3240.587888
-3342.655156
-3208.905637
-1692.258801
-1707.751099
-1618.349608
-1917.888269
-1783.641243
-1778.733276
-5878.943492
-5896.62719
-5727.826898
-5648.425836
-5824.755951
-5855.673537
-5384.324675
-5348.046869
-5255.021483
-5363.724231
-5457.230101
-5419.234386
-5009.640887
-5067.029304
-5339.436356
-4703.687717
-4878.417236
-4828.204565
-4971.778392
-4928.154243
-4744.358733
-4496.024236
-4650.624576
-4582.706702
-4774.064274
-4714.594367
-4553.90243
-5087.110597
-4883.62513
-4949.708379
-5321.796605
-5332.616096
-5653.99189
-4875.007473
-5096.164836
-5092.034518
-5077.549994
-5091.665815
-4865.16954
-4836.426759
-5035.55802
-5009.057506
-5080.056819
-5060.67184
-4856.3531
-5564.375227
-5279.909238
-5303.663116
-3897.547552
-3753.938953
-3641.694439
-3864.327589
-3908.867325
-3860.827417
-2779.061837
-2743.69632
-2841.145251
-2573.551023
-2658.031805
-2736.307313
-2576.25181
-2616.41412
-2534.581891
-2669.258867
-2689.313668
-2646.155196
-2962.219473
-2910.004589
-2888.625127
-1529.711571
-2207.674096
-2224.468946
-2170.753505
2520.388472
3167.28226
2439.62771
3159.548849
2676.404175
3940.386417
3384.554071
-2569.578855
-2520.80595
-3119.642946
-47.75531588
-476.3672971
-1054.168193
1869.145527
-65.44566862
653.3282743
-5806.772715
-5801.939303
-5663.418453
-5808.935845
-5956.751576
-5942.538941
-4430.001757
-4375.114224
-4313.568895
-4498.137072
-4434.845343
-4492.508844
-4319.592669
-4376.394114
-4432.086192
-4876.501738
-4961.768291
-4911.220266
-5948.606385
-5967.586799
-5802.190578
-5105.694019
-5016.908908
-5325.152962
-4494.446169
-4742.327269
-4833.720172
-4505.550963
-4633.31335
-4387.945018
-4776.567571
-5016.387032
-5052.556462
-4909.085865
-4968.993811
-4725.736092
-5612.420364
-5235.570557
-5179.959496
-5230.498895
-5188.748822
-5098.344115
-5531.182289
-5662.251411
-5614.196058
-4257.719089
-4209.25146
-4264.234909
-4104.23713
-4155.867958
-4202.837319
-4057.232384
-4107.191097
-4056.45253
-3697.321547
-3783.73013
-3869.915285
-3613.617551
-3698.569153
-3616.532578
-3864.924601
-3781.403036
-3691.661714
-4409.273046
-4495.458795
-4698.968095
-4229.748372
-4360.010269
-4280.65221
-4511.356687
-4436.963278
-4300.505679
-3927.017628
-4032.83132
-3948.877241
-4199.290897
-4116.462354
-4004.586958
-4357.121017
-4231.633323
-4321.157737
-2453.0531
-2371.744326
-2338.542357
-2432.342457
-2405.54681
-2489.47649
-2239.680983
-2322.567534
-2356.680285
-4765.384524
-5087.720192
-5505.676871
-2025.645431
-2042.469282
-1989.406056
-2122.930453
-2087.391441
-2069.89793
3920.521653
-2609.764555
-2583.898879
-2628.266265
-2486.896241
-2533.246533
-2551.266328
-2494.490574
-2514.895543
-2469.321687
-5606.968027
-5911.027714
-6057.400725
-5558.436666
-5743.505318
-5447.968899
-6167.518722
-6249.873055
-5968.60011
-4871.884614
-5134.398601
-5360.914335
-4604.914665
-4884.213524
-4647.813388
-5594.09657
-5191.778848
-4878.771348
-5698.946769
-5821.792616
-5813.932308
-5925.516271
-5906.142829
-5774.23125
-4549.299528
-4605.741444
-4677.375846
-4471.380001
-4538.597839
-4484.557419
-4858.255039
-4804.40748
-4727.57447
-3119.799261
-3167.192222
-3200.292523
-3105.795315
-3135.871778
-3089.863714
-3224.401615
-3179.95319
-3151.128487
-3468.265883
-3503.145418
-3455.872621
-3597.06882
-3550.666491
-3514.809926
-3283.140074
-3314.603036
-3269.147533
-3408.96618
-3361.423975
-3329.087359
-3423.790909
-3392.22804
-3442.244707
-1813.606948
-1868.676886
-1888.755168
-1839.812863
-1853.597551
-1804.469652
-1940.993151
-1898.052226
-1884.882984
-5750.036045
-5912.630373
-5929.424088
-5742.304697
-5788.385922
-5615.082685
-6184.912233
-5980.354458
-5935.888433
-6047.696051
-6019.389542
-6229.078174
-5217.781382
-5309.982093
-5270.644408
-5558.945406
-5504.032824
-5404.719854
-3838.984035
-3878.875986
-3832.375412
-3983.006113
-3928.353846
-3888.229835
-3655.626778
-3694.028976
-3644.404646
-3784.481929
-3741.706941
-3701.808399
-2785.667699
-2736.457464
-2714.771725
-2844.154991
-2862.223822
-2827.719396
-1944.354992
-1531.572626
-1405.447751
-1468.493822
-1504.160602
-1767.897405
-1055.256388
-1262.970859
-1268.86999
-1629.661158
-1466.182909
-1418.777015
-1851.376891
-1840.318133
-1979.061682
-1569.234651
-1704.150841
-1729.633236
3161.294797
3596.263509
3026.918378
3703.481485
3742.108987
3377.989298
4484.449576
4108.521583
3988.236068
-1870.518227
-1504.48217
-2625.624289
216.9831655
-324.8730888
-1008.710578
1972.78423
758.7466414
1049.243499
-1309.801728
-1461.59538
-1128.406015
-2460.48725
-1870.11125
-1637.207288
-5168.177489
-5255.968901
-5057.194341
-5701.814465
-5464.684796
-5365.447762
-5647.285086
-5558.477186
-5795.329631
-1655.680325
-1663.216553
-1615.854156
-1755.376459
-1708.653047
-1703.198257
-1730.06635
-1718.452142
-1762.630261
-2099.650109
-2074.147215
-2156.943109
-1908.956351
-1991.540288
-2015.060533
-6024.764478
-5793.571477
-5726.526314
-5892.874757
-5847.252592
-6068.64763
-5448.556107
-5642.740056
-5697.3291
-1569.045886
-2240.335143
-2221.660866
-2265.505186
-2129.808931
-2176.027313
-2192.712552
-2146.271717
-2160.405574
-2116.368485
-3962.08144
-4189.861183
-4358.087218
-4529.137254
-4243.684573
-4011.95982
-2425.675206
-2382.437919
-2366.752035
-2423.810598
-2402.615909
-2445.19992
-2309.87086
-2356.193028
-2372.866776
-1411.31248
-1781.189038
-1878.030029
-1418.80474
-1635.50169
-1214.672024
-2725.448195
-2141.825436
-2047.378826
-2928.121655
-2953.849937
-2909.42849
-3044.047633
-2998.237222
-2973.341024
-3051.177249
-3025.146537
-3071.840756
-4006.786047
-3957.388363
-3914.060514
-4047.266122
-4003.030017
-4053.595952
-3903.541056
-3952.831111
-3995.613267
-1485.729751
-1971.3103
-2099.732062
-1436.14698
-1757.388573
-1230.76308
-3120.782347
-2393.450708
-2162.698884
121.0831541
37.03485041
36.95674733
-47.02639254
-128.9666059
-126.8957385
-207.026142
-279.7850179
-276.3627881
-346.3065275
-406.083824
-402.2443399
-458.9892959
-505.2229202
-501.6584829
-545.2584018
-579.695491
-576.4560999
-608.3742768
-632.2366321
-629.8282263
148.4347073
103.6598758
101.929604
-29.38832227
-74.05367214
-71.98446888
-199.5699282
-239.2918747
-234.1355696
-346.1852536
-378.4917125
-372.0126604
-462.7439781
-487.3202204
-480.9826497
-566.1101757
-601.7749077
-588.1792248
-627.9122192
-649.1312307
-638.6773938
-666.4952293
-680.0876806
-673.0806086
161.8253301
110.5525423
108.814602
-44.75891245
-95.01362196
-87.51568859
-235.849372
-278.3719098
-265.3961758
-391.6585032
-424.3175931
-409.8322998
-507.5874152
-530.6612066
-517.1766717
-617.3606035
-643.4990046
-620.2568708
-664.1284406
-680.3299706
-663.1330492
-693.1041204
-702.5670689
-690.8987101
187.3250746
120.1817311
117.24719
-81.43385674
-144.7785823
-128.6766921
-312.4373395
-359.7860251
-334.3106992
-476.7984427
-508.2214439
-482.6623805
-585.2439551
-605.5562264
-583.3933016
-691.9385832
-703.8157675
-671.3871249
-715.1585344
-723.6280512
-700.5659385
-729.7651744
-733.6538669
-717.6206634
239.6186474
137.3782389
132.2136386
-163.5039056
-251.4486704
-216.1838496
-459.9528713
-511.652035
-464.1800832
-625.8872267
-651.3973193
-609.7274534
-703.0035532
-714.5532284
-683.8563561
-790.2171272
-778.9123141
-739.826395
-778.0832229
-776.0619669
-749.0120716
-773.1883303
-770.4225517
-751.763103
357.1558344
156.1766574
153.7117672
-386.3108964
-512.9875217
-422.5251202
-750.1730216
-791.5230701
-707.3878244
-851.5412858
-858.853286
-800.2890969
-861.5112918
-858.7085257
-819.7232111
-903.1311867
-863.2989152
-820.4717515
-846.9524352
-831.5458306
-803.904799
-817.6844481
-806.1521835
-788.5302841
699.6027359
431.6999395
415.8500712
-1259.797
-1241.004614
-1110.944473
-1159.706737
-1130.449157
-1058.635883
-1048.263611
-1023.76851
-982.287418
-1013.47961
-946.355195
-906.1362345
-911.2280917
-881.601683
-857.8310957
-857.2709506
-837.438357
-821.3213502
-2675.157447
-2521.220275
-2294.781135
-1937.591499
-1795.649534
-1662.723665
-1483.100544
-1405.037983
-1341.449091
-1222.227109
-1174.52207
-1140.499677
-1095.366212
-1007.036079
-980.528521
-957.0680604
-916.1956196
-901.4400834
-882.8284606
-856.777855
-847.3042636
-3888.671304
-3611.420489
-3560.477964
-2341.558151
-2131.6791
-2083.846589
-1681.487528
-1573.068906
-1546.479573
-1326.868977
-1264.405828
-1249.841843
-1124.067326
-1030.899877
-1024.333671
-973.3234791
-926.4435167
-924.8124039
-888.4881269
-858.4963868
-858.1366025
-3568.991257
-3373.990407
-3450.097312
-2261.715747
-2079.948543
-2125.321194
-1668.539312
-1565.144102
-1583.590597
-1324.964533
-1262.858532
-1272.149372
-1090.802809
-1009.630286
-1025.915774
-953.8405623
-907.9600599
-920.7778539
-870.3716335
-840.7124707
-850.406663
-2674.75733
-2574.660155
-2683.651639
-1869.168461
-1755.575106
-1852.416781
-1479.043379
-1404.758119
-1455.520176
-1223.491265
-1174.464904
-1203.335735
-1005.249747
-947.372475
-982.9724424
-901.2324442
-862.5016386
-888.305675
-830.0503578
-804.10155
-823.1646632
-1738.022341
-1713.52288
-1814.74113
-1372.170542
-1326.90641
-1436.222332
-1200.317215
-1161.939215
-1226.32561
-1059.216581
-1029.001144
-1068.698044
-904.5538084
-831.5279216
-778.9636293
932.5570186
-3486.44141
-3386.906681
-3660.12056
-3515.771291
-3570.003225
-3799.215473
-2791.295521
-2897.367693
-3028.584047
-1642.617929
-1652.237687
-1573.172855
-5526.30731
-5506.515828
-5657.94458
-5440.230132
-5322.876808
-5348.589698
-4843.613542
-4878.747599
-4966.566311
-5671.309008
-5535.4769
-5523.128007
-5370.984044
-5390.041068
-5514.090488
-3363.507159
-3445.522485
-3515.769292
-4837.524283
-4759.299855
-4796.559188
-1496.31678
-1926.819428
-2028.388345
-2083.788434
-3327.244071
-3176.629048
-2867.999219
-2616.036103
-2574.747202
-2651.861969
-2132.865276
-2202.461484
-2230.537361
-3263.295785
-3201.64369
-3282.064597
-2728.982882
-2806.618794
-2854.301825
1554.807316
1718.647302
1472.057022
1171.557724
799.3486126
779.8867364
-3959.47251
-3769.447872
-3406.362612
-5140.040493
-5166.846531
-5265.785233
-5161.344932
-5072.910208
-5100.48326
-5502.110163
-5504.174456
-5632.202459
-5592.230496
-5477.662006
-5481.93529
-3813.958602
-3767.486666
-3728.502166
-2867.356929
-2843.54404
-2889.289777
-2586.036112
-2627.270631
-2647.852368
-5349.240596
-5312.075971
-5491.417555
-5564.70607
-5418.910915
-5374.785823
-4488.693687
-4530.759091
-4602.787078
-4456.212492
-4394.376033
-4437.448178
-2518.318521
-2501.021755
-2541.69812
-2064.753316
-1837.204499
-1864.295173
-2002.618536
-1986.743734
-2055.386827
-1651.254024
-1679.017128
-1551.377052
-1261.57955
-1550.057316
-1598.652703
-2556.014043
-2247.302593
-2254.929424
-1947.906869
-1969.072271
-1889.421696
-3784.828731
-3998.154346
-3784.947524
-3005.246765
-2666.637343
-2598.710626
195.6237587
191.1032585
107.2651094
105.7663345
150.577653
14.05804504
59.33004966
59.48943198
59.75912127
59.7235672
14.41396272
-81.43697892
-76.75467288
-32.16478313
-164.0975145
-121.5272268
-127.3082285
-113.3206968
-116.6265204
-159.3168912
-254.6571921
-245.7792004
-206.2800773
-320.1542097
-284.4280941
-293.9081645
-271.0148105
-276.4342737
-312.6020222
-397.2384687
-386.5547375
-354.8317341
-444.8108041
-417.1080843
-427.7212682
-402.2787099
-408.3035859
-436.6885624
-505.3243452
-495.1423405
-471.3102673
-538.0144044
-517.7996306
-527.5668175
-504.3293468
-509.7693659
-530.7354684
219.737059
212.1228822
114.7709502
112.5394188
166.7214525
2.776342975
57.61729299
56.26448019
59.29912138
58.55259344
6.698476199
-115.287626
-104.1784021
-51.40417416
-204.0114986
-155.2447887
-168.8828472
-134.6952824
-143.941857
-190.8720048
-312.5178794
-293.9822556
-250.3833118
-372.9498458
-334.9058252
-354.159293
-305.1348435
-318.6526332
-356.3149414
-460.3355917
-440.9919369
-408.3540875
-498.4858343
-471.0883113
-489.9880172
-440.1444714
-454.5535344
-482.1710143
-563.4532375
-545.9973445
-523.4415868
-585.2218418
-566.5753073
-583.3986743
-538.879492
-551.8028989
-570.9066631
267.727884
252.334572
127.6371176
123.6399428
196.990732
-24.44639975
49.2513922
45.49956125
54.45441355
52.13336745
-15.44215413
-187.6141094
-164.1669771
-96.01338193
-286.9933625
-228.0328457
-255.9287499
-185.2213785
-204.7327627
-260.7011059
-423.967475
-389.4619561
-340.8233415
-472.0533375
-433.1097347
-468.0365761
-376.6865167
-402.853197
-441.7593884
-571.3857335
-537.4747688
-506.7241149
-589.5665251
-565.0194194
-597.3877095
-511.6759041
-536.5370109
-562.1744711
-655.5363516
-629.5410967
-611.1026283
-659.2221094
-645.439567
-669.5899616
-602.3424846
-623.1120204
-638.4443808
370.7508526
336.5446863
148.8029845
143.0231357
260.3771425
-91.34903372
24.05405743
9.88344344
40.49230014
33.66741187
-67.68156306
-352.0141396
-295.840845
-198.9808877
-453.887366
-380.854388
-442.6041921
-289.5289607
-330.4639216
-399.885944
-632.823678
-567.7681142
-515.645533
-646.7563069
-611.2876678
-673.630554
-508.5515174
-556.099751
-594.0633576
-746.1738696
-696.6258264
-674.7662061
-727.9227551
-714.0160167
-759.7960812
-633.2588948
-671.9689378
-688.9921868
-782.6095126
-747.5122754
-738.8935824
-759.472018
-754.2371858
-786.2002565
-695.8089512
-724.0737452
-731.9422966
630.5379996
538.5570636
32.42748668
151.1721862
405.8244389
-318.7061597
-98.81115955
-187.5729498
-11.88001289
-45.46404922
-229.9519422
-785.3023101
-631.6258323
-495.2818638
-805.6770992
-733.2678968
-879.7240223
-518.3283906
-613.4326258
-691.5629794
-992.4221035
-886.0903803
-854.5793193
-916.7219609
-905.6584267
-1000.662227
-742.8685822
-819.8438123
-839.0537878
-988.5176524
-921.6805112
-921.479761
-913.4660881
-918.6612975
-978.0589455
-809.278903
-862.2834131
-862.9152561
-940.607374
-899.2177014
-906.8013597
-882.730516
-891.1001945
-927.758373
-819.8350074
-854.9457931
-850.5500401
408.2963489
438.2493494
777.5000921
-206.3228677
97.40377428
-14.08328408
189.6896641
156.2979828
-96.8333702
-1522.296797
-1379.888351
-1425.998749
-1287.53786
-1333.234987
-1451.210467
-1104.556881
-1216.385629
-1188.746482
-1273.300159
-1202.43565
-1243.77536
-1128.00175
-1163.843206
-1224.476897
-1039.556435
-1101.829782
-1074.322036
-1103.530234
-1064.42114
-1094.903877
-1010.734722
-1036.418712
-1070.465521
-964.5018484
-1000.911935
-979.6853884
-2933.794181
-2735.556522
-2925.914027
-2429.063331
-2573.19334
-2748.815206
-2010.483743
-1913.529596
-2082.003244
-1652.59276
-1772.407328
-1852.679666
-1566.747386
-1675.712546
-1572.487672
-1508.858403
-1461.394306
-1550.048506
-1316.582831
-1384.209467
-1424.48155
-1282.492889
-1336.469494
-1275.913612
-1229.62018
-1204.381856
-1257.019313
-1116.050885
-1157.666642
-1179.407591
-1102.578715
-1131.943851
-1093.825728
-3647.937263
-3639.868974
-3911.375188
-3174.792896
-3395.464119
-3410.767991
-3313.359224
-3366.682409
-3154.047934
-2150.713562
-2153.600546
-2363.765856
-1826.834258
-1976.79318
-1976.735373
-1914.503463
-1956.079211
-1807.841577
-1591.4092
-1588.058688
-1698.415738
-1409.502714
-1492.597311
-1495.992123
-1456.563308
-1479.432716
-1398.016798
-1275.636629
-1273.027632
-1336.830639
-1166.797717
-1216.697688
-1218.887394
-1196.794027
-1209.301371
-1160.516405
-3198.004544
-3289.323406
-3470.557042
-2958.647428
-3119.188074
-3040.354699
-3256.375552
-3192.754958
-3030.092934
-1940.558943
-2017.348004
-2183.632337
-1745.609556
-1872.464188