/*--------------------------------*- C++ -*----------------------------------*\
| =========                 |                                                 |
| \\      /  F ield         | OpenFOAM: The Open Source CFD Toolbox           |
|  \\    /   O peration     | Version:  v2012                                 |
|   \\  /    A nd           | Website:  www.openfoam.com                      |
|    \\/     M anipulation  |                                                 |
\*---------------------------------------------------------------------------*/
FoamFile
{
    version     2.0;
    format      ascii;
    class       surfaceScalarField;
    location    "1.87";
    object      meshPhi;
}
// * * * * * * * * * * * * * * * * * * * * * * * * * * * * * * * * * * * * * //

dimensions      [0 3 -1 0 0 0 0];
oriented        oriented;


internalField   nonuniform List<scalar> 
6430
(
0
0
0
0
0
0
0
0
0
0
0
0
0
0
0
0
1.591695693e-05
0
-2.113189216e-05
-6.388256497e-05
-7.331724379e-05
0.0001102015713
0.0003326149781
-0.0001177419828
-0.0005331536004
0.000301206947
0.001311017828
-0.0003047637412
-0.001588671413
0.000316248809
0.00232156927
-0.0003186084682
-0.002500753104
0.0001693014962
0.00272612878
-0.0001701483011
-0.00135914664
-0.001366135335
1.378027521e-05
0.0006779961531
-1.396679254e-05
-0.0006778096358
0
0
0
0
0
0
0
0
0
0
0
0
0
0
0
0
2.34960509e-05
0
-1.93530869e-05
-8.779766201e-05
-8.086602612e-05
0.0001290942882
0.0003953079055
-0.000125223156
-0.0006176768991
0.0003158243817
0.001443433302
-0.000311151766
-0.001732646297
0.0003150535987
0.002474773322
-0.0003140106308
-0.002645842173
0.0001655212401
0.002840658956
-0.0001655212401
-0.001417108452
-0.001423550504
1.219838025e-05
0.001417108452
-2.238439872e-05
1.018601846e-05
-0.000707336975
-0.0007097714772
0
0
0
0
0
0
0
0
0
0
0
0
0
0
0
0
1.206829077e-05
0
-4.430027924e-06
-4.120151104e-05
-2.593705995e-05
9.797710319e-05
0.0002887517409
-8.493908251e-05
-0.0004859480038
0.0002755963625
0.001267670336
-0.0002568755663
-0.001555333872
0.0003020510792
0.002341294564
-0.0002934829674
-0.002545595884
0.0001704318123
0.002908041208
-0.0001737608649
-0.002945537587
2.238439872e-05
0.002954992154
-3.67198002e-05
-0.002954992154
1.433540146e-05
0
0
0
0
0
0
0
0
0
0
0
0
0
0
0
0
1.081523465e-07
0
0
-2.316253449e-07
0
4.202197032e-05
0.000100072773
-2.883410611e-05
-0.0002246447661
0.0001843591774
0.0008264733782
-0.0001566882799
-0.001074783644
0.0002485866082
0.001830089574
-0.0002270441424
-0.002056639595
0.0001716087536
0.002580093851
-0.0001656262511
-0.002695834696
4.019169655e-05
0.00288677876
-4.217329603e-05
-0.002909056032
0
0
0
0
0
0
0
0
0
0
0
0
0
0
0
0
0
0
0
0
0
2.990887138e-06
2.317882314e-07
-4.903655146e-07
-1.742345104e-05
7.513423106e-05
0.0002996901269
-5.176188731e-05
-0.0004559013222
0.0001484019496
0.001013590398
-0.0001202669212
-0.00120492076
0.0001308441905
0.00170960903
-0.0001145119077
-0.001840764784
4.49746166e-05
0.002092751738
-4.360966313e-05
-0.002127422523
0
0
0
0
0
0
0
0
0
0
0
0
0
0
0
0
0
0
0
0
0
0
0
0
0
5.924800003e-06
7.925146618e-06
-9.186191072e-07
-3.672512809e-05
4.476761252e-05
0.0002540610282
-2.607675663e-05
-0.0003532100335
5.973390547e-05
0.0006587418638
-4.241984738e-05
-0.0007483502835
3.068966619e-05
0.0009343801214
-2.421222227e-05
-0.0009621826633
0
0
0
0
0
0
0
0
0
0
0
0
0
0
0
0
0
0
0
0
0
0
0
0
0
0
0
0
0
1.412174762e-07
0
0
-1.333732868e-06
5.765429696e-06
3.642873256e-05
-9.101953783e-07
-5.641791451e-05
5.734828844e-06
0.0001099182218
-1.948594283e-06
-0.0001193826211
0
0
0
0
0
0
0
0
0
0
0
0
0
0
0
0
0
0
0
0
0
0
0
0
0
0
0
0
0
0
0
0
0
0
0
0
0
0
0
0
0
0
0
0
0
0
0
0
0
0
0
0
0
0
0
0
0
0
0
0
0
0
0
0
0
0
0
0
0
0
0
0
0
0
0
0
0
0
0
0
0
0
0
0
0
0
0
0
0
0
0
0
0
0
0
0
0
0
0
0
0
0
0
0
0
0
0
0
0
0
0
0
0
0
0
0
0
0
0
0
0
0
0
0
0
0
0
0
0
0
0
0
0
0
0
0
0
0
0
0
0
0
0
0
0
0
0
0
0
0
0
0
0
0
0
0
0
0
0
0
0
0
0
0
0
0
0
0
0
0
0
0
0
0
0
0
0
0
0
0
0
0
0
0
0
0
0
0
0
0
0
0
0
0
0
0
0
0
0
0
0
0
0
0
0
0
0
0
0
0
0
0
0
0
0
0
0
0
0
0
0
0
0
0
0
0
0
0
0
0
0
0
0
0
0
0
0
0
0
0
0
0
0
0
0
0
0
0
0
0
0
0
0
0
0
0
0
0
0
0
0
0
0
0
0
0
0
0
0
0
0
0
0
0
0
0
0
0
0
0
0
0
0
0
0
0
0
0
0
0
0
0
0
0
0
0
0
0
0
0
0
0
0
0
0
0
0
0
0
0
0
0
0
0
0
0
0
0
0
0
0
0
0
0
0
0
0
0
0
0
0
0
0
0
0
0
0
0
0
0
0
0
0
0
0
0
0
0
0
0
0
0
0
0
0
0
0
0
0
0
0
0
0
0
0
0
0
0
0
0
0
0
0
0
0
0
0
0
0
0
0
0
0
0
0
0
0
0
0
0
0
0
0
0
0
0
0
0
0
0
0
0
0
0
0
0
0
0
0
0
0
0
0
0
0
0
0
0
0
0
0
0
0
0
0
0
0
0
0
0
0
0
0
0
0
0
0
0
0
0
0
0
0
0
0
0
0
0
0
0
0
0
0
0
0
0
0
0
0
0
0
0
0
0
0
0
0
0
0
0
0
0
0
0
0
0
0
0
0
0
0
0
0
0
0
0
0
0
0
0
0
0
0
0
0
0
0
0
0
0
0
0
0
0
0
0
0
0
0
0
0
0
0
0
0
0
0
0
0
0
0
0
0
0
0
0
0
0
0
0
0
0
0
0
0
0
0
0
0
0
0
0
0
0
0
0
0
0
0
0
0
0
0
0
0
0
0
0
0
0
0
0
0
0
0
0
0
0
0
0
0
0
0
0
0
0
0
0
0
0
0
0
0
0
0
0
0
0
0
0
0
0
0
0
0
0
0
0
0
0
0
0
0
0
0
0
0
0
0
0
0
0
0
0
0
0
0
0
0
0
0
0
0
0
0
0
0
0
0
0
0
0
0
0
0
0
0
0
0
0
0
0
0
0
0
0
0
0
0
0
0
0
0
0
0
0
0
0
0
0
0
0
0
0
0
0
0
0
0
0
0
0
0
0
0
0
0
0
0
0
0
0
0
0
0
0
0
0
0
0
0
0
0
0.0006768529584
-0.0006768561311
1.378344787e-05
0.0007062172256
-0.0007062172256
1.219838026e-05
0.002697915066
0.0001695986291
-0.001345561492
-0.001352650707
-3.352554358e-05
-0.0006756408871
3.333607453e-05
0.001352683315
0.002762688329
0.0001639211716
-0.001351085011
-0.001410003249
-3.043534958e-05
-0.0007037860236
3.043534959e-05
0.001410003249
-0.0006811016268
0.001359089204
-3.351696766e-05
-1.376697841e-05
0.0006911334916
-0.0006910702831
1.370376999e-05
5.136772533e-07
-0.0003435567028
-1.386560746e-06
0.0003444295863
-2.199479274e-06
-0.0003370953047
0.0003374940943
1.800689611e-06
0.001466838272
-0.001466838272
2.238439873e-05
-0.0003380588937
-2.458572134e-06
0.0003383179865
2.371747189e-06
-0.0003375235764
-2.907064469e-06
-0.0007121066046
-8.636252911e-08
0.0007088300694
2.58186384e-06
7.810338368e-07
-0.0003439935136
0.0003444815838
2.560708904e-08
0.0006926544979
-1.389677477e-05
-0.0006925247015
3.138978426e-07
-6.093455726e-07
-0.0003436980659
3.885591801e-06
-0.0007121406378
2.970172991e-07
-4.148575904e-06
1.825468253e-06
-0.0003365490257
-3.118903257e-07
-0.0003429309146
0.0003389049942
7.844541525e-06
1.685508225e-06
-0.0003417700483
0.0003422326299
-2.148089792e-06
6.465297207e-06
0.0006854861035
-6.529372673e-06
-0.000685422028
-6.530249152e-06
0.0006910077484
6.210286559e-06
-0.0003450880162
-0.0003455997695
6.297117703e-06
0.0006776967206
-6.480643843e-06
-0.0006775131944
0.0006836508018
-0.0006835914894
6.405984805e-06
-0.0003403637978
1.088857203e-06
0.0003409604489
5.438391121e-07
-0.0003354450589
0.0003357072935
-8.060737457e-07
6.306018322e-06
0.0006722944773
-6.365237314e-06
-0.0006722352583
0.0006768055601
-0.0006768087764
6.300333937e-06
0.0006699577575
-0.0006700242273
6.372488092e-06
-0.0003347478362
2.161398772e-07
0.0003350755355
-2.763530613e-07
-0.0003343400134
-1.31469724e-07
-7.438377487e-07
-0.0003349775742
0.0006923974547
-6.786103712e-06
-0.0003458480163
-0.0003462935838
-3.311574918e-05
0.0007645438973
1.685866395e-05
-0.0003591436184
-0.0003891431937
-0.0003923835328
-1.396532827e-05
5.431259062e-06
0.000400917602
-9.206665981e-05
1.532108823e-05
-0.0003156379612
-2.169169881e-06
2.350600159e-06
0.000347780912
-2.160994712e-06
-0.0003450154623
0.0003456916624
1.484794632e-06
-1.650230669e-06
-0.0003396200821
9.065149223e-07
8.666258042e-05
-2.842193696e-05
0.0002806643507
-0.0003445884788
-3.111839473e-06
0.0003455393236
-0.0003465591292
0.0004345910961
-1.369386529e-06
-2.459821352e-06
-0.0003409604576
5.505409138e-06
1.155204033e-06
-2.109363158e-06
0.0029109995
-0.0029253224
0.0001667622031
-6.892084885e-05
0.002925894992
-0.001459056719
3.848549927e-05
3.043534959e-05
0.001417108452
-3.043534957e-05
-2.238439872e-05
0.001438420761
-0.001438420761
2.238439871e-05
-0.001438420761
1.764721084e-06
-1.764721065e-06
0.001438420761
-0.0007099629637
0.0007086481149
1.228486241e-06
-0.0003482043355
-8.830356252e-07
0.0003473644573
1.72291387e-06
1.204737164e-06
0.0003457935971
-9.522767498e-07
-0.0003460460575
-1.013691207e-06
0.0003454738095
-0.0003452834373
8.233190394e-07
3.896604093e-06
-0.000709973976
9.814620562e-06
-0.001438420761
-9.814620543e-06
1.477807056e-06
0.0003319887509
-0.0003315849711
-1.881586839e-06
2.398914228e-07
0.0003402006656
1.785716869e-06
-0.0003422262739
-0.0004725387241
0.0003853370092
7.323638666e-05
0.0006545736519
-4.152480422e-06
-0.0003627621453
-0.0003207747754
0.0007062185752
-4.805955483e-06
-0.0007055623197
4.149699916e-06
0.0003456613777
-1.268735574e-06
-0.0003454063333
-1.77829423e-06
0.000347760951
-0.0003476985774
1.715920654e-06
-0.0003461587898
-1.894590672e-06
1.214167177e-06
0.0003468392133
1.323333834e-07
-1.444820578e-06
1.275887775e-06
-0.000345989857
8.070250168e-05
-0.0003427435573
-1.486668263e-05
0.0002769077382
-0.0007062253157
1.060246152e-05
-1.126809164e-05
0.0007068909458
0.0003380559944
-1.17112856e-06
-0.0005646053839
4.244504632e-07
0.0003402389522
-0.0003397519094
-9.114932869e-07
-8.278071357e-05
2.34842518e-05
-0.0002889078738
1.961719531e-06
0.000342427048
-1.898232382e-06
-0.0003424905351
0.0003439409148
-0.00034438175
1.645572328e-06
-0.0003482925352
1.195978616e-06
0.000346213521
-0.0003406203386
-3.889468019e-07
0.0003410919894
-8.270397234e-08
1.522573392e-06
0.0003417367307
-1.583776842e-06
-0.0003416755273
0.0003416684173
-0.0003414788695
1.772171804e-06
0.0003321171094
1.071756294e-06
-0.0003317110587
0.0003391646367
-0.0003401209286
1.196183318e-06
-0.0003470727849
0.0003480643095
-2.886115245e-06
0.0003483200418
-1.708111588e-06
-0.0003483902244
2.523762849e-06
0.0003887183225
-0.000391183234
-5.885131215e-08
-0.0003324390333
5.905687828e-05
-2.038181811e-05
0.0002937639731
-0.0003475807892
0.0004329352496
-4.651958719e-06
-3.050354563e-06
-0.0003454672509
-1.599710026e-05
8.087501251e-05
-0.0003446029833
0.0002797250711
2.153438688e-06
-0.0003452496779
3.526819719e-07
-1.502127568e-06
-0.0003464021009
1.053514502e-06
0.000346850714
1.864165904e-09
-0.0003401977523
-4.628528871e-05
0.0004756654782
-3.557855774e-06
-0.0003455711574
0.0003455849539
3.544059344e-06
-0.0003408138504
4.407380206e-05
0.0002807429481
-0.0003456193369
-5.147236181e-06
0.0003472087173
-0.0004344872677
3.414018894e-06
1.087752973e-06
0.0003380624056
-1.209781854e-06
-0.0003379403767
0.0003414197208
-0.0003413566642
1.459516781e-06
-9.239287174e-07
0.0003407739341
-1.260174244e-07
0.0003389453784
1.381304584e-06
1.39987052e-06
0.0003377935221
-1.275086254e-06
-0.0003379183064
0.0003383799935
-0.000338441751
1.149510524e-06
-4.550510078e-06
1.708046276e-06
-0.0003346811126
0.0003391109272
-2.430609922e-05
-0.0003193553381
-2.955525011e-06
0.0003391593877
-1.167548509e-06
0.0003443010383
-0.0003437428353
-0.0003371005923
1.463609413e-06
0.0003374624511
-7.169397438e-07
3.543699815e-07
-0.0003367380225
-0.0003355579192
-3.64653395e-06
0.0003443543699
-0.0003410197263
1.648654313e-06
0.0003358977235
-1.648444458e-06
-0.0003358979333
0.0003372881809
-0.0003374744093
1.586098889e-06
7.325402294e-07
0.0003383060791
-8.292717255e-07
0.0003324439734
5.024077607e-07
1.404166665e-06
0.0003328195489
-1.464684959e-06
-0.0003327590306
0.0003354538309
-0.000335392255
1.587078395e-06
-4.670433645e-07
-1.830037955e-08
-0.0003338546697
0.0003335840219
-0.0003331619907
-8.890745561e-07
0.0003340545349
-6.019827958e-07
-0.0003358786244
-1.14003395e-06
0.0003362748206
5.68882764e-07
-1.310787131e-06
-0.00033513672
-0.0003344269918
0.0003638769891
-0.0003620235084
3.577778338e-06
1.003479125e-07
1.668016858e-06
0.0003621086244
5.597488021e-06
0.0003954204618
-0.0003585037629
-4.174842558e-05
0.0004002521885
3.897863744e-06
-0.0003506002839
0.0003458005486
-1.412231981e-06
1.411876927e-06
-0.0003468392274
6.649358359e-06
-0.000333921472
-5.166919649e-06
2.905130526e-07
-1.098331073e-06
-0.0003388122641
0.0003396883542
-6.488278114e-08
-0.0003393329584
4.203755213e-07
0.0003401744936
3.046835171e-06
0.00029518966
-4.169406121e-05
0.0004762851573
-0.0003391414747
1.841820059e-05
0.0002790292129
3.807556401e-06
-0.0003443184176
-0.0003427182937
-3.257224068e-06
0.0003435156964
1.729953362e-06
-6.292530364e-06
-0.0003381557167
-0.0003403288353
4.640896977e-06
-6.045937844e-06
1.632863723e-06
0.0003315987634
-0.0003314969745
1.287100966e-06
0.0003312306575
-0.0003308848947
0.0004272782707
3.638628293e-05
-0.0004636645536
-0.0003412416989
0.0003400718907
-8.29237116e-05
-0.0002826240865
2.128285179e-06
0.0003682437151
2.858729611e-06
-0.0003685786819
-2.920948503e-06
0.0003512293702
-0.0003518740492
3.565627539e-06
-0.0003661348974
-9.93622084e-06
1.903358635e-05
0.0003570375318
0.0003461361329
-0.0003454515685
5.29602805e-07
-1.023654394e-06
4.224664034e-07
0.0003467373208
-1.621358175e-06
0.0003474369171
-0.0003453432292
4.56455333e-05
-0.0003405509872
0.0002800387713
-0.0004372778463
0.0004829233796
-8.895716423e-06
-0.0003891397798
3.190059891e-05
1.30540185e-05
-0.000358512733
-1.895888583e-05
0.0003644176003
-0.0003073442842
0.000369826699
-3.425536561e-06
-1.823022729e-07
1.416215349e-07
-0.0003397112287
0.0003384848159
-0.0003383127482
0.000339036932
0.0003462076265
-0.0003263699086
5.409596283e-07
-6.452913962e-07
-0.0003330576589
3.738053401e-07
-0.0003336875154
9.363914244e-07
0.0003313539133
-0.0003310032037
0.0003321000581
-0.0003318089581
2.105373913e-06
-0.0003400980174
0.0003374367306
-0.0003366421438
0.0003374928799
-5.367712268e-06
4.875536627e-07
-0.0003317619852
-0.0003090794467
7.686951018e-08
-0.000334130056
-0.0003345722968
-1.950135422e-06
0.0003483930867
-0.0003524132242
0.0003521311056
-0.0003517215611
0.0003237609598
4.441404939e-07
-0.0003445869184
6.933399174e-05
-1.144456425e-05
0.0002658715323
4.59420192e-06
-4.613491469e-05
0.0004790701643
-0.0003341254286
0.0002765459497
-0.0003383332468
-0.0003508740519
-0.0003494911207
-6.911713086e-06
-9.085152135e-07
-0.000348430567
-1.520384452e-07
-2.126666051e-08
-0.0003454902319
-0.0003400713915
0.0003404936312
-1.029090897e-07
-0.0003400333652
-0.0003401590399
0.000285955517
-1.662873544e-05
8.222477935e-05
-0.00034231858
0.0002767225361
4.327575862e-05
-0.0003400680897
0.0002801635957
4.976801151e-06
-0.0003458119182
0.000434241409
-0.0003470398285
0.0004783152111
-0.0004349643427
0.0004782401013
0.000341911519
-0.0003432511988
8.375784962e-05
0.00027657187
-3.997775807e-06
3.865427452e-05
-0.0004731415422
0.0003455891927
-0.0003132274486
0.0003457459875
0.0003176304146
-0.0005154034984
0.0001101755563
-0.001284127411
-0.000263638403
0.0002605983727
0.001005235386
-0.001559843585
0.0002992434024
-0.002289619517
-0.0003344158376
0.0003333423108
0.002073295488
-0.00246647967
0.0003155645128
-0.0002054769905
0.0002060665461
0.002674735881
0.000380854199
-0.0005952420888
0.0001265757182
-0.001393862052
-0.0002800258123
0.0002782223969
0.001112494604
0.00102462586
-0.0002674741741
-0.001674867488
0.0003146675353
-0.002400806468
-0.0003369861514
0.0003380004199
0.002189239491
0.002104807672
-0.0003342121734
-0.002569604273
0.0003166333367
-0.0001994304647
0.0002004737627
0.002752126955
0.002705915939
-0.0002048752681
-0.0001778556288
0.002763011366
-0.001373256724
-0.001382047314
-6.473494408e-05
-0.00138171661
6.472995743e-05
0.001381721597
6.472085931e-05
-0.001359081659
0.001359084243
-6.472344326e-05
-1.377069908e-05
0.0006838313706
-0.0006837687559
1.370808438e-05
-8.290662621e-06
8.230464958e-06
0.0006837109995
8.181344758e-06
0.0006776918299
-8.176454151e-06
0.0003276620306
-0.0005355191344
0.000109340866
-0.001339438838
-0.0002383161973
0.0002540622763
0.001052282325
0.001153072958
-0.00027508108
-0.00162999712
0.0002909793942
-0.002406863483
-0.0003151043988
0.000324202338
0.002174351201
0.002259364362
-0.0003348016194
-0.002601357878
0.0003079851258
-0.0002091896513
0.0002064733087
0.002855137395
0.002829745296
-0.0002005770146
-0.002869736319
-0.0001655415828
0.002869699713
-0.0001333180838
-0.001438420761
7.068248672e-05
6.263559708e-05
-0.001431315558
6.263559707e-05
-0.001417108452
0.001417108452
-6.263559707e-05
-2.238439873e-05
0.001423550504
-0.0007108879264
-0.0007126625775
-6.161119254e-06
-0.0007126625775
6.161119251e-06
0.0007126625775
6.161569144e-06
-0.0007073374249
0.000707336975
-6.161119256e-06
0.0001468719857
-0.0002938444289
5.6266249e-05
-0.0009546277103
-0.0001490238303
0.0001741751405
0.0007064498707
0.0009858912819
-0.0002194448528
-0.001217504308
0.0002107445082
-0.001993868068
-0.0002470711306
0.0002689769284
0.001746586611
0.002102524758
-0.0003030046275
-0.002219070188
0.0002669138354
-0.002715695973
-0.0002000540299
0.0002064119217
0.00258243641
0.00283051763
-0.0002105224058
-0.002817199401
0.000174781611
-0.002967521211
-7.351000114e-05
7.196864043e-05
0.00293829778
0.002954992154
-6.892084888e-05
-0.002982396923
3.832168589e-05
6.705963166e-06
-5.070467609e-05
8.633626913e-06
-0.0004232467479
-5.122141283e-05
7.336555985e-05
0.0002645474006
0.0005958443675
-0.0001232246727
-0.0006071335003
0.0001010895277
-0.001230941376
-0.0001371039566
0.0001664382086
0.001018898756
0.001585719983
-0.0002222683505
-0.001437316346
0.0001762148592
-0.001965993664
-0.000143987069
0.0001621640432
0.001809280339
0.002434634271
-0.0001905159166
-0.002099400519
0.0001450738555
-0.002350004325
-6.927676717e-05
7.244934312e-05
0.002291596055
0.002846007673
-7.42981929e-05
-0.002383713903
4.497064221e-05
0
0
0
-4.009941642e-05
-1.266495262e-06
6.603666602e-06
7.680204182e-06
0.000170414627
-3.218558789e-05
-0.0001018674866
1.640931878e-05
-0.000411836785
-3.488971626e-05
5.603216069e-05
0.0002933692881
0.0008202705524
-0.0001081943607
-0.0005376809126
6.73594259e-05
-0.0009054633928
-6.055102353e-05
8.123843985e-05
0.0007894099246
0.001557668234
-0.0001239024431
-0.001009501835
7.813611647e-05
-0.001221030682
-4.079629304e-05
4.98485211e-05
0.001169423091
0.002033236752
-6.440025916e-05
-0.001251960021
3.633337697e-05
0
0
0
0
0
0
0
0
0
0
0
-7.859606601e-06
0
9.864040496e-07
5.210178397e-07
0.0001647416172
-1.825787798e-05
-2.36894416e-05
3.342077854e-06
-0.000121634477
-4.231992052e-06
1.273193613e-05
8.402256836e-05
0.0005602913887
-4.162813446e-05
-0.0001596370068
1.466271095e-05
-0.0002484894723
-6.726322119e-06
1.352325059e-05
0.0002253270428
0.0008884745359
-3.126529667e-05
-0.0002630847975
1.10925826e-05
0
0
0
0
0
0
0
0
0
0
0
0
0
0
0
0
0
0
0
0
0
0
0
1.956697724e-05
-3.197371938e-07
0
0
0
0
0
0
9.526938283e-05
-2.117302747e-06
0
0
0
0
0
0
0
0
0
0
0
0
0
0
0
0
0
0
0
0
0
0
0
0
0
0
0
0
0
0
0
0
0
0
0
0
0
0
0
0
0
0
0
0
0
0
0
0
0
0
0
0
0
0
0
0
0
0
0
0
0
0
0
0
0
0
0
0
0
0
0
0
0
0
0
0
0
0
0
0
0
0
0
0
0
0
0
0
0
0
0
0
0
0
0
0
0
0
0
0
0
0
0
0
0
0
0
0
0
0
0
0
0
0
0
0
0
0
0
0
0
0
0
0
0
0
0
0
0
0
0
0
0
0
0
0
0
0
0
0
0
0
0
0
0
0
0
0
0
0
0
0
0
0
0
0
0
0
0
0
0
0
0
0
0
0
0
0
0
0
0
0
0
0
0
0
0
0
0
0
0
0
0
0
0
0
0
0
0
0
0
0
0
0
0
0
0
0
0
0
0
0
0
0
0
0
0
0
0
0
0
0
0
0
0
0
0
0
0
0
0
0
0
0
0
0
0
0
0
0
0
0
0
0
0
0
0
0
0
0
0
0
0
0
0
0
0
0
0
0
0
0
0
0
0
0
0
0
0
0
0
0
0
0
0
0
0
0
0
0
0
0
0
0
0
0
0
0
0
0
0
0
0
0
0
0
0
0
0
0
0
0
0
0
0
0
0
0
0
0
0
0
0
0
0
0
0
0
0
0
0
0
0
0
0
0
0
0
0
0
0
0
0
0
0
0
0
0
0
0
0
0
0
0
0
0
0
0
0
0
0
0
0
0
0
0
0
0
0
0
0
0
0
0
0
0
0
0
0
0
0
0
0
0
0
0
0
0
0
0
0
0
0
0
0
0
0
0
0
0
0
0
0
0
0
0
0
0
0
0
0
0
0
0
0
0
0
0
0
0
0
0
0
0
0
0
0
0
0
0
0
0
0
0
0
0
0
0
0
0
0
0
0
0
0
0
0
0
0
0
0
0
0
0
0
0
0
0
0
0
0
0
0
0
0
0
0
0
0
0
0
0
0
0
0
0
0
0
0
0
0
0
0
0
0
0
0
0
0
0
0
0
0
0
0
0
0
0
0
0
0
0
0
0
0
0
0
0
0
0
0
0
0
0
0
0
0
0
0
0
0
0
0
0
0
0
0
0
0
0
0
0
0
0
0
0
0
0
0
0
0
0
0
0
0
0
0
0
0
0
0
0
0
0
0
0
0
0
0
0
0
0
0
0
0
0
0
0
0
0
0
0
0
0
0
0
0
0
0
0
0
0
0
0
0
0
0
0
0
0
0
0
0
0
0
0
0
0
0
0
0
0
0
0
0
0
0
0
0
0
0
0
0
8.122622075e-06
0.0006768642828
8.195498962e-06
0.0006722278038
-8.128825469e-06
1.385711121e-05
0.0006721531947
-1.379176728e-05
-0.0006722185387
6.162293203e-06
0.0007062178512
8.447292617e-06
0.0006522907257
-6.16436645e-06
1.544586457e-05
0.0006495546954
-1.219838026e-05
-0.0006528021797
1.261185525e-05
-1.261655301e-05
-0.001352717328
6.478973095e-05
0.001352648457
-0.001330960491
0.001330954865
-6.472814294e-05
0.002668883326
-0.001330948675
-0.001337939338
-0.0006659566754
0.001330991294
-3.331384899e-05
-5.689921788e-05
-0.001330965607
-5.682515292e-05
-0.001352722647
5.68304721e-05
-0.001410003249
6.263559708e-05
0.001410003249
-0.001397577963
0.001397644791
-6.48017721e-05
0.002830547392
-0.001399919483
-0.001444562366
3.364113451e-05
-0.0006960373884
0.001397890503
-4.283975077e-05
5.68307264e-05
-5.657650952e-05
-0.00139783218
-5.458544738e-05
-0.001410003249
5.458544739e-05
-5.682491398e-05
-0.001359081898
-0.001381713056
5.682717237e-05
-0.0006901864851
3.318974561e-05
0.001381771366
-8.287234719e-06
8.224688284e-06
0.0006910702948
0.0006854848094
-8.289368546e-06
0.000685479211
-1.376908256e-05
-0.0006854808275
0.0003447019116
-1.734102381e-06
1.178503491e-06
-1.377094704e-06
0.0003449005028
6.485596981e-07
0.0003449595301
8.722467372e-07
-1.130232881e-06
0.0003377520805
-0.0003378679936
0.0003381298633
6.103771088e-07
1.395147116e-06
-0.001466838272
1.764721074e-06
-1.764721069e-06
0.001466838272
-0.001445525964
0.001445525964
1.764721071e-06
0.001445525964
-2.238439871e-05
-0.001445525964
9.814620534e-06
-0.001445525964
9.814620537e-06
-0.001466838272
-9.814620556e-06
0.0007079981105
1.195252907e-05
0.000712662673
-1.195102824e-05
0.0003389510367
-2.250221058e-06
1.255468672e-06
-1.056510946e-06
0.0003387520789
0.0003384432223
0.0003326894403
-0.0003326280077
1.342734059e-06
-1.092497724e-06
0.0003322519769
0.0006700006136
-0.0006700059469
1.386244455e-05
8.138039829e-06
0.0006700152167
-0.0003647035619
0.0003594782128
-4.710871783e-06
0.0003523246914
-2.272409031e-06
-0.0003529732309
0.0007068717532
-1.436154483e-06
1.621790826e-06
1.772679872e-06
1.141514457e-07
0.0003450159921
-0.0003448562482
0.000345392866
0.0007595014051
-0.0007607049823
1.664944179e-05
8.568930983e-06
0.000764422259
0.0006924613638
-8.351143858e-06
-0.0007088666343
7.882052352e-06
-4.657981477e-06
-6.498074299e-06
-0.0003563093051
0.0003622184048
7.144918785e-06
-1.633404185e-06
-0.0003719658741
-1.804041797e-06
1.609919865e-06
0.0003424267518
-0.0003436391139
0.0003434396569
-1.6045848e-06
-2.27150727e-06
-0.0006868763709
-6.786792848e-06
0.0006871337911
4.851682359e-06
-1.938898098e-06
-0.0003431737247
-2.674515702e-06
4.912773727e-06
-0.0003430560714
-1.815214459e-06
1.753309448e-06
0.0003455357145
0.000345607068
-1.752368996e-06
0.0006904453697
-0.0003454784399
-0.0003455434361
-0.0006813107877
-6.411532488e-06
0.0006812416763
4.989709371e-06
-4.668280367e-06
-0.0003402124959
4.048397953e-06
-0.0003385094774
4.408528439e-06
-0.0003414188269
0.0006831521899
-0.0003416752111
0.0006831466422
0.0003407091781
5.541727364e-07
-1.283482205e-06
9.553397837e-07
0.0003410373205
0.0003412868865
-9.50511513e-07
8.847571998e-07
0.0003357730479
-0.0003364035626
0.0003364657043
-1.012653148e-06
-9.348158345e-07
-0.0006740713793
-6.360390666e-06
0.0006740665327
4.551435553e-06
-4.489451024e-06
-0.0003368451829
4.61652417e-06
-0.0003364026235
4.240540692e-06
-0.0003386209256
0.0006757229519
-0.0003381783402
0.0006756628952
-0.0006657351464
-6.253918007e-06
0.000665854389
-4.251544825e-06
-0.0003328647741
4.744724888e-06
-0.0003346985971
0.0006670716762
-0.0003337589473
0.0006671902463
0.0003344451594
-1.744845825e-07
-6.305746984e-07
5.007096974e-07
0.0003345750244
0.000335329718
-7.236439412e-06
0.0006957166959
-0.0003474452588
-0.0003478211014
-2.253743664e-06
2.191906915e-06
0.0003478227878
0.0003458509215
-2.004758264e-06
8.457416717e-08
1.136185164e-06
0.0003874975631
0.0003482497488
-2.183450645e-06
0.0007086247272
-0.0003482450251
-0.0003507574776
0.0003412629589
1.70221394e-06
-2.405381165e-07
-3.383804155e-07
0.0003418418774
0.0003349962912
1.254408265e-05
2.359576577e-06
-2.158146117e-06
-0.0003471642526
1.093262131e-06
8.539552648e-08
-0.0003457648535
0.0003459662335
-4.128222294e-06
-0.0003449498507
2.430740776e-06
-3.504335808e-06
5.727937116e-06
3.430818677e-06
0.0001333180838
-0.002925894992
-0.0001335802639
0.002898157131
-0.002898157131
0.00289581246
3.043534958e-05
0.001445525964
-3.043534958e-05
-0.0001011188901
5.458544737e-05
-0.001445525964
-0.001452631167
4.653344271e-05
-0.0001011188901
-5.458544739e-05
-0.001417108452
-0.001438420761
5.458544738e-05
3.043534957e-05
0.001438420761
1.433540147e-05
-0.001438420761
-1.433540146e-05
0.001431315558
-0.001431315558
8.174282212e-06
0.001431315558
0.001431315558
-1.88855406e-06
-0.001431315583
1.238582517e-07
-6.285251774e-06
4.14875747e-06
2.136494311e-06
-6.285251759e-06
-4.149031731e-06
-0.0007079943487
-0.0007126625775
4.148757465e-06
-0.0007126627038
-1.888427749e-06
0.0007126625775
1.172621943e-06
0.0003466289757
-4.37140318e-07
-0.000346196438
0.0003459919652
-0.0003458592492
-7.605655463e-07
0.000345667538
-1.900294214e-07
3.22745393e-07
3.928887315e-07
-2.592676967e-07
-6.46395127e-08
0.0003449639805
0.000345026734
3.900986101e-06
-0.0007126629201
-3.90076981e-06
9.938543514e-06
-9.93875982e-06
0.0007126628893
0.0007086595835
9.940988493e-06
-1.786455947e-05
1.786455948e-05
0.001431315679
-7.926041216e-06
-5.913538923e-06
-2.021822236e-06
1.667508614e-06
0.0003319537827
0.0003322931792
1.957491879e-05
0.0003713595784
-0.0002684612957
0.0003002964449
-1.226023035e-05
-0.0001473587757
-4.786613338e-05
-0.000701359491
-4.805261517e-06
0.0007020122721
-4.095959038e-06
-0.0003494794865
1.324536142e-06
2.120788603e-06
0.0003672824608
1.045828521e-06
3.445323836e-06
-2.135890282e-06
0.0007044433845
-0.0003527693282
0.0007037878229
-0.0003458491587
-1.459761276e-06
0.0003460401844
4.549807719e-07
-9.112734829e-07
1.303670067e-06
-1.56533044e-06
0.0003471297174
0.0003473858768
1.559546946e-06
0.0007057827661
-1.259814848e-05
-0.0007044527093
1.056542603e-05
-9.64051138e-06
0.0003567470615
-8.198515197e-06
8.589737474e-06
6.104773919e-06
-0.0003067996998
-0.0003545449883
-1.360825602e-05
4.23034017e-06
-9.827664814e-05
-0.0005672099642
0.0003532336945
0.0002954244292
-3.954348438e-05
0.0001956742096
-0.0002552740194
9.914329426e-05
-0.0002921026253
0.0002108107153
-0.0003431824843
-1.77181949e-06
1.810594238e-06
-1.553421685e-06
1.74681094e-06
1.037832581e-06
-0.0003450266938
0.0003432999719
-0.000343815561
0.0003446704589
-7.496868798e-07
-5.631829881e-07
0.0003414838073
1.713650684e-07
-0.0003409651
0.0003413572568
-0.0003416127535
-1.646234381e-06
1.043762235e-06
-1.299259012e-06
8.520422564e-07
1.55482792e-06
0.0003412928894
-0.0003325213468
0.0003329911203
-1.310363228e-06
-0.000351461159
-1.169814646e-06
0.000350922862
1.562468148e-06
-8.925214979e-07
-9.286148428e-07
5.165842705e-06
0.000360287488
0.0003590588221
-7.393638219e-07
-0.0003466832225
2.172908365e-06
0.0003471100183
-0.0003480014206
0.0003473158453
-0.0003461769353
4.07686837e-07
5.751783306e-07
1.519088341e-06
-0.0003443038275
-0.0003448879904
-0.0003383830104
-1.336248812e-06
2.168297258e-07
-4.699769082e-07
2.853350164e-08
6.606775731e-07
-0.0003411652995
0.0003400892279
-0.0003398985272
0.0003395081504
2.200002797e-07
4.721677543e-07
0.0003382972574
1.759532473e-07
-0.0003392029743
0.0003386186311
-0.0003383014038
-1.152022614e-06
4.758732671e-07
-1.586459974e-07
8.548243264e-07
3.000477814e-08
0.0003386234377
-0.0003364029529
-1.648114963e-06
1.295950861e-06
-1.233199534e-06
1.171065387e-06
1.107164656e-06
-0.0003377267496
0.000336907199
-0.0003370332338
0.0003372906043
-7.552826825e-07
-2.467643128e-07
0.0003326351054
5.563231819e-08
-0.0003333190435
0.0003335729888
-0.0003336353927
-1.588239523e-06
9.213906281e-07
-9.83794511e-07
7.9746547e-07
1.108528357e-06
0.0003346997582
8.324078901e-08
0.0003462924862
-0.0003460416308
0.0003457864912
-0.0003391616779
2.240308024e-06
-1.626167118e-06
8.250980331e-06
-2.579327735e-06
3.654146934e-06
0.00034751353
-0.0003125741723
-1.605212658e-06
0.0003170381146
-7.946739182e-06
-4.330988253e-06
6.96165924e-06
-0.0003531590341
-5.676674423e-06
0.0003475190716
-0.0003448884007
0.0003448292844
-0.0004731544737
-1.231934662e-05
-8.440848833e-06
-2.359048648e-05
-0.0003748486444
9.299351012e-06
0.0005477753014
-0.0003756915783
0.0003626750595
-0.0001008644347
-0.0002807695106
2.423598262e-05
-3.72525015e-05
1.380493854e-05
8.231827569e-05
-0.0002102082452
-0.0003144982165
0
0
0
0
0
0
-4.832893995e-05
-5.707163733e-05
-6.559121831e-05
6.498270345e-05
0.0001627048461
0
0
0
0
0
0
0
0
-8.104588809e-05
-8.439688738e-05
-8.059820879e-05
7.847090682e-05
0.0002081943903
0.0001739170162
-7.13735692e-05
-0.0005666818899
-0.000122636569
0.0003574515326
0.0001692419661
-0.0001749988984
-0.0008094736932
0.0001602852892
-0.0007670703495
-0.001633393345
0.001354113662
-0.0003109940096
0.0003293056081
-0.0003349135055
-0.001901909351
0.0003271917589
-0.001857002129
-0.002546183767
0.002363833806
-0.000317287169
0.0002863045628
-0.0002857596779
-0.002673230448
0.0002862754974
-0.002629923985
-0.0006812301135
-1.383830587e-05
1.192154589e-05
-1.191833251e-05
-0.0006812333269
1.186244848e-05
-0.0006777505384
0
0
0
0
0
0
0
0
-7.011792937e-05
-5.645903231e-05
-5.668050855e-05
6.527853725e-05
0.0001657071287
0.0002161704141
-7.756069404e-05
-0.0006025365049
-0.0001185499588
0.0003821120268
0.0001774066117
-0.0001695818196
-0.0008577141373
0.000181917047
-0.0008738788795
-0.001719185192
0.001428111314
-0.0003028603228
0.0003340251156
-0.0003266856743
-0.00199783513
0.0003381096622
-0.00200849179
-0.00264968853
0.00247266329
-0.0003117997056
0.0002822610494
-0.0002820029429
-0.002776928357
0.000282164629
-0.002765688277
0
0
0
0
0
0
0
0
-1.266633808e-05
-3.624472552e-06
-1.774686462e-05
2.693338883e-05
4.863016863e-05
0.0001383855104
-4.704034833e-05
-0.0004274283459
-7.081591376e-05
0.0002440176298
0.0001291937866
-0.0001116372243
-0.0006506863551
0.0001450694522
-0.0007216357196
-0.001460222037
0.00117796588
-0.0002351167775
0.0002845084437
-0.0002638169821
-0.001739932985
0.0003019515519
-0.001837278356
-0.002463519707
0.002250238756
-0.0002818613035
0.0002732156941
-0.0002655245628
-0.002640660809
0.0002781332551
-0.002709692826
-0.00293882956
0.002877057589
-0.0001753768363
0.0001367065782
-0.0001396526265
-0.002969578312
-0.002954270971
-0.002982716816
0.002982334372
-3.681663984e-05
4.520530705e-06
-4.520530691e-06