/*--------------------------------*- C++ -*----------------------------------*\
| =========                 |                                                 |
| \\      /  F ield         | OpenFOAM: The Open Source CFD Toolbox           |
|  \\    /   O peration     | Version:  v2012                                 |
|   \\  /    A nd           | Website:  www.openfoam.com                      |
|    \\/     M anipulation  |                                                 |
\*---------------------------------------------------------------------------*/
FoamFile
{
    version     2.0;
    format      ascii;
    class       volScalarField;
    location    "0.01";
    object      p;
}
// * * * * * * * * * * * * * * * * * * * * * * * * * * * * * * * * * * * * * //

dimensions      [0 2 -2 0 0 0 0];


internalField   nonuniform List<scalar> 
3019
(
-775.5953515
-924.0094824
-962.3101614
-919.139791
-853.3508225
-789.6244684
-717.6804924
-678.5323008
-629.339327
-612.8172938
-601.8415931
-596.4663806
223.5215199
-391.345254
-606.3741342
-677.0412404
-686.1438734
-670.4343557
-633.3746855
-612.1452042
-577.1939789
-567.046546
-559.8273368
-556.3435948
178.1720645
-170.6447121
-382.8357145
-493.0738726
-542.9103068
-559.9113895
-549.8842888
-544.6806425
-522.8465262
-518.4938067
-514.9767685
-513.3332623
125.3009426
-88.74757538
-256.443812
-366.0478709
-430.2338368
-464.6669567
-473.0077215
-479.7614689
-468.8478825
-469.399341
-469.1859209
-469.1396227
88.48603024
-56.13300773
-182.2923751
-277.7465188
-343.2317397
-385.1043821
-405.0671359
-419.7467526
-417.3079496
-421.6521504
-424.0537297
-425.2186046
64.38401298
-40.97227616
-137.6617913
-217.2844026
-277.676262
-320.9571892
-346.6309687
-365.8129279
-369.4620252
-376.428045
-380.7178907
-382.7314687
48.08592125
-32.715251
-108.7737318
-174.7599904
-228.2497857
-269.552747
-297.1695238
-318.2966835
-325.809164
-334.3752277
-339.8759788
-342.4842843
36.64214584
-27.53686441
-88.78591269
-143.7033931
-190.2445596
-228.0367077
-255.4795449
-276.8168228
-286.4828806
-295.8416631
-301.9985836
-304.922626
28.34746263
-23.89194613
-74.13335058
-120.1531841
-160.3552165
-194.146858
-220.2049449
-240.7254944
-251.3517671
-260.8877293
-267.2673276
-270.3045627
22.20443977
-21.06631869
-62.86211652
-101.6861542
-136.329887
-166.1982214
-190.1627347
-209.3349344
-220.1013683
-229.3866306
-235.6815102
-238.6843083
17.56425289
-18.71995337
-53.84873908
-86.78452974
-116.6221597
-142.8293386
-164.4478477
-181.9784816
-192.347636
-201.1102835
-207.1177469
-209.9867128
13.99579055
-16.67816339
-46.41265476
-74.46587697
-100.158426
-123.0359113
-142.2753594
-158.0591852
-167.7020269
-175.7836179
-181.3772234
-184.049595
11.21253959
-14.84681883
-40.12504593
-64.0760379
-86.18511594
-106.0730997
-123.0169022
-137.0588749
-145.7919756
-153.1131311
-158.2211737
-160.661103
9.016627101
-13.17213116
-34.70286444
-55.16338117
-74.15931314
-91.37795494
-106.1648619
-118.5329528
-126.2697603
-132.8046201
-137.3946547
-139.5857399
7.266262643
-11.62199152
-29.9523757
-47.40777069
-63.68258457
-78.52073774
-91.31123772
-102.1050709
-108.8163857
-114.5732656
-118.639368
-120.5784409
5.85733979
-10.17548305
-25.73464926
-40.57325171
-54.45255875
-67.16405347
-78.11957691
-87.45080412
-93.14275284
-98.14998133
-101.7027012
-103.394745
4.711696227
-8.818016549
-21.94688562
-34.48159656
-46.23524125
-57.03957719
-66.3120533
-74.29254431
-78.98909702
-83.28531798
-86.34442846
-87.79897626
3.769414438
-7.538163534
-18.50936997
-28.99280777
-38.84264541
-47.92570488
-55.65539214
-62.38928713
-66.12183008
-69.74927424
-72.33896328
-73.56774403
2.983705027
-6.326383712
-15.3583814
-23.99449518
-32.1212548
-39.62667046
-45.9525038
-51.53015972
-54.32587516
-57.32787097
-59.47312003
-60.48788511
2.317462357
-5.174246634
-12.4414458
-19.39469443
-25.94780933
-32.00505416
-37.01252708
-41.52452942
-43.42054577
-45.83516797
-47.56007015
-48.37325147
1.740129787
-4.073529941
-9.712979752
-15.1138302
-20.21596339
-24.95615438
-28.67015382
-32.1994911
-33.18360377
-35.05490297
-36.37714189
-36.99394078
1.226641873
-3.015972165
-7.132402002
-11.08036093
-14.82327487
-18.32023929
-20.81450855
-23.38169067
-23.64199118
-24.96240332
-25.90273474
-26.34484003
0.7561919163
-1.99292431
-4.662431443
-7.228869441
-9.676152333
-11.98558533
-13.31236291
-14.99662279
-14.08236251
-14.87343419
-15.42977218
-15.64644194
0.315477393
-0.9942683711
-2.268318157
-3.500402654
-4.689270316
-5.846218187
-5.973274953
-6.748086783
-6.622152637
-7.010266383
-7.276035631
-7.461674945
-833.1526638
-865.8839105
-1037.224441
310.1925284
-787.9085505
176.9506934
-405.8126828
-936.5703083
281.3859311
321.026921
-979.7503707
-64.47725863
-140.9419122
-192.6171775
-482.8516931
-846.258162
-1166.404886
-483.0494807
-1213.62953
-1210.778649
-1222.3255
-392.6525472
191.805126
-124.485262
-298.131768
-902.2862887
-1140.189333
-1165.022057
-142.0137371
-380.5827717
-120.3812572
342.5243014
-1413.116052
-1403.530899
367.1453491
131.2424274
-1185.693986
-1020.570357
-1022.24546
-1026.636484
-1191.382421
-817.9882136
-979.5237125
-599.1471916
-611.9187272
-769.7115904
-404.5589133
-559.8685647
-505.4132875
-1204.677555
-1359.159013
-1396.273217
-1202.8362
-1050.47112
-1084.683523
-976.750805
-974.709272
-819.8602045
-1515.729174
-1502.265866
-1398.362364
-1380.964198
-826.3393308
-843.4743171
-674.3764307
-677.9613527
-769.9560724
-204.8432657
-351.8765483
-1521.497591
-1405.233617
-1474.204911
-1045.621218
-1043.414785
-1029.656699
-1136.51051
-857.1185086
-843.6197317
-825.1390561
-973.070542
-920.8834851
-915.5320393
-601.2572688
-655.472391
-656.7594052
-481.9112762
-483.4705693
-531.8383961
-1336.579673
-1333.379689
-1386.738598
-1211.143753
-1268.732889
-1280.082688
-1069.4283
-1008.770213
-986.1812721
-918.3913407
-896.7749671
-836.8816374
-512.0437584
-596.3576766
-824.313443
-492.584215
-653.5778146
-963.8284466
-682.905765
-727.6087457
-933.6365378
-732.6488276
-730.6063406
-870.1602223
-726.2421195
-707.380686
-804.6673513
252.0048851
17.04910581
-87.49409654
-206.320604
-385.3613209
-570.9133231
-427.398368
-514.3531919
-667.2215725
-533.2710016
-569.2112171
-687.1372006
-575.9069311
-585.6103536
-675.6679071
193.2444466
268.3923411
137.647769
-46.73474966
-95.69051253
-102.4228119
-244.1291204
-341.1944757
-282.1949345
-370.9494357
-472.5679941
-393.3101639
-443.5277021
-534.3841522
-455.5828708
-481.1165098
-557.6977781
131.9222967
174.3414166
96.27302349
-23.73992145
-38.33495152
-61.96297598
-166.6612273
-220.0814448
-197.2781227
-275.2861235
-343.6115937
-296.8068441
-349.1230615
-417.5106072
-362.8982862
-395.1532194
-458.09358
95.24535491
121.0703375
69.52524395
-16.08185673
-21.02259831
-43.87485561
-122.8109056
-153.4362708
-146.9622539
-211.5840866
-256.8613261
-230.3946875
-278.7627855
-329.3717178
-292.3371638
-326.2482298
-376.3546598
71.42149624
88.36757484
51.61700211
-13.19703883
-15.09981105
-34.39934311
-95.72287297
-114.8746249
-114.9705823
-168.0943257
-199.1895263
-184.1159241
-226.87752
-264.3185824
-239.3788158
-271.9067963
-311.452869
54.97265298
66.75124101
39.15758642
-11.89475738
-12.78341219
-28.64648892
-77.58248682
-90.54055277
-93.17929843
-137.0896916
-159.3914477
-150.6417403
-187.7315079
-216.075367
-198.8771083
-228.6913969
-260.1927751
43.18700851
51.66438762
30.1875747
-11.12815643
-11.67496514
-24.7072905
-64.5905293
-73.95147666
-77.42153028
-114.0187211
-130.7076574
-125.4886848
-157.42438
-179.4458274
-167.2037661
-193.8683972
-219.3016873
34.47427404
40.76933658
23.57833872
-10.50447368
-10.96669249
-21.71828988
-54.74714082
-61.8885136
-65.43390386
-96.1818486
-109.1466307
-105.9205314
-133.36397
-150.9032922
-141.8803724
-165.4271584
-186.240282
27.83253771
32.6481095
18.60993775
-9.890374799
-10.35252894
-19.27297224
-46.94681135
-52.6365649
-55.93298227
-81.93882236
-92.33258616
-90.23621045
-113.8202115
-128.1082708
-121.2093714
-141.8491257
-159.1374859
22.65858469
26.41950725
14.80495727
-9.245797051
-9.732676355
-17.16608669
-40.54216952
-45.23353696
-48.15030004
-70.25446443
-78.80908528
-77.3432826
-97.61849999
-109.4932506
-104.0155542
-122.0190679
-136.5865307
18.55969277
21.5453267
11.84669761
-8.564941495
-9.078842167
-15.28834178
-35.13685096
-39.10898035
-41.60660956
-60.45388531
-67.64854809
-66.52004613
-83.9497731
-93.98957229
-89.47748202
-105.1214285
-117.5552909
15.26559036
17.66928118
9.519032309
-7.854573614
-8.389734405
-13.57810882
-30.4756493
-33.90961468
-35.98897166
-52.07995278
-58.24103657
-57.27222737
-72.24121493
-80.85733047
-77.00677727
-90.55024231
-101.2883578
12.58510672
14.54417536
7.668293737
-7.125140594
-7.673590146
-11.99913056
-26.38759473
-29.4053054
-31.08535027
-44.81408989
-50.1698772
-49.25224664
-62.07900578
-69.56930685
-66.17436705
-77.85004217
-87.22198128
10.37710447
11.99348368
6.182234287
-6.386819028
-6.941017458
-10.52829451
-22.75244984
-25.44022551
-26.74532125
-38.42526575
-43.1422249
-42.20619695
-53.15393742
-59.74204662
-56.65707102
-66.66868146
-74.93027734
8.535500139
9.885810249
4.976953233
-5.648422697
-6.201913163
-9.149703183
-19.48223662
-21.90351112
-22.85820246
-32.74069656
-36.94372265
-35.94307344
-45.22902104
-51.08676467
-48.20554537
-56.72866246
-64.08189024
6.979849411
8.122495705
3.988671263
-4.916720905
-5.464649971
-7.851394222
-16.5100507
-18.71353418
-19.33961418
-27.6272505
-31.41335193
-30.31501971
-38.11776436
-43.38139339
-40.62236019
-47.80592311
-54.415166
5.647228856
6.62793423
3.167606178
-4.196519346
-4.735447998
-6.623408249
-13.78250218
-15.80708399
-16.12226329
-22.97837027
-26.42517069
-25.20336247
-31.66845713
-36.44866378
-33.7458077
-39.71042372
-45.71539793
4.487654057
5.342852748
2.474591259
-3.490978487
-4.018672491
-5.457140567
-11.25598336
-13.13358497
-13.15132332
-18.70751418
-21.87828505
-20.51178918
-25.75855224
-30.14469385
-27.44573944
-32.29276795
-37.80044004
3.459997604
4.219833324
1.877577172
-2.801809051
-3.317115385
-4.344326524
-8.892847604
-10.651257
-10.37969304
-14.74076645
-17.69000896
-16.15813533
-20.28447957
-24.35299818
-21.6131174
-25.43604135
-30.53237511
2.529807473
3.219532205
1.350239875
-2.129354167
-2.632152526
-3.276782017
-6.65972305
-8.323626871
-7.765778218
-11.01264902
-13.78880925
-12.06922943
-15.15067434
-18.97280833
-16.1449603
-19.01230746
-23.79699258
1.66779831
2.308965681
0.8707035217
-1.472525693
-1.96375477
-2.245922569
-4.525765701
-6.118089789
-5.271436038
-7.463274439
-10.11076096
-8.177953389
-10.26801976
-13.90972712
-10.94459785
-12.9025626
-17.46122068
0.8509279996
1.460076491
0.421910819
-0.8294002449
-1.310521901
-1.243234047
-2.462969655
-4.004429519
-2.862338864
-4.039404834
-6.597479223
-4.424649146
-5.557166552
-9.077144698
-5.926182147
-7.004750657
-11.41332023
-0.06187753668
0.6547529205
-0.1451691523
-0.3250095192
-0.6687056665
-0.3885082431
-0.5885425263
-1.953880596
-0.6573413111
-0.867337508
-3.19622656
-0.9383464194
-1.155142032
-4.396477832
-1.22933656
-1.476823305
-5.549379675
-881.6268138
-877.4569091
-828.9866216
-876.6763512
-963.3133392
-956.9427262
-1355.396322
-1389.833371
-997.1564257
183.0205654
437.195225
-772.351722
-618.9802611
-669.2569107
56.62683962
-16.42021812
113.6356648
-595.5118182
-447.3025848
-218.0915752
-873.9365691
-542.1452874
-671.9839614
326.8174393
364.8819372
-1117.23413
-1143.189349
-914.869382
-1221.621114
-1223.103235
-1492.317692
-1483.463966
-5.672940393
70.79199978
6.71491719
-221.2177225
-172.9296415
-87.13865997
-323.8937001
-527.4091035
-428.0006003
-595.5029868
-541.9291692
-416.4303886
-842.1881685
-676.4827598
-717.3973206
-1168.771412
-1122.278294
-1119.813134
-371.4430149
-432.4538927
-425.7599712
-575.6887801
-570.4188325
-425.4179443
-1263.334816
-1266.018731
-1214.271059
-1227.813615
-1316.323225
-1352.265208
-1304.196589
-1309.272695
-1224.170019
-1394.309978
-1386.413933
-358.5976307
-264.3176706
-305.2979824
-265.8057166
-314.6563331
-30.90760238
-159.1718667
77.20061375
70.41913622
248.4024817
-163.5241787
-57.31371276
-29.52684867
-166.1422916
-103.3156334
-218.6456553
-980.9319457
-971.6362669
-889.0923985
-1138.902419
-1054.918956
-1060.216026
-1048.775516
-1050.671686
-1139.342156
-209.0847511
-120.040368
-49.91660926
-304.4809645
-205.3407728
-289.2196713
65.30373796
-108.5467683
-217.356074
356.6400772
467.10088
437.0966553
-1451.898426
-1458.116066
-1405.896743
139.7507222
56.91494993
282.2940802
214.8486915
294.8924567
71.94976183
140.9828716
204.192906
-1131.138192
-1125.741145
-1173.043441
-1020.393309
-1070.139001
-1063.839937
-1072.373392
-1071.490078
-1020.859464
-660.5131578
-653.705161
-605.3570668
-769.7680398
-699.8990398
-712.5700192
-456.2285994
-443.3215628
-388.6020243
-548.2630039
-494.6677708
-507.4396568
-1368.855596
-1321.732345
-1313.388838
-1101.07861
-1265.740401
-1342.515108
-1211.966996
-1241.626099
-1096.403359
-974.3682472
-925.5175188
-927.7528461
-919.0990017
-923.309907
-973.6682068
-824.2827167
-872.5218172
-866.3342577
-1392.34121
-1438.308882
-1445.780029
-1426.220049
-1431.719798
-1388.356353
-1475.547635
-1471.052946
-162.10767
-215.9742378
-254.6223938
-235.4231974
-184.4860817
-334.3754927
-283.5097975
-301.3688904
-818.7724391
-788.4344074
-758.0291807
-731.6282573
-709.1070695
-690.9380212
-686.6862857
-706.5261097
-790.9224763
-761.9503655
-801.5445981
-945.5745993
-861.6665905
-866.3050689
-956.2294963
-854.099274
-844.919516
-903.4430001
-810.1872168
-797.5516007
-836.73156
-699.9202448
-691.7746072
-740.660753
-675.815263
-660.0014269
-696.718452
-645.929976
-635.5260368
-663.0326643
244.2893388
135.2694609
105.2144922
-312.4101094
-388.6569282
-466.2825198
-538.3371837
-569.2327419
-633.0752874
-625.2006468
-634.9642117
-683.1335368
-647.6256156
-647.8300565
-683.6417665
-585.9810416
-596.0558821
-643.4535194
-591.098299
-584.6180225
-622.3684354
-578.0648766
-572.6484968
-603.1104717
165.0795748
80.34135654
80.43642195
-142.2884218
-203.3487855
-236.0874205
-344.4615086
-379.4018261
-418.0692135
-456.5083162
-474.5601381
-509.8767594
-511.862055
-519.8435741
-549.4297893
-486.6460255
-507.4830842
-550.4953486
-510.400247
-511.59187
-547.544493
-511.5013014
-510.7212678
-541.3427503
114.5088231
63.83961353
68.43507702
-77.85976293
-121.3133371
-136.0798043
-233.9169355
-265.1991813
-289.0736635
-341.0104795
-360.7618992
-385.679983
-406.4984141
-417.9200161
-441.1097388
-403.3036448
-429.6854945
-467.208758
-437.8486413
-444.2674824
-477.0920863
-448.7920049
-451.7414061
-480.9630077
81.49403918
47.06900583
50.89469586
-51.31082195
-82.83414894
-90.16951291
-169.0747934
-194.5576354
-209.1634807
-260.4684973
-278.9819534
-296.7310506
-325.0098696
-337.468701
-355.5986751
-335.4953213
-363.434339
-395.0896735
-374.6747293
-384.2766914
-413.3406409
-391.7157418
-397.3121208
-424.14871
59.72042888
34.44570682
37.22821333
-38.47379922
-62.26032985
-66.40199604
-129.3134296
-149.8749071
-159.3489504
-205.2783508
-221.5719502
-234.157262
-264.017475
-276.1167784
-289.9461165
-281.1545726
-308.0846211
-334.4838231
-320.8460838
-331.992316
-357.2011958
-341.0352799
-348.1796289
-372.2643751
44.85292
25.34393488
27.34887967
-31.21328254
-49.80360553
-52.43051868
-103.1198283
-119.8400176
-126.3614554
-166.1098674
-180.1328682
-189.3347897
-217.8287228
-228.9489421
-239.6452975
-237.3758289
-262.2556067
-284.0788373
-275.4399672
-286.9490701
-308.6308823
-296.6270351
-304.4973969
-325.8466397
34.31984182
18.75332421
20.21029035
-26.51933257
-41.45143052
-43.27588861
-84.71855774
-98.47872269
-103.2169463
-137.226992
-149.2077436
-156.1680327
-182.1139008
-192.0496685
-200.4822998
-201.7663705
-224.3890976
-242.415363
-237.1281074
-248.2868345
-266.8944914
-257.9426206
-265.9418227
-284.8084066
26.63988625
13.94679476
15.01216186
-23.12606462
-35.36660302
-36.73574253
-71.05237315
-82.50337199
-86.11122657
-115.1306017
-125.3570515
-130.7916349
-153.8688612
-162.6190121
-169.3956555
-172.5068038
-192.7769802
-207.9014971
-204.5895185
-215.0683271
-231.0661802
-224.3065749
-232.0550683
-248.6536579
20.9234059
10.4053417
11.19455778
-20.44356002
-30.62757899
-31.71752589
-60.42935443
-70.04676167
-72.90090056
-97.67202944
-106.413484
-110.7757299
-131.0467344
-138.6957365
-144.2442647
-148.1243197
-166.0898317
-178.8822047
-176.8189741
-186.441787
-200.2430126
-195.0304649
-202.3046269
-216.8979739
16.58483948
7.764701838
8.355257551
-18.18560977
-26.7475534
-27.65447643
-51.86191041
-59.99645496
-62.3264548
-83.49275055
-90.97817476
-94.56479577
-112.2360335
-118.893565
-123.5169576
-127.5377258
-143.3560863
-154.2815255
-152.9626666
-161.6528328
-173.6209353
-169.4789248
-176.1577786
-189.0028655
13.23528832
5.781369952
6.225762407
-16.20320906
-23.45187193
-24.23123226
-44.74609421
-51.66014108
-53.61101339
-71.7080424
-78.12585532
-81.13493098
-96.45578034
-102.232541
-106.1453435
-109.9457359
-123.8057097
-133.2234518
-132.3173431
-140.0677528
-150.5046864
-147.0942348
-153.1258236
-164.4578547
10.61484087
4.286624186
4.621781625
-14.41499268
-20.57717709
-21.26274484
-38.69717057
-44.59024746
-46.25737701
-61.7237608
-67.22767854
-69.79567994
-83.01370292
-88.0120301
-91.36904911
-94.74532876
-106.8412626
-115.0321584
-114.3186542
-121.1612355
-130.3177597
-127.395813
-132.7717046
-142.8016153
8.54187764
3.159243795
3.411935148
-12.77388452
-18.02067542
-18.63408417
-33.45846308
-38.48485708
-39.93343368
-53.12642161
-57.84164973
-60.06537629
-71.40806537
-75.71868564
-78.63398623
-81.47843757
-91.99392727
-99.17782347
-98.5118841
-104.4990177
-112.5814076
-109.974575
-114.7121826
-123.624846
6.885460365
2.310441397
2.500482017
-11.25130479
-15.71471272
-16.27056688
-28.85253595
-33.1334435
-34.40977253
-45.62059977
-49.64941419
-51.59968434
-61.26831982
-64.9699963
-67.52972643
-69.78739873
-78.89048567
-85.24442955
-84.52710952
-89.71954463
-96.90132623
-94.48114882
-98.61201859
-106.5716606
5.548848072
1.6735273
1.815876854
-9.828262437
-13.61178493
-14.12053626
-24.75085445
-28.38251641
-29.52072182
-38.98673713
-42.4127866
-44.14302536
-52.31129165
-55.47141359
-57.74230087
-59.388397
-67.22844946
-72.89574512
-72.05911567
-76.51877542
-82.94534115
-80.61588451
-84.17792008
-91.327888
4.459087347
1.198054991
1.304080842
-8.491173806
-11.676968
-12.14651086
-21.05738679
-24.11691586
-25.14310329
-33.05767275
-35.94941684
-37.50123091
-44.31626308
-46.99188327
-49.02714433
-50.05088861
-56.75952395
-61.85849058
-60.85376168
-64.63929935
-70.43434525
-68.12063138
-71.15300798
-77.62013141
3.559873195
0.8451071835
0.9236447996
-7.229149006
-9.882850565
-10.31950935
-17.69689345
-20.24627809
-21.18119418
-27.70101333
-30.11422347
-31.52103986
-37.10448652
-39.34289096
-41.18642437
-41.57454837
-47.27995991
-51.9065049
-50.69669704
-53.85932277
-59.12989414
-56.77015377
-59.31128438
-65.20679716
2.80723628
0.5844222511
0.6423458152
-6.033083646
-8.207206508
-8.616103813
-14.60908657
-16.69822035
-17.5584766
-22.81046107
-24.79051511
-26.07906896
-30.53082399
-32.37037816
-34.05717736
-33.81138118
-38.64384408
-42.86860355
-41.39932058
-43.98407224
-48.82531358
-46.36448652
-48.44797835
-53.87792869
2.165864674
0.3919626359
0.4348163627
-4.894571126
-6.63081128
-7.01657344
-11.74333056
-13.41211462
-14.21206366
-18.29750669
-19.88140882
-21.07457629
-24.47747959
-25.95157867
-27.5102725
-26.64508419
-30.64751416
-34.57833693
-32.7757969
-34.83653396
-39.33419228
-36.72656254
-38.39552201
-43.43153194
1.606654196
0.2482302521
0.2805028727
-3.805428147
-5.136307846
-5.503148343
-9.055487957
-10.33521568
-11.08746783
-14.0849469
-15.30214241
-16.42035732
-18.83987989
-19.97687213
-21.4350726
-19.92008168
-23.08708062
-26.81423792
-24.68902471
-26.25834576
-30.48987971
-27.66601262
-28.92281738
-33.73354241
1.105704452
0.1376154452
0.1629015896
-2.757321317
-3.707462875
-4.059384878
-6.505927981
-7.420231668
-8.136234357
-10.10284187
-10.97525501
-12.03729933
-13.5169066
-14.33594421
-15.72027554
-13.5221741
-15.91991952
-19.46145828
-17.03195082
-18.1251658
-22.14651606
-19.10131841
-19.94602996
-24.46625806
0.6433567052
0.04775961114
0.06882212674
-1.741540826
-2.328583869
-2.669435678
-4.058222518
-4.623913953
-5.314030372
-6.287490125
-6.830190271
-7.852932346
-8.417730684
-8.931777727
-10.26554016
-7.348175739
-9.034286984
-12.43457819
-9.683323585
-10.31028461
-14.17591638
-10.86200337
-11.43220616
-15.66730297
0.1988890711
-0.03751951965
-0.009876297982
-0.7545883177
-0.9895560998
-1.316821955
-1.684208244
-1.912367417
-2.580166671
-2.58730524
-2.809079005
-3.801919275
-3.464155194
-3.679118561
-4.978918346
-1.566933957
-2.79462883
-5.546025992
-3.038686007
-3.264261695
-6.374429045
-3.527675707
-3.847812794
-7.081375892
-1141.479094
-1137.330109
-1026.875847
264.0180881
358.2981788
389.9707029
-783.0808489
-738.0917144
-738.7152921
-920.4978422
-819.6785333
-843.0854669
-1368.138221
-1364.613953
-242.1961585
-313.0686394
-268.2838425
-1209.121117
-1256.371978
-1259.083744
40.55384689
-11.96850658
-1120.653385
-1115.105345
-1163.900579
-51.65500784
-106.0707365
-176.0416312
131.3729658
82.19035702
-1051.127422
-1149.716772
-1181.286632
-1085.776646
-1117.677284
-1030.636733
-963.3652912
-1024.003879
-1054.438572
-966.6425965
-994.6968813
-940.6716045
-875.940221
-914.7745128
-939.990015
-868.5512533
-890.9591592
-855.9514409
-542.3991045
-623.3603016
-598.4708396
-669.3239336
-647.535747
-570.5061541
-807.3695587
-726.683753
-746.5146622
-561.1053453
-672.6934464
-616.4808565
-746.9783539
-716.6395958
-614.3849194
-959.0988688
-831.8808628
-850.6572685
-703.9603199
-781.8077276
-768.1779855
-792.5112879
-789.4651844
-718.4444132
-946.2449183
-865.4340772
-861.2709669
-734.3637071
-788.3904971
-791.7072155
-775.8273703
-782.8754843
-733.4588588
-886.9676147
-834.1953904
-822.4827403
-720.6910881
-758.7606471
-767.6935628
-739.6358903
-749.3485795
-714.3395886
-820.4576503
-784.8229455
-772.1594732
164.0171802
153.1536854
251.5053941
2.305542003
38.6370297
-47.2224409
-276.107746
-326.0913459
-252.214041
-437.4929329
-387.2430997
-335.3641685
-525.4841511
-450.0099787
-498.9524277
-462.1831276
-512.3622261
-478.9251344
-560.6251609
-539.2480692
-490.8764304
-652.9495426
-593.2036445
-611.590239
-548.3441066
-589.9866161
-577.2855251
-606.3102399
-599.5073926
-560.1661279
-686.2676703
-641.5618973
-645.6479551
-580.6117423
-613.477872
-610.8165397
-614.6208657
-614.6785465
-583.7808154
-680.0823833
-646.7897891
-644.6812911
214.6484971
237.9100944
73.05674714
77.36120334
151.299436
-58.20156094
8.160215878
12.50785446
-11.48836057
0.6160587486
-74.06586958
-154.0855085
-176.2428519
-119.8796672
-271.9064811
-226.968468
-201.3880824
-292.6057088
-257.0666654
-303.8552131
-315.75635
-345.5892601
-311.3005141
-401.1909542
-375.4088204
-345.2166214
-447.7596563
-409.4150577
-434.9565058
-412.6705951
-442.2213554
-423.3363677
-471.6146327
-458.2014276
-429.3110241
-523.5007066
-489.5501253
-501.8682464
-465.716484
-491.9474863
-482.7703682
-505.3721226
-499.3946784
-474.1490805
-554.2669067
-526.1033171
-530.9031938
144.2087216
158.1861274
54.99973945
59.34111829
104.9202111
-27.31997018
16.18372847
15.88478877
14.84722941
15.92982276
-32.05633833
-98.80650598
-109.0595432
-69.08622434
-181.8827676
-146.741325
-133.7848955
-179.9239168
-161.9402374
-199.5088687
-225.5817795
-244.1314786
-214.3490091
-295.8163297
-271.2694254
-251.5730585
-318.0598292
-293.4081119
-318.6228387
-316.2043962
-337.5774743
-317.8881878
-370.488574
-355.0518381
-333.5987007
-402.7376907
-378.1052648
-393.2850197
-375.062429
-395.891952
-384.0477022
-415.1189643
-406.1861198
-385.7614906
-450.3242575
-427.7326991
-436.1178057
102.8999853
111.4569731
40.24949587
43.52495642
75.20443988
-17.33379597
13.41529393
12.39441365
15.2363187
14.3822356
-18.94171577
-71.12473259
-76.55101919
-47.27931359
-131.7544553
-104.7642686
-97.48448622
-122.6748491
-113.0893861
-141.8886834
-169.8454469
-181.5209923
-157.3711697
-225.2182572
-204.14586
-191.3978924
-234.0176569
-218.2877561
-240.2503525
-247.8394151
-262.7384951
-244.7416493
-294.3461284
-279.2533928
-263.9477383
-313.9051035
-295.8560688
-311.1701036
-304.7312916
-320.5460794
-308.0853544
-341.970688
-331.8026532
-316.0067756
-366.5883041
-348.6405626
-358.6398787
76.53783398
82.16171713
29.52412842
31.88388627
55.48103469
-13.70060485
9.347010318
8.397899836
11.359564
10.33786856
-14.32245744
-55.34647
-58.60157149
-36.30289261
-101.4453066
-80.34683667
-75.81478306
-91.07746499
-85.40302935
-107.794408
-133.4848676
-141.2908924
-121.7864642
-177.5617931
-159.8971889
-151.2073789
-179.8717489
-169.4149814
-187.8905075
-199.2555541
-209.97146
-194.2574412
-238.465508
-224.7038014
-213.5078225
-249.8255428
-236.7785609
-250.9172284
-251.0333382
-263.1688678
-251.2776797
-284.3380062
-274.168762
-261.8653125
-301.1761164
-287.2543572
-297.4859602
58.56526796
62.4794187
21.78730934
23.49482214
41.88631982
-12.14554916
5.854657486
5.111297004
7.497223586
6.649506946
-12.43776356
-45.25870393
-47.42471224
-29.86512368
-81.52694494
-64.66339158
-61.58648505
-71.72923432
-68.02952187
-85.82903379
-108.3249248
-113.8482832
-97.94083681
-143.9587178
-129.2007228
-122.9741803
-143.2483238
-135.937592
-151.3712032
-163.6084509
-171.5782021
-158.0917331
-196.5631215
-184.4041644
-175.9745761
-203.1065865
-193.4281735
-205.9920681
-209.4148676
-218.8887633
-208.0557845
-238.6299867
-229.0714089
-219.3522873
-250.2793902
-239.3669544
-249.0974179
45.79415601
48.61243013
16.16285225
17.40709292
32.17346261
-11.2973486
3.179894289
2.630000227
4.418696269
3.775485757
-11.47797737
-38.19748972
-39.76445953
-25.57995031
-67.4852655
-53.74330898
-51.50100357
-58.76117317
-56.15575362
-70.59643576
-89.95808437
-94.07055971
-80.94086282
-119.2130067
-106.8383292
-102.1668881
-117.2026188
-111.8380222
-124.7632699
-136.5565519
-142.6835923
-131.1683966
-164.331886
-153.7420623
-147.2058999
-168.0855532
-160.6891021
-171.6598476
-176.5392327
-184.0799799
-174.4457567
-201.9180688
-193.2340404
-185.4299553
-210.162752
-201.4698357
-210.3681573
36.42793829
38.52153989
12.04425577
12.95970551
25.0537154
-10.65664325
1.230488422
0.8391609364
2.12347365
1.657766483
-10.81019685
-32.86601728
-34.07978108
-22.40335085
-56.98328616
-45.61274897
-43.88131853
-49.40927049
-47.45116309
-59.35848127
-75.91749337
-79.1123724
-68.15871382
-100.2528644
-89.81836451
-86.17419684
-97.79143912
-93.68324749
-104.5664438
-115.3732033
-120.2261653
-110.3947526
-138.8993113
-129.7318213
-124.5250874
-141.0458436
-135.2300455
-144.7370461
-150.0669856
-156.184567
-147.7192775
-172.0418088
-164.2901747
-157.9192409
-178.0213541
-170.9843145
-178.9557218
29.33634052
30.93868001
8.98978719
9.671845052
19.72758121
-10.04602305
-0.141494237
-0.4109762136
0.4815210881
0.1553339048
-10.19992479
-28.60079381
-29.59035994
-19.84671294
-48.74617381
-39.2277751
-37.82930772
-42.2460841
-40.69763207
-50.63970094
-64.77134327
-67.34107871
-58.12329493
-85.22682684
-76.38146108
-73.44537918
-82.7312497
-79.47214138
-88.68643971
-98.32367148
-102.2682931
-93.86065342
-118.3543982
-110.4366264
-106.1886376
-119.5870788
-114.8971231
-123.1113291
-128.3485271
-133.402957
-126.012433
-147.3650636
-140.5195652
-135.2320036
-151.8454522
-146.053007
-153.1080397
23.83847719
25.09031787
6.702744121
7.214803736
15.66653722
-9.410431805
-1.073426019
-1.251041459
-0.6549618522
-0.8752246584
-9.572731815
-25.0386859
-25.87654664
-17.66811608
-42.03713706
-34.0025922
-32.83352487
-36.49591955
-35.22203193
-43.59916015
-55.64620799
-57.77219367
-49.96457726
-72.97704751
-65.44728058
-63.01820149
-70.65157633
-67.98895275
-75.8255481
-84.27365675
-87.55122097
-80.34892246
-101.4045829
-94.57301949
-91.03518243
-102.1378729
-98.27035778
-105.3591675
-110.2192507
-114.4647767
-108.0376287
-126.6832289
-120.6795386
-116.2238751
-130.171106
-125.3259898
-131.5227056
19.5000431
20.49392624
4.981400786
5.36728458
12.51997018
-8.738292079
-1.674264451
-1.782941141
-1.409517439
-1.550172545
-8.909639632
-21.96937378
-22.69853126
-15.74022252
-36.41020678
-29.59080505
-28.58767852
-31.71078538
-30.63091462
-37.73302663
-47.98840055
-49.78770452
-43.14558576
-62.75525483
-56.32738614
-54.27372527
-60.69328823
-58.46523513
-65.15126004
-72.4636219
-75.23798065
-69.06183486
-87.16400798
-81.27478064
-78.27615592
-87.64582034
-84.39530577
-90.50779016
-94.8529299
-98.47139964
-92.89843406
-109.1152943
-103.8768307
-100.0707803
-111.944009
-107.8325158
-113.245685
16.02521845
16.82547632
3.683157745
3.974272463
10.05111263
-8.03438986
-2.026933859
-2.08406788
-1.877285799
-1.958299787
-8.212828609
-19.26395037
-19.91133586
-13.99227659
-31.58170053
-25.77624915
-24.89813145
-27.61901579
-26.68255751
-32.7254829
-41.43170703
-42.98297456
-37.31956435
-54.05909094
-48.56514949
-46.79754111
-52.2987353
-50.39741201
-56.11114853
-62.36768726
-64.75360885
-59.45761569
-75.00960473
-69.93988832
-67.35952897
-75.39195083
-72.61531326
-77.87947938
-81.65065419
-84.77491577
-79.95656662
-94.00955309
-89.45917342
-86.16804054
-96.40334511
-92.86938068
-97.57659602
13.20611685
13.85844514
2.704620415
2.923855039
8.092991167
-7.308711419
-2.194296873
-2.213042741
-2.130500643
-2.167007127
-7.491582065
-16.83970458
-17.42282285
-12.38299499
-27.36312161
-22.41759506
-21.63717308
-24.04671469
-23.22034043
-28.3684356
-35.72557232
-37.08311978
-32.25336582
-46.54049943
-41.84727036
-40.30347744
-45.09113413
-43.44213785
-48.32461994
-53.61273914
-55.69213294
-51.15730173
-64.49296897
-60.13923744
-57.89011824
-64.8694271
-62.46421622
-66.98818512
-70.17140384
-72.89953023
-68.74809121
-80.87689685
-76.94244343
-74.06587923
-82.98816876
-79.91552453
-83.99036445
10.89113066
11.42939812
1.96898403
2.133566447
6.524541384
-6.571712669
-2.224001366
-2.214376084
-2.223860753
-2.227333389
-6.756492704
-14.64030723
-15.17149254
-10.88681616
-23.62400587
-19.41829337
-18.71602475
-20.87787634
-20.13859126
-24.51949595
-30.69089332
-31.89447521
-27.78406741
-39.95047704
-35.95131357
-34.58549207
-38.80794395
-37.35803463
-41.52193664
-45.92419894
-47.75862338
-43.88769502
-55.28317275
-51.55865689
-49.57491124
-55.7128141
-53.6035072