/*--------------------------------*- C++ -*----------------------------------*\
| =========                 |                                                 |
| \\      /  F ield         | OpenFOAM: The Open Source CFD Toolbox           |
|  \\    /   O peration     | Version:  v2012                                 |
|   \\  /    A nd           | Website:  www.openfoam.com                      |
|    \\/     M anipulation  |                                                 |
\*---------------------------------------------------------------------------*/
FoamFile
{
    version     2.0;
    format      ascii;
    class       surfaceScalarField;
    location    "1.59";
    object      meshPhi;
}
// * * * * * * * * * * * * * * * * * * * * * * * * * * * * * * * * * * * * * //

dimensions      [0 3 -1 0 0 0 0];
oriented        oriented;


internalField   nonuniform List<scalar> 
6430
(
0
0
0
0
0
0
0
0
0
0
0
0
0
0
0
0
-7.764357268e-06
0
1.086614009e-05
6.177635024e-05
7.058112147e-05
-7.717180497e-05
-0.0003203815289
8.331619983e-05
0.0005126753963
-0.0002206321652
-0.001264354107
0.0002217070831
0.001533647765
-0.000137382257
-0.002248449632
0.0001418698733
0.002419213819
6.036939951e-05
-0.002641963981
-5.960254048e-05
0.001319111289
0.001322085834
2.701252735e-05
-0.0006585422425
-2.683287511e-05
0.0006583625903
0
0
0
0
0
0
0
0
0
0
0
0
0
0
0
0
-1.191358181e-05
0
9.589105656e-06
8.34959733e-05
7.65951906e-05
-9.259512562e-05
-0.0003766332817
8.941347019e-05
0.000588924411
-0.0002296241359
-0.001377509523
0.0002264847196
0.001653207121
-0.0001267501976
-0.002356506799
0.0001297470397
0.002516622509
6.274607602e-05
-0.002692197479
-6.274607604e-05
0.00134485687
0.001347340609
2.846044439e-05
-0.00134485687
-5.780186984e-05
2.934142546e-05
0.000671727295
0.0006731295752
0
0
0
0
0
0
0
0
0
0
0
0
0
0
0
0
-5.726295155e-06
0
2.000395568e-06
3.850307767e-05
2.411273798e-05
-6.739257476e-05
-0.0002717992671
5.718370102e-05
0.0004588351686
-0.0002003250323
-0.001203662441
0.0001859630661
0.001477386091
-0.0001435774566
-0.002216181732
0.0001466956072
0.00240332272
4.575935079e-05
-0.002716899047
-3.021924361e-05
0.002741675553
5.780186984e-05
-0.002742587288
-0.0001191304169
0.002742587288
6.132854711e-05
0
0
0
0
0
0
0
0
0
0
0
0
0
0
0
0
-4.738426626e-08
0
0
2.116157547e-07
0
-2.563777747e-05
-9.23429751e-05
1.679097239e-05
0.0002083996074
-0.0001292222996
-0.0007757559394
0.0001076936102
0.00101096368
-0.0001397046708
-0.001722326539
0.0001306860055
0.001932421404
-1.361483721e-05
-0.002403877886
2.484983965e-05
0.002503244457
0.0001023667978
-0.002656518181
-8.902701798e-05
0.002671073125
0
0
0
0
0
0
0
0
0
0
0
0
0
0
0
0
0
0
0
0
0
-1.430510076e-06
-2.078056069e-07
2.181479373e-07
1.570157035e-05
-4.70241065e-05
-0.0002746110986
3.097297875e-05
0.0004194706613
-8.746972355e-05
-0.0009387266794
7.035820967e-05
0.001116259139
-4.155348395e-05
-0.001577877488
4.110806306e-05
0.001694807185
4.105315145e-05
-0.001909192411
-2.650991203e-05
0.001934217921
0
0
0
0
0
0
0
0
0
0
0
0
0
0
0
0
0
0
0
0
0
0
0
0
0
-2.936086953e-06
-7.000063061e-06
4.174618307e-07
3.260164506e-05
-2.44814252e-05
-0.0002280549156
1.372229818e-05
0.0003177028263
-2.646018325e-05
-0.0005931669031
1.942851464e-05
0.0006730990266
-7.457848778e-07
-0.0008348031504
3.838810144e-06
0.0008570205078
0
0
0
0
0
0
0
0
0
0
0
0
0
0
0
0
0
0
0
0
0
0
0
0
0
0
0
0
0
-6.232177686e-08
0
0
1.155050569e-06
-2.670247464e-06
-3.169707801e-05
4.10010207e-07
4.911766168e-05
-2.265054498e-06
-9.558263303e-05
8.326816683e-07
0.0001036978196
0
0
0
0
0
0
0
0
0
0
0
0
0
0
0
0
0
0
0
0
0
0
0
0
0
0
0
0
0
0
0
0
0
0
0
0
0
0
0
0
0
0
0
0
0
0
0
0
0
0
0
0
0
0
0
0
0
0
0
0
0
0
0
0
0
0
0
0
0
0
0
0
0
0
0
0
0
0
0
0
0
0
0
0
0
0
0
0
0
0
0
0
0
0
0
0
0
0
0
0
0
0
0
0
0
0
0
0
0
0
0
0
0
0
0
0
0
0
0
0
0
0
0
0
0
0
0
0
0
0
0
0
0
0
0
0
0
0
0
0
0
0
0
0
0
0
0
0
0
0
0
0
0
0
0
0
0
0
0
0
0
0
0
0
0
0
0
0
0
0
0
0
0
0
0
0
0
0
0
0
0
0
0
0
0
0
0
0
0
0
0
0
0
0
0
0
0
0
0
0
0
0
0
0
0
0
0
0
0
0
0
0
0
0
0
0
0
0
0
0
0
0
0
0
0
0
0
0
0
0
0
0
0
0
0
0
0
0
0
0
0
0
0
0
0
0
0
0
0
0
0
0
0
0
0
0
0
0
0
0
0
0
0
0
0
0
0
0
0
0
0
0
0
0
0
0
0
0
0
0
0
0
0
0
0
0
0
0
0
0
0
0
0
0
0
0
0
0
0
0
0
0
0
0
0
0
0
0
0
0
0
0
0
0
0
0
0
0
0
0
0
0
0
0
0
0
0
0
0
0
0
0
0
0
0
0
0
0
0
0
0
0
0
0
0
0
0
0
0
0
0
0
0
0
0
0
0
0
0
0
0
0
0
0
0
0
0
0
0
0
0
0
0
0
0
0
0
0
0
0
0
0
0
0
0
0
0
0
0
0
0
0
0
0
0
0
0
0
0
0
0
0
0
0
0
0
0
0
0
0
0
0
0
0
0
0
0
0
0
0
0
0
0
0
0
0
0
0
0
0
0
0
0
0
0
0
0
0
0
0
0
0
0
0
0
0
0
0
0
0
0
0
0
0
0
0
0
0
0
0
0
0
0
0
0
0
0
0
0
0
0
0
0
0
0
0
0
0
0
0
0
0
0
0
0
0
0
0
0
0
0
0
0
0
0
0
0
0
0
0
0
0
0
0
0
0
0
0
0
0
0
0
0
0
0
0
0
0
0
0
0
0
0
0
0
0
0
0
0
0
0
0
0
0
0
0
0
0
0
0
0
0
0
0
0
0
0
0
0
0
0
0
0
0
0
0
0
0
0
0
0
0
0
0
0
0
0
0
0
0
0
0
0
0
0
0
0
0
0
0
0
0
0
0
0
0
0
0
0
0
0
0
0
0
0
0
0
0
0
0
0
0
0
0
0
0
0
0
0
0
0
0
0
0
0
0
0
0
0
0
0
0
0
0
0
0
0
0
0
0
0
0
0
0
0
0
0
0
0
0
0
0
0
0
0
0
0
0
0
0
0
0
0
0
0
0
0
0
0
0
0
0
0
0
0
0
0
0
0
0
0
0
0
0
0
0
0
0
0
0
0
0
0
0
0
0
0
0
0
0
0
0
0
-0.000658381212
0.0006583855509
2.700818844e-05
-0.0006715735785
0.0006715735785
2.846044439e-05
-0.002629794248
6.002387354e-05
0.001313512212
0.001316627561
-5.155527072e-05
0.0006581593291
5.170376556e-05
-0.001316689036
-0.002649038237
6.516397154e-05
0.00130487402
0.001341746322
-5.428023724e-05
0.000670172743
5.428023725e-05
-0.001341746322
0.0006605966058
-0.001319123294
-5.1570825e-05
-2.703899825e-05
-0.0006646106099
0.000664549289
2.710031918e-05
-1.711990431e-05
0.0003292484812
1.830114548e-05
-0.0003304297223
1.978033614e-05
0.0003269425536
-0.0003275792201
-1.914366961e-05
-0.001366627821
0.001366627821
5.780186985e-05
0.0003284560227
2.018500323e-05
-0.0003288606898
-1.942375949e-05
0.0003276238487
2.025593344e-05
0.0006772425358
-3.268409761e-05
-0.0006739955625
1.404275111e-05
1.539437328e-05
0.0003293783509
-0.000330120792
-1.637746328e-05
-0.0006651300862
-2.691782684e-05
0.0006650089148
1.388221431e-05
-1.350057116e-05
0.0003289967078
-3.542004612e-05
0.0006774671775
1.551983429e-05
1.967557006e-05
-1.85956366e-05
0.0003261144307
1.471832009e-05
0.0003284123754
-0.0003269037045
-2.143770313e-05
1.376880361e-05
0.000329781209
-0.0003304995117
-1.305050094e-05
2.955217313e-05
-0.0006620083734
-2.950522245e-05
0.0006619614228
-2.951073867e-05
-0.000664482363
2.983380951e-05
0.0003319685024
0.0003321907898
2.984179598e-05
-0.0006582340594
-2.963395359e-05
0.000658026217
-0.0006611683074
0.0006610880423
2.963243822e-05
0.0003283923884
1.463669807e-05
-0.0003292602829
1.54542391e-05
0.0003274779663
-0.0003279102635
-1.502194189e-05
2.98142997e-05
-0.0006567775703
-2.974882534e-05
0.000656712096
-0.0006583268125
0.0006583282206
2.984038796e-05
-0.000655448797
0.0006554967959
2.976630083e-05
0.0003269254472
1.598188458e-05
-0.0003274530927
-1.533616916e-05
0.0003262547364
1.60068799e-05
-1.460628009e-05
0.0003267480772
-0.0006648711597
-2.923168281e-05
0.0003322103205
0.0003323817834
-4.019671125e-06
-0.0007378554679
1.960228584e-05
0.0003458227316
0.0003764501216
0.0003811052367
-2.412168971e-06
1.026756368e-05
-0.0003889606314
8.010834883e-05
-4.792018558e-06
0.0003057889065
-1.109634153e-05
1.090564148e-05
-0.0003321103605
1.557563939e-05
0.0003310626255
-0.0003317541474
-1.488411747e-05
-1.340004414e-05
0.0003273518082
1.444062432e-05
-0.0001003871936
4.117438438e-05
-0.0002676908952
0.0003309125732
1.658335286e-05
-0.0003319202867
0.0003348081916
-0.0004233935777
-1.180180747e-05
-1.216953714e-05
0.000328550702
-1.894124124e-05
-1.422364296e-05
1.521894257e-05
-0.002724672221
0.00272956838
5.854321156e-05
-0.0001050362427
-0.002729512505
0.001362884684
5.075600544e-05
5.428023725e-05
-0.00134485687
-5.428023725e-05
-5.780186984e-05
-0.001354187071
0.001354187071
5.780186984e-05
0.001354187071
-6.837486834e-05
6.837486835e-05
-0.001354187071
0.0006742591674
-0.0006729624772
-3.398078784e-05
0.0003372276376
1.754397359e-05
-0.0003357614437
-1.901016744e-05
1.609379312e-05
-0.000333230725
-1.652476129e-05
0.0003336616932
-1.640227644e-05
-0.0003320093486
0.00033171886
1.6692765e-05
-3.548593142e-05
0.0006743250527
-7.190017059e-05
0.001354187071
7.190017061e-05
-1.811148612e-05
-0.0003251797639
0.0003245400277
1.875122224e-05
1.537219128e-05
-0.0003331010556
-1.851746476e-05
0.0003362463291
0.0004699927822
-0.0003813921702
-9.101278105e-05
-0.0006389805691
-3.2041815e-05
0.0003577581781
0.0003092445349
-0.0006715653194
-3.136909164e-05
0.0006709326783
3.200173274e-05
-0.0003319214664
-1.602032648e-05
0.0003315395165
-1.512096017e-05
-0.0003332916179
0.0003331185638
1.529401432e-05
0.0003308634248
-1.364122199e-05
1.459595983e-05
-0.0003318181626
-1.316195828e-05
-1.223721731e-05
1.256962979e-05
0.0003305310123
-9.473277326e-05
0.0003278358805
2.812476819e-05
-0.0002612278754
0.0006716072098
-3.881271971e-05
3.949430432e-05
-0.0006722887944
-0.000321396668
-1.211089139e-05
0.0005501011311
-1.643906744e-05
-0.0003290503656
0.000328336694
1.715273905e-05
9.891267704e-05
-3.891555028e-05
0.0002772305108
1.488956219e-05
-0.0003308153712
-1.495395512e-05
0.0003308797642
-0.0003316734655
0.0003323438984
1.542336025e-05
0.0003383522896
1.442721955e-05
-0.0003352355356
0.0003291990212
1.690391646e-05
-0.0003299354541
-1.61674836e-05
1.557400547e-05
-0.0003310232491
-1.543096323e-05
0.0003308802069
-0.0003302855084
0.0003300514301
1.512364048e-05
-0.0003250379163
-1.745866095e-05
0.0003243850911
-0.0003319443444
0.0003334742265
1.384230917e-05
0.0003319758171
-0.0003332037269
-1.241331223e-05
-0.0003338042755
-1.513223493e-05
0.0003338155502
-1.958443269e-05
-0.0003762462232
0.0003788316935
1.699896236e-05
0.0003158666177
-7.765127222e-05
3.628043191e-05
-0.0002744957774
0.0003327186661
-0.0004178502211
-9.601218316e-06
-1.015770856e-05
0.0003298963083
2.8948195e-05
-9.471002269e-05
0.0003304441557
-0.000264682328
-1.652117778e-05
0.0003304804354
1.387662291e-05
-1.181685464e-05
0.0003315561402
1.233491471e-05
-0.0003320742002
-1.579935803e-05
0.0003285593118
3.541515973e-05
-0.0004545757271
1.710558605e-05
0.0003326992669
-0.0003327336264
-1.707122652e-05
0.0003268084423
-3.204809367e-05
-0.0002658121536
0.0003330851124
1.877240271e-05
-0.0003347519291
0.0004266229394
1.064202724e-05
1.625360504e-05
-0.0003284701075
-1.606208497e-05
0.0003282785874
-0.0003309222659
0.0003308049621
1.569130929e-05
1.770821391e-05
-0.000329854663
1.651025465e-05
-0.0003311313183
-1.847999196e-05
1.572452108e-05
-0.0003292366758
-1.593199724e-05
0.0003294441519
-0.0003289686842
0.0003290529697
1.616931955e-05
1.943121925e-05
-1.616435613e-05
0.0003243569856
-0.0003303303674
4.004992461e-05
0.000309711662
2.034531258e-05
-0.0003304197465
-1.283124622e-05
-0.0003293698679
0.0003287005429
0.0003262571135
-1.795775267e-05
-0.0003268949974
1.502453835e-05
-1.452440159e-05
0.0003257569768
0.0003249746129
1.845478158e-05
-0.0003305865945
0.000326850133
1.536301168e-05
-0.0003282391269
-1.53513037e-05
0.0003282274189
-0.0003289552462
0.0003292232709
1.545649637e-05
1.514235736e-05
-0.0003305764471
1.765112007e-05
-0.000325570801
-1.711823532e-05
1.573149019e-05
-0.0003261849149
-1.563594736e-05
0.0003260893721
-0.0003280388976
0.0003279517417
1.545016763e-05
1.595846185e-05
-1.523402921e-05
0.0003255303038
-0.0003257189491
0.0003250741727
1.660323818e-05
-0.000326447214
1.673514479e-05
0.0003276810494
-1.396986395e-05
-0.0003283174656
1.43895675e-05
-1.324004158e-05
0.0003265315235
0.0003259036155
-0.0003510946177
0.0003496100106
1.175217076e-05
-1.622154306e-05
1.426275297e-05
-0.0003491358276
-2.193603947e-05
-0.000383246135
0.0003379353395
3.120009707e-05
-0.0003691354366
8.037116564e-06
0.0003367808755
-0.0003308352111
-1.186362376e-05
-1.574025258e-05
0.0003319377409
-2.133425019e-05
0.0003174700775
1.973079042e-05
1.341152879e-05
-1.246823951e-05
0.0003264085189
-0.000327635256
1.384805062e-05
0.0003271987342
1.515891537e-05
-0.000328353547
8.733354962e-06
-0.0002817314611
3.020084104e-05
-0.0004535944188
0.0003267306041
-3.101482044e-05
-0.0002655149426
-1.731055864e-05
0.0003322393552
0.0003306195186
-1.087445165e-05
-0.0003319146041
1.151246601e-05
-6.196132896e-06
0.0003253031855
0.0003275949285
-1.792357271e-05
1.940520062e-05
-1.569470987e-05
-0.0003246196772
0.0003244202227
-1.528954494e-05
-0.000323988636
0.0003235834711
-0.0004243758159
-2.593205039e-05
0.0004503078663
0.0003341932688
-0.000332365421
9.99786018e-05
0.0002742645917
1.184911503e-05
-0.0003633070124
-2.020307051e-05
0.0003639256502
-1.439658573e-05
-0.0003346394912
0.0003351667655
1.386931149e-05
0.0003484015576
-6.364255316e-06
-2.296288275e-06
-0.000339741014
-0.0003312105697
0.0003302513641
1.555516544e-05
-1.532383242e-05
1.620846293e-05
-0.0003320952002
-1.447022691e-05
-0.0003326717681
0.0003299897477
-3.327220164e-05
0.0003256586352
-0.0002642616654
0.0004230942429
-0.0004563664446
-6.375703818e-06
0.0003720916462
-1.731438483e-05
-2.810125149e-05
0.0003423094251
3.409706062e-05
-0.0003483052342
0.0002881718632
-0.0003528229125
-1.300022294e-05
1.422955624e-05
-1.409699317e-05
0.0003282041309
-0.0003273188748
0.0003270240294
-0.0003281238884
-0.0003335750942
0.0003131143255
-1.428538709e-05
1.447975986e-05
0.0003248798
-1.402012744e-05
0.0003252650441
-1.485949965e-05
-0.0003238188899
0.0003233888446
-0.0003242780923
0.0003238983525
1.194884384e-05
0.0003333744977
-0.0003296682683
0.0003283770705
-0.0003297958231
-7.0188371e-06
1.270176282e-05
0.0003226941448
0.0003004236102
-1.357794852e-05
0.0003254614366
0.0003256553378
-1.396629921e-05
-0.0003337076546
0.0003382593573
-0.0003379629036
0.0003375982159
-0.0003068489047
1.409277836e-05
0.0003290365583
-8.363371373e-05
2.492212786e-05
-0.0002481373189
-2.019415162e-05
3.343952118e-05
-0.0004512897423
0.0003181042053
-0.0002597425563
0.0003225957654
0.0003354776239
0.0003353020472
-6.917826921e-06
1.499772521e-05
0.0003342265007
-1.39221788e-05
1.393763377e-05
0.0003315042471
0.0003282209144
-0.0003288613571
1.397355169e-05
0.0003280954133
0.0003284358703
-0.0002730431931
2.940944198e-05
-9.596351158e-05
0.0003290113193
-0.0002624572497
-3.153403582e-05
0.0003268370175
-0.0002658935397
8.544419894e-06
0.0003322016562
-0.0004212193121
0.0003338002204
-0.0004532674057
0.0004228282791
-0.0004543623149
-0.0003294186626
0.0003308805066
-9.738698581e-05
-0.0002630464972
-9.31063578e-06
-2.766221706e-05
0.0004542851565
-0.0003349910453
0.0003011326954
-0.0003352234697
-0.0003098628081
0.0005031564603
-7.748457717e-05
0.00125023672
0.0002037331416
-0.0001954296265
-0.0009833881691
0.001518415575
-0.0002189012682
0.002228703139
0.0001836918554
-0.0001833212225
-0.002017982142
0.002401304771
-0.0001376570864
-3.286083096e-05
3.090668834e-05
-0.002605947543
-0.0003654949609
0.000570880021
-9.057252202e-05
0.001335780632
0.000210128144
-0.00020890535
-0.00106624126
-0.0009828680909
0.0002000065567
0.001605107891
-0.0002291646106
0.002301785199
0.0001771470754
-0.0001790500655
-0.002098590389
-0.002036478452
0.0001809339359
0.002463997021
-0.0001290991533
-4.288138058e-05
4.229755858e-05
-0.002639371655
-0.002621037486
-3.491340697e-05
-5.226837838e-05
-0.002662396516
0.001325179869
0.001329882485
-3.876336018e-05
0.001329584211
3.875669335e-05
-0.001329577545
3.872232682e-05
0.001319072791
-0.001319059173
-3.873594544e-05
-2.70285195e-05
-0.0006613483053
0.0006612931443
2.708368058e-05
-2.895015322e-05
2.901605603e-05
-0.0006612342102
2.910365898e-05
-0.0006582407682
-2.909695011e-05
-0.0003095192453
0.0005071317139
-7.647564125e-05
0.001273850918
0.0001764900748
-0.0001893411084
-0.000999947304
-0.001100333137
0.0002062766841
0.00155038818
-0.0002118913156
0.002280860253
0.0001804549973
-0.0001807997617
-0.002064429023
-0.002153348309
0.0001784456962
0.002459058995
-0.000139047148
-2.89677597e-06
1.737990381e-05
-0.00268192758
-0.002684408582
-3.900054173e-05
0.002705263594
-6.267734641e-05
-0.00270527437
-7.684117295e-05
0.001354187071
3.665770919e-05
4.018346377e-05
0.001351076523
4.018346377e-05
0.00134485687
-0.00134485687
-4.018346377e-05
-5.780186985e-05
-0.001347340609
0.0006732818469
0.0006740587619
-3.110346447e-05
0.0006740587619
3.110346447e-05
-0.0006740587619
3.110621748e-05
0.000671724542
-0.000671727295
-3.110346447e-05
-0.0001363361405
0.0002740832167
-3.56989382e-05
0.0008995138563
0.0001040406815
-0.0001241755734
-0.0006639713882
-0.0009350189267
0.0001610395324
0.001149066822
-0.0001499165098
0.001880208979
0.0001535706786
-0.0001649016332
-0.001648999412
-0.001994005875
0.0001780786444
0.002088367223
-0.0001452928205
0.002531864047
4.983906414e-05
-3.936350826e-05
-0.002416052125
-0.002654451774
1.210665056e-05
0.00261718858
-2.435883108e-07
0.002732964692
-7.937387576e-05
9.169972201e-05
-0.002712513045
-0.002742587288
-0.0001050362427
0.002741813954
0.000112522379
-6.057658007e-06
4.606678617e-05
-4.459224176e-06
0.0003906987225
3.103381015e-05
-4.651992815e-05
-0.0002430904381
-0.0005575685385
8.381288434e-05
0.0005624914487
-6.569414786e-05
0.001146232636
8.4565273e-05
-0.0001038824352
-0.0009480987028
-0.001493492921
0.0001392382843
0.00133815894
-0.0001038555054
0.001821283864
6.001561935e-05
-6.239799803e-05
-0.001679915319
-0.002275705448
5.73578952e-05
0.001939634629
-3.903621318e-05
0.002150961176
-2.177739211e-05
3.544427676e-05
-0.002104264853
-0.002625963726
-6.52632282e-05
0.002174762214
5.711661329e-05
0
0
0
3.577122617e-05
5.816051987e-07
-3.308551277e-06
-6.814332677e-06
-0.0001553762972
1.848261006e-05
9.13266037e-05
-8.748344647e-06
0.0003730564377
1.91137263e-05
-3.198150299e-05
-0.0002650665662
-0.0007587619498
6.549761931e-05
0.0004878510056
-3.796313416e-05
0.0008214482864
2.941085266e-05
-3.873982208e-05
-0.0007167502556
-0.001440407327
5.484356651e-05
0.0009144676231
-3.293411484e-05
0.001097676986
8.022013937e-06
-4.867672785e-06
-0.00105442063
-0.001860993473
-1.014902248e-05
0.00112176822
5.252923082e-06
0
0
0
0
0
0
0
0
0
0
0
6.847963652e-06
0
-4.507809356e-07
-4.530146799e-07
-0.0001474472384
9.516899826e-06
2.070224789e-05
-1.581422186e-06
0.000106762895
1.972790375e-06
-6.10702222e-06
-7.368990642e-05
-0.0005047317624
2.036435141e-05
0.0001401426264
-6.867461769e-06
0.0002175478875
2.83597765e-06
-5.266376901e-06
-0.0001975408783
-0.0007959400496
8.680254388e-06
0.0002299328186
-3.779466469e-06
0
0
0
0
0
0
0
0
0
0
0
0
0
0
0
0
0
0
0
0
0
0
0
-1.70057411e-05
1.426896978e-07
0
0
0
0
0
0
-8.291124916e-05
9.284010399e-07
0
0
0
0
0
0
0
0
0
0
0
0
0
0
0
0
0
0
0
0
0
0
0
0
0
0
0
0
0
0
0
0
0
0
0
0
0
0
0
0
0
0
0
0
0
0
0
0
0
0
0
0
0
0
0
0
0
0
0
0
0
0
0
0
0
0
0
0
0
0
0
0
0
0
0
0
0
0
0
0
0
0
0
0
0
0
0
0
0
0
0
0
0
0
0
0
0
0
0
0
0
0
0
0
0
0
0
0
0
0
0
0
0
0
0
0
0
0
0
0
0
0
0
0
0
0
0
0
0
0
0
0
0
0
0
0
0
0
0
0
0
0
0
0
0
0
0
0
0
0
0
0
0
0
0
0
0
0
0
0
0
0
0
0
0
0
0
0
0
0
0
0
0
0
0
0
0
0
0
0
0
0
0
0
0
0
0
0
0
0
0
0
0
0
0
0
0
0
0
0
0
0
0
0
0
0
0
0
0
0
0
0
0
0
0
0
0
0
0
0
0
0
0
0
0
0
0
0
0
0
0
0
0
0
0
0
0
0
0
0
0
0
0
0
0
0
0
0
0
0
0
0
0
0
0
0
0
0
0
0
0
0
0
0
0
0
0
0
0
0
0
0
0
0
0
0
0
0
0
0
0
0
0
0
0
0
0
0
0
0
0
0
0
0
0
0
0
0
0
0
0
0
0
0
0
0
0
0
0
0
0
0
0
0
0
0
0
0
0
0
0
0
0
0
0
0
0
0
0
0
0
0
0
0
0
0
0
0
0
0
0
0
0
0
0
0
0
0
0
0
0
0
0
0
0
0
0
0
0
0
0
0
0
0
0
0
0
0
0
0
0
0
0
0
0
0
0
0
0
0
0
0
0
0
0
0
0
0
0
0
0
0
0
0
0
0
0
0
0
0
0
0
0
0
0
0
0
0
0
0
0
0
0
0
0
0
0
0
0
0
0
0
0
0
0
0
0
0
0
0
0
0
0
0
0
0
0
0
0
0
0
0
0
0
0
0
0
0
0
0
0
0
0
0
0
0
0
0
0
0
0
0
0
0
0
0
0
0
0
0
0
0
0
0
0
0
0
0
0
0
0
0
0
0
0
0
0
0
0
0
0
0
0
0
0
0
0
0
0
0
0
0
0
0
0
0
0
0
0
0
0
0
0
0
0
0
0
0
0
0
0
0
0
0
0
0
0
0
0
0
0
0
0
0
0
0
0
0
0
0
0
0
0
0
0
0
0
0
0
0
0
0
0
0
0
0
0
0
0
0
0
0
0
0
0
0
0
0
0
0
0
0
0
0
0
0
0
0
0
0
0
0
0
0
0
0
0
0
0
0
0
0
0
2.916596609e-05
-0.0006583891197
2.910336242e-05
-0.0006567206324
-2.916030038e-05
2.693934054e-05
-0.0006566572704
-2.700454633e-05
0.0006567224762
3.111180043e-05
-0.0006715709024
2.88129866e-05
-0.0006366679131
-3.112564263e-05
2.537297932e-05
-0.0006340432425
-2.846044439e-05
0.0006371307076
-3.967411162e-05
3.969740797e-05
0.001316713976
3.864967672e-05
-0.001316641326
0.001306974272
-0.001306960009
-3.868078861e-05
-0.002616834854
0.00130694845
0.001309926806
0.0006534822897
-0.001307020207
-5.175599471e-05
-4.194527462e-05
0.001306991262
-4.20526479e-05
0.001316728105
4.203851938e-05
0.001341746322
4.018346377e-05
-0.001341746322
0.001341044168
-0.001341104124
-3.87034046e-05
-0.002721439858
0.001343268823
0.001391066628
5.149046766e-05
0.000667467045
-0.001341366939
-4.27206595e-05
4.209740737e-05
-4.234919659e-05
0.001341295958
-4.370769559e-05
0.001341746322
4.370769558e-05
-4.206750234e-05
0.001319087646
0.001329591505
4.209011337e-05
0.0006646452653
5.190887377e-05
-0.001329674281
-2.89516539e-05
2.902153493e-05
-0.000664552244
-0.0006620048569
-2.895366972e-05
-0.0006619965061
-2.703217715e-05
0.0006620001638
-0.00033126423
1.897878102e-05
-1.864026447e-05
1.901400027e-05
-0.0003316379658
-1.784702253e-05
-0.0003312229643
-1.830374372e-05
1.872238114e-05
-0.0003279978576
0.0003275794597
-0.0003280469967
-1.783620671e-05
-1.845920732e-05
0.001366627821
-6.837486834e-05
6.837486834e-05
-0.001366627821
0.00135729762
-0.00135729762
-6.837486832e-05
-0.00135729762
-5.780186982e-05
0.00135729762
-7.190017059e-05
0.00135729762
-7.19001706e-05
0.001366627821
7.190017061e-05
-0.0006723673823
-3.903953625e-05
-0.0006740590987
3.903386428e-05
-0.0003300963124
1.986156908e-05
-1.890055532e-05
1.857680847e-05
-0.0003297725655
-0.000329038864
-0.0003262814519
0.0003262002586
1.581268346e-05
1.810745101e-05
-0.0003256360948
-0.0006555189078
0.0006555182927
2.693995564e-05
2.91710163e-05
-0.0006555164509
0.0003473262516
-0.0003421635404
-1.15269665e-05
-0.0003355292478
-1.494029983e-05
0.0003360729619
-0.0006721582637
-3.249604627e-05
1.554687325e-05
1.511187413e-05
-1.703412632e-05
-0.0003309336882
0.0003301921657
-0.0003310178291
-0.0007330696928
0.0007341532391
2.428943307e-05
2.866893521e-05
-0.0007377114165
-0.0006649416373
-2.888117631e-05
0.0006742496323
-3.829740656e-05
1.995197437e-05
2.156297739e-05
0.0003397542756
-0.000345639839
-2.221568818e-05
-1.400043248e-05
0.0003549509803
-1.405330578e-05
1.434838589e-05
-0.0003307945918
0.0003321332817
-0.000331838816
-1.434777154e-05
-1.283182328e-05
0.0006624121656
-2.927268065e-05
-0.0006626447074
2.995759416e-05
-1.547554359e-05
0.0003312342545
-1.497760495e-05
2.983820072e-05
0.000331265445
-1.566483812e-05
1.577278789e-05
-0.0003321172983
-0.0003329566688
-1.574959988e-05
-0.0006649020479
0.0003328330588
0.0003326301179
0.0006607419215
-2.966245915e-05
-0.000660713416
3.00216173e-05
-3.023618138e-05
0.0003300342197
3.100039716e-05
0.0003285773297
3.039009492e-05
0.0003302506397
-0.0006615846584
0.0003307153228
-0.0006616146793
-0.0003291538793
1.543703035e-05
-1.485423933e-05
1.539033873e-05
-0.0003296899787
-0.0003297661363
-1.532460326e-05
1.547848769e-05
-0.0003280641479
0.0003285266744
-0.0003285934282
-1.525784942e-05
-1.481273306e-05
0.0006575790704
-2.97450472e-05
-0.0006575828486
3.036348266e-05
-3.048031715e-05
0.0003287406587
3.031608843e-05
0.0003285203633
3.080943231e-05
0.0003295505012
-0.000658237755
0.0003293301944
-0.0006581424142
0.0006532153111
-2.990910724e-05
-0.000653349562
-3.075741542e-05
0.0003267153527
3.023396513e-05
0.0003275400216
-0.0006535589785
0.0003268506133
-0.0006537017849
-0.0003270466763
1.65813469e-05
-1.585121045e-05
1.611696023e-05
-0.000327312426
-0.0003278258154
-2.876948829e-05
-0.0006671525045
0.0003332649607
0.0003334253493
-1.49659151e-05
1.507973492e-05
-0.0003334054378
-0.0003321761927
-1.541011179e-05
-1.741861659e-05
1.612040172e-05
-0.0003749480083
-0.0003337634527
-1.500673784e-05
-0.0006794637541
0.0003337672847
0.000336529267
-0.000325485961
1.156785747e-05
-1.341250257e-05
1.401803232e-05
-0.0003260914907
-0.0003186046932
-2.691816988e-05
-1.613683148e-05
1.588693125e-05
0.000332931903
-1.484223371e-05
-1.347339865e-05
0.0003315211841
-0.0003326499355
1.767199193e-05
0.0003315612964
-1.616830072e-05
1.731858564e-05
-1.909124856e-05
-1.665361391e-05
7.684117295e-05
0.002729512505
-7.59511239e-05
-0.002717705789
0.002717705789
-0.002718242019
5.428023725e-05
-0.00135729762
-5.428023724e-05
-9.093748511e-05
4.370769558e-05
0.00135729762
0.001360408169
4.722978951e-05
-9.093748511e-05
-4.370769558e-05
0.00134485687
0.001354187071
4.370769558e-05
5.428023726e-05
-0.001354187071
6.13285471e-05
0.001354187071
-6.13285471e-05
-0.001351076523
0.001351076523
3.022508264e-05
-0.001351076523
-0.001351076523
3.462807773e-05
0.001351076829
3.374648455e-05
-6.485277892e-05
3.198444553e-05
3.286833339e-05
-6.485277892e-05
-3.198727543e-05
0.0006723427258
0.0006740587619
3.198444554e-05
0.0006740602922
3.462654745e-05
-0.0006740587619
-1.872028866e-05
-0.0003345501253
1.750897027e-05
0.0003336064806
-0.000333312769
0.0003330723208
-1.67863364e-05
-0.0003328107457
1.772418377e-05
-1.796463197e-05
1.683575165e-05
1.78205941e-05
-1.732469836e-05
-0.0003317820037
-0.0003318755751
-3.550908955e-05
0.0006740612718
3.550810987e-05
-3.81528294e-05
3.815380907e-05
-0.0006740600784
-0.0006730152874
-3.816481463e-05
7.542431015e-05
-7.542431015e-05
-0.001351077166
3.727178682e-05
3.639074424e-05
1.835997249e-05
-1.780858078e-05
-0.0003251955675
-0.0003257675684
-3.624391113e-05
-0.0003670842985
0.0002588042851
-0.0002896178721
-5.430324185e-06
0.0001188269267
4.896457741e-05
0.0006687592019
-3.141069497e-05
-0.0006693903219
-3.11249306e-05
0.0003332918828
1.643849096e-05
1.551426754e-05
-0.0003621957015
-1.852992747e-05
3.164596246e-05
-3.287154779e-05
-0.0006707527686
0.0003357445527
-0.0006701617308
0.000331700929
-1.568530232e-05
-0.0003320359531
1.67188701e-05
-1.603577022e-05
1.542314224e-05
-1.49763466e-05
-0.0003327078282
-0.0003330991162
1.147178382e-05
-0.0006722153671
4.086196166e-05
0.0006708477098
-3.991041273e-05
2.448525612e-05
-0.0003398588947
2.282295981e-05
-3.794957485e-05
-2.122284547e-05
0.0002880604585
0.0003382100758
2.858460537e-05
1.050385765e-05
0.0001151350121
0.000529818802
-0.0003368872122
-0.0002777084979
5.037286839e-05
-0.0002044664951
0.0002396634298
-8.556980301e-05
0.0002713842637
-0.0001898112982
0.0003314647842
-1.515329437e-05
1.460752831e-05
-1.498156007e-05
1.469270065e-05
1.578916751e-05
0.0003333904826
-0.0003315043203
0.0003323119278
-0.0003336280735
-1.566391723e-05
-1.599696181e-05
-0.0003305478287
1.660933646e-05
0.0003295918103
-0.0003301984334
0.0003305894313
-1.530507178e-05
1.574822204e-05
-1.535722412e-05
1.608060017e-05
1.497799448e-05
-0.0003300692084
0.0003249172336
-0.0003256407498
1.724237952e-05
0.0003372829692
-1.568428659e-05
-0.0003367309175
1.486845094e-05
-1.55483853e-05
1.749902799e-05
-2.19134695e-05
-0.0003471851849
-0.0003458705092
1.478321566e-05
0.0003319368018
-1.623958212e-05
-0.0003326174312
0.0003334784681
-0.0003327586521
0.0003316201682
-1.412241775e-05
-1.425981616e-05
-1.520724471e-05
0.0003311226602
0.0003317234256
0.0003284192663
-1.590402157e-05
1.712292409e-05
-1.675065458e-05
1.740365394e-05
1.641577273e-05
0.0003304697895
-0.0003298215074
0.0003294866256
-0.0003288748818
-1.722446295e-05
-1.765530288e-05
-0.0003300479437
1.657192823e-05
0.0003309838439
-0.0003300623383
0.0003295575671
-1.61593699e-05
1.670087379e-05
-1.720564502e-05
1.609708202e-05
1.741775966e-05
-0.0003295604509
0.0003285234575
-1.535439791e-05
1.536457231e-05
-1.543454303e-05
1.552784329e-05
1.565731652e-05
0.0003296630364
-0.0003288427572
0.0003290655307
-0.0003294661988
-1.565851751e-05
-1.650727898e-05
-0.0003258911219
1.682759984e-05
0.0003261776382
-0.000326567957
0.0003266997249
-1.548505889e-05
1.597824171e-05
-1.584647381e-05
1.617649187e-05
1.565376955e-05
-0.0003275051303
-1.373161954e-05
-0.0003313634077
0.0003308333154
-0.0003305469026
0.000323496474
-1.66409612e-05
1.566524889e-05
-2.271567754e-05
1.668078077e-05
-1.781539646e-05
-0.0003321263875
0.000301457031
-1.591697671e-05
-0.0003057431248
2.507211779e-05
-1.323295882e-05
1.045507434e-05
0.0003362223494
-1.151065824e-05
-0.0003312442176
0.0003284663331
-0.0003279811432
0.0004445117816
-4.945134326e-06
-8.463798948e-06
3.788819229e-05
0.0003585347333
-2.433127942e-05
-0.0005265046159
0.000359926313
-0.0003471033237
0.0001173622426
0.0002638381417
-3.915282418e-05
5.197581353e-05
-2.892332503e-05
-0.0001016328004
0.0001900064429
0.0002943684626
0
0
0
0
0
0
4.720877747e-05
5.565850325e-05
4.296291582e-05
-4.26605124e-05
-0.0001586686453
0
0
0
0
0
0
0
0
7.799979062e-05
8.11439351e-05
5.440414651e-05
-5.280348897e-05
-0.0001999652099
-0.0001678416016
4.734163011e-05
0.0005436024634
8.73499439e-05
-0.0003432591263
-0.0001247103078
0.000129649482
0.0007758161164
-0.000117108796
0.0007365778492
0.001563470479
-0.001296367771
0.0002265863397
-0.0002265542162
0.0002302694377
0.001820699463
-0.000227208135
0.001794698484
0.002447368007
-0.00226546213
0.0001323785821
-7.901719584e-05
7.500724851e-05
0.002572246824
-8.117570043e-05
0.002545794057
0.0006607231038
-2.695937309e-05
2.769995264e-05
-2.770135941e-05
0.0006607245106
2.775947384e-05
0.0006583030691
0
0
0
0
0
0
0
0
6.613643282e-05
5.301575846e-05
3.633923856e-05
-4.271170645e-05
-0.0001560826127
-0.0002057784802
5.205640156e-05
0.0005733234713
8.394725195e-05
-0.0003631092722
-0.0001316117824
0.000125001075
0.0008169538711
-0.0001354126059
0.0008336469495
0.001638754286
-0.001361500053
0.0002206006097
-0.0002292365061
0.0002252343493
0.001903283229
-0.0002311959042
0.001915560337
0.002514028808
-0.002350104642
0.0001341117562
-7.253105613e-05
7.949692937e-05
0.002629439966
-6.807071974e-05
0.002627292548
0
0
0
0
0
0
0
0
1.171045976e-05
3.332291787e-06
9.849225732e-06
-1.566606911e-05
-4.490773836e-05
-0.0001298038949
2.938488602e-05
0.0004021905811
4.641845113e-05
-0.0002287647637
-9.145150666e-05
7.731174777e-05
0.0006141586116
-0.0001044916692
0.0006831063427
0.001384738459
-0.001116248766
0.0001690294655
-0.000198415395
0.0001839738328
0.001649774683
-0.000210054392
0.001744508646
0.002323449141
-0.002127682555
0.0001474955572
-0.0001053535683
0.0001118219939
0.002482710082
-9.706331729e-05
0.002550197991
0.002732491554
-0.002685111516
-1.461836657e-05
6.500939005e-05
-5.038680405e-05
0.002751666595
0.002742536118
0.002754388227
-0.002754254764
-0.0001187988894
0.0001332276472
-0.0001332276473
0.002754388227
0.002742587288