/*--------------------------------*- C++ -*----------------------------------*\
| =========                 |                                                 |
| \\      /  F ield         | OpenFOAM: The Open Source CFD Toolbox           |
|  \\    /   O peration     | Version:  v2012                                 |
|   \\  /    A nd           | Website:  www.openfoam.com                      |
|    \\/     M anipulation  |                                                 |
\*---------------------------------------------------------------------------*/
FoamFile
{
    version     2.0;
    format      ascii;
    class       volScalarField;
    location    "2";
    object      k;
}
// * * * * * * * * * * * * * * * * * * * * * * * * * * * * * * * * * * * * * //

dimensions      [0 2 -2 0 0 0 0];


internalField   nonuniform List<scalar> 
3019
(
36.90870873
36.90877712
36.90891949
36.9091595
36.95448798
36.95543502
36.95712669
36.96070464
36.96750693
36.97843589
36.99204962
37.0048383
36.72747851
36.72771318
36.72805776
36.72893712
36.77508718
36.7799626
36.78981827
36.8260289
36.85787042
36.90953086
36.98019592
37.02747718
36.54753861
36.54817834
36.54933587
36.55168803
36.59970149
36.61195856
36.63569528
36.69405105
36.77108721
36.88964037
37.00966885
37.09252094
36.36892818
36.36975843
36.37181418
36.37694474
36.42960331
36.45503661
36.50760766
36.60689185
36.75999458
36.94005511
37.11659279
37.24798465
36.1922326
36.19374607
36.1978915
36.2084222
36.26862618
36.31486661
36.41407752
36.58189572
36.81082917
37.07101615
37.34249581
37.57492486
36.01688856
36.0192651
36.02628173
36.04410878
36.11957584
36.19811217
36.36910317
36.60638287
36.91884691
37.29809961
37.75870806
38.26661607
35.84430549
35.84851319
35.86079005
35.89141953
35.98382814
36.10751621
36.36867935
36.67241199
37.09396277
37.64829646
38.47540989
39.86481843
35.67564276
35.68204958
35.70080297
35.74769009
35.8619345
36.04454094
36.39288541
36.77474647
37.32438405
38.10705817
39.49722147
42.64715929
35.5144249
35.52447723
35.55289635
35.62100349
35.75880512
36.00844588
36.4380632
36.90519822
37.58622845
38.58918004
40.47870681
45.27624783
35.36259196
35.37648469
35.41505835
35.50617471
35.67585101
35.99528652
36.49951288
37.05207985
37.85084934
39.02547284
41.21428853
46.50787399
35.2238029
35.24319309
35.29521482
35.41477582
35.61240425
35.99951624
36.5733404
37.204864
38.10125573
39.40556511
41.80525127
47.05560801
35.09783658
35.12212904
35.18616759
35.33281963
35.56518427
36.01523859
36.65384464
37.3557993
38.33540341
39.74772677
42.34567316
46.8288176
45.06484751
46.38820499
47.04164053
46.88057533
42.19747766
41.0495561
45.27123297
44.20891178
41.66864937
46.0961237
45.39460846
46.81313222
49.29526641
50.351481
42.22702633
46.40351973
46.16467777
47.02652129
45.27338796
47.47654827
46.41388913
46.60369635
40.08008539
42.71781465
50.07170288
52.31491733
44.97608118
49.57001552
50.47720533
51.18170265
45.95066809
52.0304083
50.59191063
52.51033516
52.18417001
47.68759085
49.11396832
46.89415594
48.72047387
46.67911433
50.49885967
48.84681746
42.86378276
45.13697821
46.9994735
44.06470341
41.30740704
46.54262639
44.21830884
39.88687921
46.57461948
37.71696094
41.15198061
37.95297133
40.25842111
44.00752059
41.92485178
43.89511454
48.31710928
44.47662878
45.81995422
51.24854724
50.81744398
50.62473592
48.70917393
44.23838962
59.49822889
47.8741795
57.23706584
41.96681616
44.38062822
41.51928559
46.12827828
45.74825546
64.78240469
60.07348421
51.22171442
60.54118788
61.66521531
55.24408617
60.13045435
51.52641163
47.1079786
54.36715201
46.99888536
60.67802673
55.2963216
47.83110363
58.1317253
64.59700757
51.35593917
46.77316601
51.26485694
52.62233998
50.72876419
54.58404325
47.22920921
50.22915581
52.55852908
47.79136691
47.65961256
49.78343211
49.67923185
42.96862214
42.78003201
45.44764074
45.28987519
45.61671281
40.05594988
39.9001227
43.96554833
47.25523365
46.25375321
47.80334
47.52804988
48.13997981
47.89107634
46.41450807
46.59940773
46.24831282
41.67193422
48.32949402
48.42065791
48.21631859
42.52632662
43.09994618
47.10707374
44.01119368
47.03240019
46.71098978
47.43249747
47.13550763
44.1638391
43.60522542
37.48084956
37.86218699
33.97491571
34.27620302
41.83933701
46.08544652
41.59965171
42.36808372
38.01158444
38.43930615
44.67739221
40.68785433
33.66884265
33.90432771
33.14189854
39.04715601
57.08782992
56.95417146
51.64135545
52.84459907
63.03404602
62.3291993
61.86004442
54.99418806
55.69668589
53.77604505
54.7217639
62.21597725
58.22319756
56.18230018
56.02988115
55.87084584
56.15558577
58.56820033
58.79692965
52.27554251
53.45244368
62.66634629
63.19653817
45.12720248
51.50309742
50.47067413
52.47687206
51.78264675
45.82139427
49.04627431
48.34262736
50.11239597
49.28887058
52.26370583
55.13919114
54.50516844
55.88639373
55.34021378
52.81371627
48.42855905
53.3957102
52.71135408
54.28653659
53.62088939
48.8624174
41.92300276
41.36558602
42.89123385
42.11863928
40.47542901
39.93031813
41.18837744
40.63956853
47.227339
46.5732337
48.11630676
47.45156901
45.27593422
43.40260783
46.33658364
45.68350233
36.97711506
37.33003407
43.45105322
34.64904037
34.39981197
35.018107
34.75077811
34.23259403
42.06844403
34.48071125
36.5359558
39.38672003
41.31029281
45.93137116
38.94031817
36.16528587
39.81973276
38.974251
35.46110726
35.13538783
35.96803426
35.58392088
44.82979189
38.59148941
39.10614407
33.37185623
33.60173051
40.53304164
39.32433558
33.13951316
33.32281712
49.78810418
48.74106935
48.66707665
48.73890466
48.74979138
49.93755333
48.62738576
48.47979063
48.53313379
48.32402516
44.83613793
45.56090745
45.91627761
47.00998434
49.22497544
58.61206961
64.39950193
65.29941243
60.86076585
61.00756021
59.52458508
59.35967984
55.93975156
57.19652123
56.73305153
59.16278062
58.89946193
59.59794342
50.45152272
51.88339105
58.18204957
59.94876847
66.90161749
62.4609921
66.80335181
67.21077235
63.78951832
43.15968038
45.78283605
45.17735053
50.10090567
49.82005028
46.49224057
42.69426655
42.40806875
44.66074387
44.24771401
51.23270439
53.87348327
53.47739713
56.30284855
55.89102352
53.9680002
47.58058171
50.82465497
50.49306107
53.07969503
52.691497
49.76131146
44.05112781
44.63447295
48.19565895
47.24216883
43.2845708
43.86087052
48.08981794
48.67183624
50.10131682
40.78355967
40.60845718
42.16293886
41.93835054
38.00482052
40.35716342
40.21361269
49.33838885
47.2799408
47.8885863
37.58676165
40.20949565
40.06475262
34.06196777
36.58459838
36.45194332
36.9889949
36.7419081
34.15104909
33.3061026
33.23778484
33.75485674
36.12103546
36.00386115
36.34026741
36.22743964
33.82521469
33.45702185
33.3685023
34.66622492
33.64728972
33.12154594
58.15204746
54.76974653
54.72103969
58.42240614
66.64795706
68.22057989
59.53396061
65.28728829
69.9212946
63.77439666
61.53295752
58.13964485
57.68370312
56.60959495
59.20933555
58.67657494
58.36626298
68.21961125
67.94735883
61.56943256
68.89408532
71.19117457
63.67474529
67.90520261
68.16803064
48.48116304
48.29209318
45.1032047
46.00209721
49.37590482
49.17948983
43.27284944
42.97064134
43.90146726
43.57551291
54.67266997
54.26923974
51.72634148
53.38481383
55.48508005
55.07827868
51.56029805
51.20709424
48.03836585
49.28648963
52.30351163
51.93399024
41.73103456
38.33843875
38.51776578
38.01500221
38.17903712
41.5489811
42.56962059
39.11492334
39.38180525
38.69676587
38.89677478
42.32998227
40.28105454
37.07480927
37.24220428
36.79386004
36.9590742
40.13713869
41.00421827
37.69656759
37.86086544
37.37605201
37.54819724
40.83009774
41.22854919
41.02858783
47.01060903
44.60651735
44.82605506
44.15710663
44.35731979
46.78316781
41.68935799
41.4715975
39.41984298
39.35541609
44.9642234
42.61709246
42.69517629
39.7759415
40.30960742
44.14643118
46.13992024
43.72470122
43.89005868
43.28710064
43.40388191
45.8705481
39.9367845
39.83383338
37.04404718
39.56339109
39.41949642
39.89647163
39.76255902
37.24547562
34.58517085
34.45895054
34.93133118
34.81808163
34.13116261
33.65758814
34.83565158
38.11389993
37.42557398
39.09645341
38.77751794
36.47898414
36.9570927
35.10302897
36.04634893
36.47862829
39.56538575
36.51576139
36.70316116
36.17305335
36.43926437
39.48320034
35.35485069
35.23409352
35.8290918
35.69803623
33.45664335
35.67762856
35.54220512
35.89841613
35.77467872
33.51538072
33.20941175
35.22402851
34.9387567
35.46154317
35.29416821
33.24677804
36.72368209
36.76823919
36.84777538
36.78658109
36.85923738
36.89396677
36.8872705
36.97157871
36.95972192
36.99594674
37.05652592
37.01833822
37.06980063
36.62350524
36.71728328
36.74829392
36.75671985
36.87881498
36.85929054
36.92061215
37.04361919
36.98245825
37.0807839
37.17435745
37.07710659
37.19777958
36.58190368
36.73732087
36.717953
36.79248472
36.96856332
36.8941114
37.02940192
37.21276693
37.07528939
37.27136787
37.42971706
37.22142478
37.47429946
36.59634887
36.80768284
36.74945121
36.88500346
37.13822859
37.00356462
37.23033862
37.52794146
37.27570762
37.63185536
37.9522952
37.52468712
38.05318365
36.65243602
36.93799543
36.83499792
37.04397662
37.40853737
37.196464
37.54926387
38.05570364
37.63559851
38.26031399
39.03314257
38.14013195
39.33666406
36.74517303
37.11802705
36.97895628
37.26022396
37.77200002
37.49261694
37.9830142
38.82988611
38.22978507
39.22638403
41.55414111
39.43065894
40.67464641
41.2224446
40.14471538
36.86980629
37.33836077
37.17203705
37.51949333
38.18792495
37.87693332
38.47210061
39.66829767
39.04857453
39.7647287
40.39582758
40.07029241
43.08860366
43.80379972
43.24392946
37.0146874
37.57072288
37.39623522
37.7858675
38.58220428
38.28879888
38.92238423
40.35368906
39.85538625
40.6833588
41.50584485
41.26520143
45.4769569
46.72774472
46.49762911
37.16749567
37.79858958
37.62824527
38.04131278
38.93527792
38.67409504
39.3154488
40.90301603
40.50026531
41.37271433
42.29564661
42.11600454
46.61921857
48.17257166
48.0834589
37.32278941
38.01560632
37.85262029
38.28057035
39.25304432
39.01653669
39.66614869
41.38995484
41.02661451
41.94985261
42.95285574
42.78453254
47.05391309
47.76239289
47.92166139
38.06536136
39.32684344
41.50525481
42.50416262
43.82505555
43.38171101
46.76968247
46.60160932
46.85327158
46.25736241
45.96809086
44.81841595
48.04004922
47.84760152
46.25963837
47.96866359
48.09051141
47.01074387
46.93314067
47.16129773
46.92698538
43.98555104
41.72666474
40.9731699
40.34325823
41.5144718
41.9280904
41.72495078
40.87225081
44.86805664
42.54652479
42.87216609
42.03311327
42.42880582
44.72316457
42.63078162
42.46295699
41.5208899
45.83475919
43.3521699
43.61787893
42.97340511
43.2597492
45.73366372
48.20231264
48.19169907
46.72131476
49.46795143
49.40893365
49.29662436
49.91804905
49.84978024
50.21525804
43.27862504
43.09172707
42.07768954
46.34506317
44.0448184
44.28954466
43.70582516
43.96028349
46.31297502
47.51054932
47.70311529
47.04529131
45.68425435
47.03535092
46.85523983
48.04892202
47.88264475
47.22846195
44.36510609
44.55760163
46.42040506
46.24312439
46.51411035
46.70690086
40.79483399
43.81878276
43.76169495
45.0938629
44.88043184
42.2767676
50.50605963
53.09438079
52.0780926
55.00113833
54.90720764
52.06989411
45.57554002
46.28969164
45.56249411
51.3655295
50.644366
49.06553401
50.82912094
48.61971487
48.72226117
48.42085312
48.57468766
50.93073972
46.11926177
47.7496896
47.20601243
51.86825537
52.11247549
52.6504554
49.63316364
50.22089617
50.884323
52.62457192
54.66599815
54.94967291
52.82640761
53.34448383
52.32308308
47.90843629
48.35757041
48.20289715
49.1785487
49.05467035
48.9259494
46.96072083
48.12408707
48.19363979
48.58626109
48.00027487
48.16574654
45.7485855
45.91420689
46.82616997
50.20488923
48.865679
49.44063929
48.3352037
48.50544366
48.97890972
43.32518968
45.50534342
45.29972923
46.67228474
46.48730789
44.72604027
46.96625862
47.23369141
47.44298591
43.91151969
42.40992619
42.57175864
39.18692573
39.34933587
41.46896745
46.39399553
45.41512366
45.58628085
42.73643357
42.89950321
44.37156262
43.67893603
46.14934
37.53808848
34.83978335
34.95630932
40.99760823
38.89075457
39.037921
35.15666278
35.56256162
38.27940951
41.00104615
40.71066686
40.02028485
43.26365813
41.3853772
41.88657669
40.59249199
41.20156595
42.96702394
44.83087576
44.33887371
43.50965036
46.86281382
45.02487729
45.91190379
43.77376995
44.69707803
46.26498525
47.12048445
46.90096054
45.64307922
51.29324882
48.04784043
48.34495511
47.58985314
47.94676383
51.23635642
49.9507138
46.99109299
47.46251008
46.15937882
46.81661075
49.68421127
44.54721811
45.64338968
45.26293919
48.95524084
50.4638366
48.81386079
62.08111605
59.61855131
55.6237399
42.25286193
43.33671169
42.75003861
43.20234943
42.11657822
45.93733334
43.72179811
43.08874938
44.23960584
43.96030834
41.00692407
46.00130032
45.24323565
45.42651213
44.89715717
45.0885242
45.87782908
54.08076001
53.36451401
50.88507799
58.14689764
58.83597353
62.38903711
51.80675216
54.79344746
54.27924262
48.27452934
47.32598236
46.33784441
51.09759501
48.61843308
49.9638305
46.27924324
47.17913369
49.99745238
59.92149952
56.83628962
57.44457804
53.09966643
53.83600146
56.31028067
48.47503685
49.97575827
49.13047529
51.2772096
51.91965899
51.67943917
50.97450533
50.42038168
51.04946464
54.13891322
54.54671807
52.64658925
52.4481948
53.51122353
53.98931971
47.04565498
47.20486102
47.9295458
47.51914708
46.7253998
46.88641494
49.52976424
49.66338743
49.89362909
49.56510547
49.25751758
49.39471909
41.40431151
41.58363734
43.13589038
42.56361261
40.87303645
41.16616303
44.10528809
44.33512476
45.60546184
45.13500707
43.72402483
43.90409619
44.71965637
38.00653588
38.16663106
40.21885618
39.72638893
37.69392429
37.87632894
44.59694771
45.2777236
47.38490069
47.21219906
45.821813
47.71366403
47.6096147
47.73548068
47.35011561
47.48102679
47.62171806
48.06005984
48.0956849
48.21019938
47.85867557
47.97923761
47.97653633
47.03889631
47.72352019
47.55370352
46.48504425
45.9091466
46.06643509
45.58447642
45.75171211
46.36871728
42.12828789
44.67027073
44.43980629
48.65104085
48.50603127
48.11968766
48.35710006
48.53014538
48.63055752
48.31971018
48.42683064
48.28880114
42.72924816
44.59909723
44.41297735
44.96077395
44.77672038
42.90370658
46.96273195
46.07586347
46.23983366
45.91291894
45.71007559
43.49641856
46.92745603
46.51745695
46.66314746
46.21884182
46.36943418
46.82025105
47.33533322
47.08215582
47.21704426
46.80569313
46.94508647
47.23629602
44.58896828
46.29987998
46.10915162
42.08652341
42.24524548
43.7578755
40.53039467
40.37514194
37.73778757
41.64243661
39.5343137
39.77289018
45.04585089
45.24332244
46.24940843
41.97934983
43.8515311
43.59121985
44.23842179
44.03872914
42.13176646
38.14700725
40.85663948
40.69589028
41.18644039
41.0225373
38.29691264
44.5247433
43.06355874
43.22658543
38.59888082
38.74748851
40.84404562
38.68405463
36.29099242
36.98833297
54.48987232
52.03321729
50.02923383
49.81237113
52.86673494
54.51279515
58.19857826
55.63720833
59.61896381
59.60256649
61.4261558
55.25444243
57.32884166
57.11473607
57.56881195
57.48348718
55.48591143
54.10779222
56.06789634
55.57366948
56.84423819
56.49392323
54.41910764
62.41885435
59.29553287
59.55366084
56.17103607
57.24485526
57.35359631
56.75838001
57.02916122
56.12835764
56.01123967
57.55950887
57.59144421
57.4227817
57.49936319
56.09745237
55.75355143
56.3070852
59.4055366
52.69164275
54.13119377
53.62030152
55.07672372
54.59021341
53.0443916
51.23175974
50.15683675
50.48595923
48.59136399
49.34196366
50.86842353
52.25160123
51.50219391
51.76986171
50.92519024
51.17223432
52.00826189
48.80806058
46.53602351
46.80224783
46.0199474
46.27685729
48.57364125
49.80853648
47.66058712
48.04371479
47.0718466
47.35355818
49.54005133
54.93257332
55.0421817
55.33613672
54.44936576
54.74700205
54.72062607
55.71737384
56.19943097
56.48032962
55.62762318
55.91560953
55.53371381
53.16991213
52.66348611
52.95525153
52.07626174
52.36202649
52.93943693
54.0660214
53.84847192
54.14856779
53.25255167
53.54813952
53.84368471
47.89467138
45.54095975
45.77482141
45.06908724
45.29896739
47.67152708
43.2968481
41.76260992
41.92098815
40.09767042
40.49815739
42.32007309
39.850347
42.5027304
42.16416116
43.3035602
42.91362696
40.54283742
45.74978085
44.58501492
44.83073323
43.39014496
43.55473183
44.98204377
38.74335303
41.52412356
41.35405589
41.90894593
41.70511327
38.9112036
40.37382274
38.30400454
38.45683436
37.27048659
37.55480904
39.5528774
49.60870893
49.51276015
49.63190859
48.72423437
49.1709306
49.22104044
49.0513993
49.11438068
48.69839307
48.75033594
49.33511812
49.36021705
49.26595013
49.30358298
48.75238698
50.08055291
49.77679927
49.69662213
48.58320198
48.90210912
48.98022819
48.72665666
48.81727105
48.53378239
48.732275
48.92530644
48.79057352
47.67947868
47.83888944
48.45887596
45.04839205
46.78757071
46.59855074
47.20055677
46.98586265
45.28178255
46.33430398
47.68594952
47.43738971
48.13217885
47.92196041
46.72448679
49.09982796
48.6697744
48.82627377
50.96295248
51.91572594
51.237428
53.11115732
52.50817152
51.41049274
57.30504355
54.5252456
55.19094995
44.2437427
46.05020566
45.86911539
46.41394601
46.2314412
44.43694205
48.05945684
47.36293467
47.52130392
46.40158687
46.56455232
47.38520819
43.47935608
45.32492084
45.14144832
45.68830454
45.50631139
43.66839188
48.28257559
49.17210804
49.00863469
49.49587941
49.3351021
48.47911099
49.99492413
49.79497501
49.9252652
48.97508797
49.11788378
49.45693608
47.48149852
48.5018993
48.32714576
48.84184838
48.67548978
47.69657639
36.8671586
36.86936601
36.95610775
36.87279459
36.87824077
36.95841399
36.88402659
36.89291896
36.96364616
36.90490332
36.92023885
36.97244106
36.93891635
36.96117429
36.9850566
36.98574671
37.00551554
37.00073822
37.01661032
37.02327447
37.00714616
36.68866642
36.69067858
36.7770703
36.69490415
36.70148085
36.78411989
36.71032027
36.71427468
36.82044259
36.78970202
36.79815785
36.8321142
36.83024351
36.84494689
36.86824382
36.8957845
36.91719798
36.92486661
36.981797
36.99769308
36.99103487
37.03786417
37.0461295
37.03321566
36.51667914
36.52204421
36.60474882
36.53206252
36.54700241
36.62208515
36.56823389
36.60105398
36.68161154
36.66747048
36.68605226
36.70968933
36.76048705
36.79265122
36.7979343
36.89550376
36.93084041
36.92166475
37.02798322
37.05605314
37.03499962
37.12082752
37.13581773
37.10584961
36.3513505
36.36267113
36.43991621
36.38238657
36.41235115
36.47674512
36.45544578
36.53669999
36.57875041
36.59518297
36.63306647
36.63912913
36.76694179
36.81485754
36.80360402
36.96443188
37.01507155
36.98623128
37.15963087
37.20300655
37.15514665
37.31074468
37.33609915
37.2712503
36.19617323
36.21758734
36.28735511
36.2532361
36.3067114
36.35530246
36.38675938
36.53250638
36.52910211
36.58401353
36.64145552
36.63516113
36.83045817
36.90003596
36.87352231
37.11829138
37.19397775
37.13931493
37.42522898
37.50068566
37.4071037
37.71033606
37.7582022
37.62594178
36.05201468
36.08962887
36.15102492
36.14939478
36.23755433
36.26737713
36.36509929
36.56773129
36.53746081
36.61922742
36.69719273
36.67900454
36.95664114
37.05244187
37.00699295
37.37387776
37.49467322
37.40477339
37.90455454
38.05866218
37.88537739
38.55917328
38.69341442
38.40526744
35.92067409
35.98107941
36.03257845
36.07251158
36.20400098
36.21720393
36.37770026
36.63530022
36.58115952
36.69461724
36.79744223
36.76878006
37.14609441
37.27914877
37.21682991
37.75474004
37.94836427
37.82144451
38.70681976
39.05380308
38.75368401
35.80715618
35.89552104
35.93519667
36.02358592
36.20141095
36.19955649
36.41360047
36.7327772
36.65759992
36.80381235
36.93475927
36.89882096
37.38622798
37.56322945
37.49039206
38.22731487
38.51539695
38.37113719
35.71378764
35.83293815
35.8606278
35.99942388
36.21925071
36.20712772
36.46766769
36.85121646
36.76116824
36.94115542
37.10093683
37.05808624
37.65316664
37.87144983
37.79479267
38.70379215
39.07064101
38.93879082
35.64049876
35.7920302
35.8081796
35.99632412
36.25212474
36.23310415
36.53697805
36.98034296
36.88248907
37.09040415
37.27609682
37.23176376
37.91526292
38.16728619
38.0952527
39.12521455
39.54555622
39.4341995
35.58709156
35.76931234
35.77579671
36.00764469
36.29613184
36.2697954
36.61780022
37.11478596
37.01251012
37.24555596
37.45363165
37.40771724
38.16394604
38.44229709
38.37359768
39.49535783
39.95563204
39.85687092
35.75903215
36.31420301
37.14410409
37.40299503
37.62760644
37.57934297
38.39444877
38.69421615
38.63071683
39.83018099
40.32848824
40.2360519
42.58596692
42.11266096
41.73925051
40.59014621
40.85807371
45.14181008
44.21865981
44.34146818
43.33533584
43.50899283
44.39585228
46.01728231
45.0819791
45.1747575
44.45721516
44.5712263
45.51342018
46.38879712
45.68199114
45.73606327
45.26133757
45.34513907
46.22312408
45.41039783
46.1387352
46.01856625
45.78413467
45.82973957
46.42076516
40.30534656
41.87406231
41.72009019
43.87191195
43.73888419
42.57182485
50.59996112
50.0418859
49.98121957
50.25900901
50.25267602
51.10461448
50.55277872
50.67627667
50.69216013
50.39829981
50.3050836
50.42945072
43.01192248
44.13178528
43.99921943
45.9040551
45.78275878
44.99982223
41.56541695
41.41333017
39.71762769
46.57198244
43.78198461
42.94959577
43.15136676
41.44876144
41.71449899
42.29127754
47.8823888
46.93060552
47.30371745
44.18568332
44.65398464
45.01521697
51.2879213
50.21170136
50.25023533
49.49956274
49.65904995
50.99071971
50.41716527
49.14811154
49.33316356
47.64135198
47.95650079
49.06603667
44.78240789
44.24077153
43.90493829
42.79652026
42.65258726
41.35912476
53.28916237
51.62436612
52.38469897
46.74376574
47.39227475
47.87256855
51.51944941
51.61903437
51.46270607
51.16458218
51.2848469
51.40407126
47.79773967
46.65942377
46.37268135
46.81917777
46.70839467
46.10420128
46.59512527
46.99625871
46.91887638
41.82665769
43.07239679
42.92841112
44.93731047
44.80261963
43.84700081
44.30923851
45.18807733
45.06086648
36.73658927
36.76614738
36.7553182
36.79183387
36.77733516
36.75065143
36.83976611
36.80713162
36.81851838
36.80906907
36.82499398
36.80637464
36.86617318
36.84322112
36.83187898
36.88107565
36.85971956
36.87797773
36.91706864
36.91538081
36.88770089
36.96457026
36.93931041
36.94339214
36.94292234
36.93804729
36.961094
37.01873541
37.00654974
36.98642077
37.04039628
37.02417356
37.03838766
37.00864494
37.01413331
37.02795415
37.08153772
37.06193827
37.05172923
37.06863064
37.08945428
37.03881664
37.05203452
36.65028558
36.6660227
36.64351233
36.72210744
36.69190542
36.68136044
36.72717637
36.70740034
36.73267159
36.79659274
36.79338335
36.75585846
36.86790382
36.83001304
36.83698844
36.82628748
36.82688049
36.86176608
36.96276211
36.94443174
36.90587189
37.01796769
36.98153936
37.0036732
36.95183935
36.96440461
36.99774185
37.11534895
37.08257412
37.05148421
37.13497849
37.11020512
37.14641604
37.05704897
37.08077058
37.10305557
37.21708324
37.17250984
37.15523875
37.18537093
37.23172145
37.11521907
37.14668953
36.63262089
36.63184036
36.58742094
36.72727606
36.67910463
36.68384444
36.67607599
36.6764923
36.7209298
36.84963371
36.83019889
36.77782928
36.93871984
36.88386534
36.90846108
36.8483362
36.86391334
36.9140155
37.09086672
37.04997878
36.99419069
37.1591393
37.1050833
37.15219436
37.03132416
37.0648564
37.1135021
37.32750818
37.25998518
37.21093676
37.34646657
37.30527289
37.38044532
37.19005669
37.24284464
37.27911923
37.50842019
37.41545227
37.38215171
37.44168067
37.53699718
37.28926323
37.35603863
36.66347864
36.65093539
36.5886565
36.78407485
36.71578204
36.73382349
36.69057838
36.70124907
36.76428209
36.96595796
36.92978698
36.85536421
37.08921262
37.00751424
37.05018307
36.93762012
36.97181859
37.04447729
37.32662156
37.25867602
37.17349187
37.43296592
37.34491769
37.42620704
37.20763952
37.27106181
37.3485134
37.73805122
37.61036613
37.52187488
37.77811522
37.69613124
37.84578892
37.46808651
37.5742275
37.64466768
38.12687533
37.93657029
37.85407548
37.99522714
38.20677259
37.66506967
37.80339401
36.74238964
36.71862542
36.63469816
36.89994773
36.8069319
36.83763735
36.75512666
36.77950228
36.86589126
37.15677901
37.10286666
36.99845762
37.33188619
37.21365764
37.27771756
37.09934984
37.15352765
37.26069307
37.70297094
37.59446574
37.45790243
37.89896188
37.74158223
37.87150227
37.51734937
37.62281045
37.75840151
38.48846246
38.25759721
38.07137312
38.6625887
38.45319883
38.74852849
38.01278677
38.22256217
38.39275942
39.60799136
39.14078275
38.89141759
39.31287024
40.0509855
38.49720029
38.84574153
36.86173267
36.828843
36.71909309
37.06950305
36.94538659
36.98572224
36.87086532
36.90655646
37.02239346
37.4146171
37.34646306
37.2025705
37.676032
37.50306996
37.58376752
37.34927627
37.42325894
37.58134214
38.22336439
38.0845172
37.86794425
38.6199124
38.33334907
38.50288839
38.01498595
38.16766835
38.41590974
39.73083018
39.37616849
38.96273312
40.45645141
39.85739318
40.35479042
39.06168472
39.4667834
39.95436729
40.87626692
40.71934866
41.02773539
37.01569209
36.97454174
36.83603351
37.28100931
37.12236056
37.17129792
37.03080994
37.07448968
37.22428062
37.71822081
37.64094425
37.45280527
38.08387538
37.84944944
37.93905022
37.67299575
37.75878297
37.9781507
38.8023771
38.66104066
38.35090328
39.47076131
39.02889483
39.19486094
38.68110208
38.85568203
39.26264483
37.18789341
37.14397662
36.97734023
37.51243223
37.32160289
37.37247144
37.22111211
37.27132462
37.45442919
38.02218448
37.94713892
37.71956844
38.48669739
38.20050522
38.28523455
38.02675375
38.11438594
38.38890176
39.3183645
39.19693084
38.81477067
40.19753563
39.65037164
39.78763951
39.35408259
39.50627075
40.03214957
37.36480614
37.31987881
37.12816484
37.74170147
37.52352419
37.57430125
37.42301174
37.47366323
37.68556977
38.30726391
38.23717831
37.97802007
38.84993418
38.52523156
38.60261696
38.36719989
38.44753875
38.76358946
39.75673882
39.65253957
39.22125656
40.7732385
40.16156946
40.27731454
39.91778198
40.04235072
40.64041828
48.14918598
47.52367383
47.56162386
47.43325026
47.47883069
48.11938098
37.54023853
37.49381941
37.2806949
37.95977414
37.71922207
37.77011053
37.62271311
37.67401852
37.90952253
38.57024836
38.50394265
38.21958826
39.17465815
38.8194911
38.89149343
38.67600093
38.75106416
39.09853083
40.14539747
40.0504998
39.58022837
41.26864276
40.6045276
40.71038821
40.38871045
40.49823238
41.15034249
47.81870265
47.55610957
47.51955721
47.61465175
47.58401087
47.87174787
37.81495381
37.86540853
38.12004649
38.95825738
39.02673633
39.40133712
40.8124475
40.91668869
41.62468317
46.687612
46.80938923
46.74685175
46.9239803
46.86441347
46.77143641
48.01238781
47.6606943
47.63642329
47.69162635
47.67574838
48.05331447
47.01106762
47.03292594
46.97590664
47.13726886
47.08205036
47.08709779
42.77557288
42.49393123
43.08247239
41.49157566
41.92876347
42.21098574
41.34648094
41.58241039
41.19092604
40.69377979
40.78213487
40.43257205
41.61854021
41.2239591
41.03514527
41.37926095
41.77372547
43.95850537
44.09296424
45.00771189
43.55401168
43.43986198
42.76790975
44.56314791
43.66763169
43.8189258
44.88732194
44.98748079
45.93001918
43.4409332
44.16073187
44.06515468
44.34574694
44.25394724
43.53105076
43.0707228
43.76712794
43.66133503
43.96815431
43.86804418
43.1668943
45.6260532
44.67915575
44.78592487
48.2054577
47.6566265
47.67530191
47.59911315
47.6286235
48.20277344
45.56237679
45.62564486
46.36992847
44.12322619
44.85272752
44.77475357
45.00255068
44.92881534
44.20818269
43.7895667
44.52346914
44.43574284
44.69308234
44.60963428
43.87702805
46.2720125
45.42198834
45.49572647
47.57688555
47.41008211
47.36574948
47.48705232
47.44638091
47.64108986
46.37117381
46.25230176
45.54692021
44.44510934
45.14089561
45.07299073
45.26561811
45.20535454
44.49423087
46.42072793
45.87248191
45.91029192
46.33417562
46.56561001
46.50519744
46.68784018
46.62020892
46.4233472
42.19436444
42.0104086
40.55322485
43.04782723
43.26012321
43.80385984
42.42526136
43.61014661
43.4736184
52.78215994
51.85863874
52.07157691
51.48117902
51.66429235
52.45531496
55.01337083
53.88682335
53.94471038
53.65267389
53.78610845
54.98691158
50.1526443
50.09920529
50.71770975
48.66299949
49.40523706
49.4086571
49.38072018
49.39596386
48.69608589
48.49649187
49.37122355
49.32129805
49.40873278
49.39781791
48.52835613
51.01594
50.23340662
50.19842256
52.29257806
52.25742365
52.11198053
52.52850463
52.38610404
52.4733162
49.82737362
50.43905095
50.28296063
50.75195299
50.5954532
50.02334553
50.78384541
50.79876983
50.92176185
54.77350058
53.93094677
53.87739186
53.96546543
53.95539833
54.86991176
53.00112152
52.78926896
52.65317492
53.03509909
52.9079736
53.17338422
48.15287786
47.70318911
47.69886847
47.69385212
47.70056396
48.17631648
50.05370169
50.17936142
50.30168619
49.05750438
49.81362936
49.65568179
50.12698484
49.97092907
49.2494648
44.39661071
44.26093597
43.16449914
44.86342032
45.6678559
45.54571031
47.30494297
47.23529335
47.1827069
47.32635029
47.27762747
47.37429906
43.57846159
42.70596393
42.86770822
46.44081314
42.50272255
42.73519414
43.53596651
42.64205971
41.99174631
42.25617697
46.09640292
46.53300079
47.39884555
45.33880077
45.7917085
45.39222656
46.49923515
46.15071755
45.6284033
44.97216275
44.49060933
44.32141555
45.62065683
45.14085409
45.62800022
50.05424923
50.15111708
51.30336585
48.14916479
49.07417955
48.96489769
49.25474866
49.16870747
48.24702174
47.71756637
48.60244404
48.46184083
48.85254419
48.72751954
47.8311261
51.13749866
49.80461364
49.94043079
48.73375345
48.95290599
50.19498074
47.16534323
47.98553405
47.78720816
48.31920306
48.15403222
47.31358053
46.40246845
47.09407079
46.80210362
47.58344962
47.34264037
46.61016603
49.38901119
48.23783317
48.50035726
42.49615565
43.0022374
42.81472835
42.70987453
42.98287069
45.04067757
44.67539182
45.19803975
43.53220815
43.90145342
44.29280093
43.46201424
43.69015516
43.24762672
41.19538575
42.50984789
42.34397263
53.85532691
52.64405719
52.83501911
52.26215227
52.46416481
53.62556053
54.63745417
53.34219543
53.5077312
53.00420104
53.18384203
54.47375987
49.94089121
50.87207755
52.27724274
50.58050467
49.81658219
49.3920016
48.74124929
48.1868381
49.06451583
51.50618164
51.67655501
51.52855458
51.97426141
51.82067342
51.72115433
51.04327225
51.16522569
51.07497614
50.6231118
51.06444191
50.90829845
51.37544818
51.22020115
50.83160549
54.28245357
53.65862049
53.56252564
53.81641519