/*--------------------------------*- C++ -*----------------------------------*\
| =========                 |                                                 |
| \\      /  F ield         | OpenFOAM: The Open Source CFD Toolbox           |
|  \\    /   O peration     | Version:  v2012                                 |
|   \\  /    A nd           | Website:  www.openfoam.com                      |
|    \\/     M anipulation  |                                                 |
\*---------------------------------------------------------------------------*/
FoamFile
{
    version     2.0;
    format      ascii;
    class       surfaceScalarField;
    location    "2";
    object      meshPhi;
}
// * * * * * * * * * * * * * * * * * * * * * * * * * * * * * * * * * * * * * //

dimensions      [0 3 -1 0 0 0 0];
oriented        oriented;


internalField   nonuniform List<scalar> 
5999
(
0
0
0
0
0
0
0
0
0
0
0
0
0
0
0
0
0
0
0
0
0
0
0
0
0
0
0
0
0
0
0
0
0
0
0
0
0
0
0
0
0
0
0
0
0
0
0
0
0
0
0
0
0
0
0
0
0
0
0
0
0
0
0
0
0
0
0
0
0
0
0
-4.23360264e-10
7.417771635e-08
0
0
0
0
0
0
0
0
0
0
0
0
0
0
0
0
0
0
0
0
0
0
0
0
0
0
0
0
0
2.174169945e-09
-1.190552972e-06
-1.485749742e-07
7.524809356e-06
5.078399502e-07
-6.652080229e-05
-1.028771916e-06
9.406570053e-05
1.321161964e-06
-0.0001745094898
-3.013854525e-06
0.0001955442803
0
0
0
0
0
0
0
0
0
0
0
0
0
0
0
0
0
0
0
0
0
0
0
0
0
9.069670941e-08
-2.480790129e-06
-2.808850979e-07
1.769608536e-05
1.230279587e-07
-0.0001535503702
7.41038744e-07
0.000219231033
4.749975198e-06
-0.0004380672334
-7.542511646e-06
0.0005098414693
1.736825806e-05
-0.00069236744
-2.622281068e-05
0.0007368729285
0
0
0
0
0
0
0
0
0
0
0
0
0
0
0
0
0
0
0
0
0
0
0
-3.186154366e-08
9.136855455e-07
-1.39405514e-06
-0.000110327598
4.260742208e-06
0.0001885806546
-5.21657431e-06
-0.0004978188356
6.615803298e-06
0.0006133623815
2.372228432e-05
-0.0009497040583
-3.175404151e-05
0.001048808447
6.306428178e-05
-0.001279610402
-7.68030627e-05
0.001331289204
0
0
0
0
0
0
0
0
0
0
0
0
0
0
0
0
0
0
0
0
0
3.274124057e-07
-1.27019017e-05
-1.424124777e-07
5.463618962e-05
-1.252906193e-05
-0.000327593321
1.624102823e-05
0.0004540779511
-1.622111912e-05
-0.0008908395524
8.609633554e-06
0.001039569658
6.07265732e-05
-0.001400135772
-5.911742872e-05
0.001479365638
0.0001107239933
-0.001645873111
-0.0001160307946
0.001669645525
0
0
0
0
0
0
0
0
0
0
0
0
0
0
0
0
0
0
-2.83972239e-08
9.172629269e-09
3.456819162e-07
-1.419362105e-06
-6.194866257e-05
2.318362122e-06
0.0001390463433
-3.11735499e-05
-0.0005097701145
2.867163888e-05
0.0006755437081
6.416488539e-06
-0.001156944078
-8.544575705e-06
0.001300302397
8.514908175e-05
-0.001624094773
-0.0001057116611
0.001692389306
9.859595926e-05
-0.001751290457
-1.22550178e-05
-4.941398493e-05
0.0008482912764
0.0008660722245
0
0
0
0
0
0
0
0
0
0
0
0
0
0
0
0
1.196561126e-07
0
-2.612248129e-07
3.119047913e-06
4.723289896e-06
-4.552350085e-06
-0.0001015063644
4.854476317e-06
0.0001984627473
-3.415900242e-05
-0.0006281697011
3.482377564e-05
0.0007978643666
1.823342851e-05
-0.001290266733
-2.049813889e-05
0.00142761504
0.0001276072015
-0.001683211535
-0.0001318977011
0.001703478594
6.047672786e-05
-0.0008637484652
-5.913071444e-05
0.0008624024518
0
0
0
0
0
0
0
0
0
0
0
0
0
0
0
0
3.462599357e-07
0
-4.325693856e-07
8.306710673e-06
9.299444101e-06
-6.310274394e-06
-0.0001237690722
6.644818507e-06
0.0002279136057
-3.631994907e-05
-0.000670589141
3.664169547e-05
0.0008410644015
2.563600481e-05
-0.001323857715
-2.652658814e-05
0.001452832668
0.0001373141408
-0.001669684274
-0.0001379862238
0.001677226739
6.381169445e-05
-0.0008395627886
-6.380303335e-05
0.0008395541276
0
0
0
0
0
0
0
0
0
0
0
0
0
0
0
0
5.070608486e-07
0
-6.039748966e-07
1.227616345e-05
1.358292927e-05
-7.494686799e-06
-0.0001368610114
7.846359141e-06
0.0002442891194
-3.759511726e-05
-0.00069034744
3.7930157e-05
0.0008596029439
2.839443807e-05
-0.00133233588
-2.922394013e-05
0.001456261711
0.0001392955487
-0.001655700117
-0.0001396640493
0.001659845575
6.380049354e-05
-0.0008298258679
-6.351847016e-05
0.0004146997444
0.0004148441
0
0
0
0
0
0
0
0
0
0
0
0
0
0
0
0
7.053397612e-07
0
-8.119998605e-07
1.78721729e-05
1.946481446e-05
-8.970429368e-06
-0.0001529038975
9.374429254e-06
0.0002642310764
-3.889472628e-05
-0.000715026809
3.921581093e-05
0.000883335362
3.185291734e-05
-0.001346291206
-3.27963804e-05
0.001465034295
0.0001408369645
-0.001646157458
-0.0001411453935
0.001647844484
6.353545504e-05
-0.0008241243096
-6.344090708e-05
0.0004120768915
0.0004119528702
0
0
0
0
0
0
0
0
0
9.205549401e-07
0
2.520316976e-05
2.594061405e-05
-1.072049483e-05
-0.0001711815255
1.125618342e-05
0.0002864343363
-4.014379041e-05
-0.0007412088483
4.04594379e-05
0.0009081319636
3.595947655e-05
-0.0013597595
-3.724752039e-05
0.001472856765
0.0001418753247
-0.001634330164
-0.0001418992566
0.001634471311
6.313394033e-05
-0.0008175934869
-6.311823707e-05
0.000408737263
0.0004088405206
-0.0008416523229
0.0008416828071
6.378121018e-05
-0.0008306767019
6.400576131e-05
0.0004155689439
0.0004149024902
-0.0008248556539
6.366561481e-05
0.0004125602154
0.0004121652788
-0.0008181731394
6.330171541e-05
0.0004091409009
0.0004088644635
-0.0008644006924
0.000864058527
6.081889324e-05
-0.001658408312
0.001663243452
0.000138943123
-6.47141424e-05
6.476224242e-05
-0.0008307248019
6.474618209e-05
-0.0008394910701
-6.48179006e-05
-0.00164899815
0.001651200401
0.0001405047898
-6.454609349e-05
6.459425095e-05
-0.0008249038113
-0.0008298767726
-6.466323764e-05
-6.3554206e-05
-0.0008284348096
6.361028328e-05
0.0004142155914
0.0004141631408
-3.034153657e-05
0.0002071138591
3.024101139e-05
-0.0004141868236
0.0002071734897
3.034430807e-05
0.0002070499227
-0.0004145203483
-3.016854945e-05
0.000207294667
-0.001636983095
0.001637500615
0.0001417177102
-6.430370508e-05
6.435216178e-05
-0.0008182215961
-0.0008241370865
-6.45333166e-05
-6.362110932e-05
-0.0008217408475
6.348400099e-05
0.0004110965929
0.0004107813629
-1.519856291e-05
0.0002052468522
1.528138717e-05
-0.0002053296764
2.989763181e-05
0.0002059753899
-0.0004120461525
-2.991187264e-05
0.0002060850035
-0.0008176390676
-6.425812438e-05
-3.167149771e-05
-0.0004077134063
0.0004077479489
3.163695505e-05
-1.679021911e-05
0.0002044244187
1.646219176e-05
-0.0002040963913
1.604239076e-05
0.0002038584214
-0.0002040371268
-1.586368537e-05
3.013216591e-05
-0.0004234267584
-2.980986606e-05
0.000211332962
0.0002117714966
-3.055136285e-05
-0.0004204085154
3.043762838e-05
0.0002106185421
0.0002099037078
-0.0004347575099
2.209877476e-05
-2.12279459e-05
0.000433886681
-0.000424813048
0.0004251407413
2.980447253e-05
0.0002070098239
3.05534785e-05
-0.0004147229429
0.0002075039486
0.0004168334544
3.034030308e-05
-0.0004168802195
-3.029353794e-05
6.388427474e-05
-0.0008341087236
-6.383646272e-05
0.0008340609116
3.013455567e-05
-2.9830166e-05
0.0002083271352
0.0002082019295
-1.522299162e-05
0.0002070016025
1.523121294e-05
-0.0004196323253
-3.035209191e-05
0.0002097310775
0.0002097019768
-0.0004174498438
3.009546055e-05
0.0002088943074
0.0002085946315
0.0002059193175
3.010165277e-05
-0.0004120033693
0.0002058800309
0.0002072862657
-0.0004143048096
-3.05327025e-05
0.0002072097099
-0.0008279307416
-6.373425982e-05
0.0004142341687
0.0004138766267
1.55286225e-05
-1.559343104e-05
0.0002073510742
-1.475897915e-05
0.0002058373198
1.484097682e-05
-1.516250157e-05
0.0002069894326
0.000207305413
1.533706868e-05
0.0002039398999
1.616574881e-05
-0.000204063258
0.0002051581212
-0.0002052079001
-1.514878409e-05
-0.0008203257762
-6.333855227e-05
0.0004103109748
0.0004097322443
1.53969762e-05
-1.519198556e-05
0.0002049531306
-1.668627905e-05
0.0002036783939
1.694778505e-05
-1.473669372e-05
0.0002059531044
0.0002051186659
1.552516244e-05
0.0002036916819
-0.0002038056434
-1.667625761e-05
0.0004073957953
1.740075369e-05
-1.716778241e-05
0.0002034587107
-1.636852085e-05
0.0002035406632
0.0002046765863
1.714858603e-05
-0.00167325742
0.001682639382
0.0001360633169
6.467699256e-05
-0.0008415831333
6.169676722e-05
-0.000862547236
-6.28979965e-05
-6.283531305e-05
-0.0008504395639
0.0008503737109
6.290116604e-05
-3.01836528e-05
3.012418696e-05
-0.0004247535821
2.786041239e-05
-0.0004359832612
-2.663466106e-05
-0.000835385638
0.00083545137
6.381854273e-05
3.035903678e-05
-0.0004174685775
3.042687218e-05
-0.0004196322505
-3.042694694e-05
3.040538686e-05
-0.00042038703
-0.0004234485802
-3.016183104e-05
-0.0008444263893
-6.337390543e-05
0.0008449649816
1.250983538e-05
-0.0002100056235
-1.285243926e-05
0.0002103482274
-0.0002244527535
6.075118566e-06
-9.081155504e-06
0.0002274587904
-0.0002162668034
-1.191150163e-05
0.0002164321798
1.174612522e-05
-0.0009000457707
4.002608629e-05
-6.87957577e-06
-1.849441947e-05
0.0004393793772
0.0004460143025
-0.0004312266221
0.0004399198926
1.340550421e-05
0.0002038163589
1.446149118e-05
-0.0002039857184
-1.429213166e-05
3.049725516e-05
-0.0004078851854
-3.044808215e-05
0.0004078360124
-3.043621854e-05
-0.0004076598556
0.000407691916
3.040415823e-05
-0.0002188516015
1.075092112e-05
-7.009985815e-05
0.0002782005385
-0.0002091147015
1.27445347e-05
0.0002088800022
-2.990724889e-05
-0.0004223379662
3.009181826e-05
0.0002107938236
0.0002113595733
-1.423982126e-05
1.482098186e-05
-0.0002096958621
1.440466733e-05
-0.0002160566175
-1.719965127e-05
-1.668901433e-05
3.016049127e-05
-0.0002108726463
0.0001974011694
-0.0002104651947
-1.378025002e-05
-0.0004224932893
-3.035416411e-05
0.0002117406424
0.0002111995621
-2.879407994e-05
-0.0004338872157
0.0004341931174
2.848817826e-05
-1.37439945e-05
1.397258644e-05
-0.0002164953953
1.520389946e-06
-0.0002177167007
-8.256442671e-06
0.0002158528165
1.337215601e-05
-0.0002148203051
0.000216100019
-0.000216004651
-1.383936245e-05
-0.000430202296
-2.908883244e-05
0.0004304970485
-1.333653572e-05
0.000217525053
0.0002153969219
1.120681564e-05
-1.530066651e-05
-0.0002080661552
0.0002081517887
1.521503303e-05
1.287264985e-05
-0.0002076119419
-1.282380216e-05
0.0002075630942
-0.0002081087844
-1.531522759e-05
0.0002081233455
-3.037448873e-05
-0.0004191114782
3.0224787e-05
0.0002096325078
0.0002096286721
-1.346575666e-05
1.346248491e-05
-0.0002087849804
0.0002087882522
-0.0002091327624
-1.435400162e-05
0.0002067977497
1.299224365e-05
-0.0002078174503
0.0002076978565
-0.0002085577825
-1.338218602e-05
0.0002084742119
-0.0004183662604
-3.029536296e-05
0.0002093328663
0.0002089542683
-1.528135092e-05
-0.0002064455771
0.0002063852266
1.534170142e-05
-0.0002065479168
-1.522505398e-05
0.0002064916198
-1.496158838e-05
-0.0002073038136
0.0002072469101
1.501849181e-05
-0.0002072888144
-1.494777463e-05
0.0002072750007
-1.437600522e-05
-0.0002051721566
0.0002052027219
1.434543994e-05
-0.0002053415824
-1.470950682e-05
0.000205675084
-1.626368311e-05
-0.0002059798803
0.0002061784269
1.606513652e-05
-0.0002057838844
-1.628855102e-05
0.0002058087523
-0.0004073778583
0.0004073665911
-1.417467758e-05
-0.0002039173112
0.0002035961782
1.449581049e-05
-1.386552994e-05
0.0002035072112
4.890694075e-06
-0.0004510639388
-7.377118856e-06
-0.0002279727292
0.0002280497086
5.998139155e-06
1.565350933e-05
-0.0002057697859
-1.566760776e-05
3.083080283e-05
-0.0004114865956
-3.078694836e-05
0.0004114427411
-3.076174424e-05
-0.0004108051022
0.0004107966943
3.077015208e-05
3.085337136e-05
-0.0004120681791
-3.084774395e-05
0.0004120625517
-0.0004116546878
0.000411649021
3.083646961e-05
1.551314606e-05
-0.000205839517
3.063441417e-05
-0.0004087227693
-3.058248495e-05
0.0004086708401
-0.000408497479
0.0004084807899
3.051394416e-05
1.464047714e-05
-0.0002040962971
3.021581576e-05
0.0002066190884
-0.000413180718
-3.02021029e-05
3.091688103e-05
-0.0004132188298
-3.09112941e-05
0.0004132132429
-0.0004121154844
0.0004120715556
3.089730009e-05
-1.391360636e-05
0.0002051843466
1.416059068e-05
-0.0002054313309
0.0002055298796
1.503002316e-05
-0.0002058435153
-1.471638753e-05
1.503606345e-05
-0.0002062552503
-1.495511965e-05
0.0002061743065
1.473832567e-05
-0.0002051536951
-1.492621297e-05
3.072795539e-05
-0.0004097343194
-3.075470592e-05
0.0004097610699
-0.000408773932
0.0004087627236
3.064562252e-05
-0.0004102993049
-3.075331661e-05
0.0004102908772
-0.0004099620386
0.0004099916662
3.069832775e-05
1.463275253e-05
-0.0002050665835
-1.47601496e-05
-0.0002043562704
0.0002042233639
1.489305609e-05
-1.429237852e-05
0.000203302556
1.460988673e-05
-0.0002036200642
1.534267116e-05
0.0002042315647
-0.0002044510443
-1.512319156e-05
-1.384429965e-05
1.397491132e-05
-0.0002030423643
0.0002029117526
2.971059107e-05
-0.000205452624
-1.644973824e-05
0.0001921917712
1.685946824e-05
-0.0002048320545
-1.713990837e-05
0.0002051124946
-1.489601203e-05
-0.0002061244858
0.0002062673437
1.475315405e-05
-1.30885951e-05
0.0002069850921
1.302794148e-05
-0.0002069244385
0.000205317513
-0.0002056462252
-1.358489419e-05
0.0002043204685
1.560136944e-05
-0.0002045791668
0.0002044711916
1.634651499e-05
-0.000204734958
-1.608274863e-05
1.598325551e-05
-0.0002054400357
-1.581868956e-05
0.0002052754698
-1.54695247e-05
-0.0002040281591
0.0002037405767
1.575710708e-05
-1.318733551e-05
1.329952763e-05
-0.0002029674425
0.0002028552504
-0.0002027929144
-1.352731222e-05
0.0002024759269
7.696877871e-06
-0.0002069693322
1.328033977e-05
0.0001859921146
1.379621443e-05
-0.000204882936
-1.476915292e-05
0.0002058558745
-7.882257127e-06
-0.0002101676268
1.174044624e-05
0.0002063094377
-0.0002141598891
1.363505277e-05
0.0001926425792
-1.253768546e-05
-0.0002224452565
0.00022301378
1.196916195e-05
-0.0002231325638
-1.146471711e-05
0.0002220595954
-1.413043641e-05
-0.000209543803
1.688084636e-05
0.0002067933931
-0.0002088708443
-1.372105655e-05
0.0002084614644
1.702348852e-05
-0.0002097649825
-1.612935032e-05
1.609198622e-05
-0.0002113642731
-1.578143916e-05
0.0002110537261
-1.480510901e-05
-0.0002111841957
0.0002108476731
1.514163158e-05
1.432997209e-05
-0.0002118448802
-1.545410404e-05
0.0002129690122
-0.0002118526633
0.0002117170775
1.622757206e-05
1.814411915e-05
-0.0002106644336
1.154939791e-05
-0.0002142329564
-1.147633065e-05
1.467880823e-05
-0.0002113434376
-1.53330206e-05
0.00021199765
-1.713363211e-05
-0.0002102113827
0.0002105385207
1.680649414e-05
-0.0002116588017
-1.460472648e-05
0.0002114584192
-0.0002105848816
0.0002108556155
1.44080743e-05
1.241619944e-05
-0.0002110344283
0.000211697452
1.653631893e-05
-0.0002131393153
-1.509445566e-05
1.485631873e-05
-0.0002140340034
-1.486964999e-05
0.0002140473347
-0.0002126137243
0.0002126323936
1.431130274e-05
-1.755265167e-05
-0.0002127973533
0.0002113934143
1.895659062e-05
-1.510919197e-05
0.0002092539923
1.180283799e-05
-0.0002096276597
-8.75499179e-06
0.0002065798135
1.369172392e-05
-0.0002096139348
-1.404063507e-05
0.000209962846
-1.725504052e-05
-0.0002092848871
0.0002102517141
1.628821354e-05
1.410264846e-05
-0.0002082092468
-1.387978181e-05
0.0002079863802
-0.0002089024945
0.0002089592439
1.363497457e-05
1.221470836e-05
-0.0002082456193
0.0002078337489
1.717923697e-05
-0.0002075747179
-1.700462612e-05
0.000207400107
-1.639679066e-05
-0.0002066535074
0.0002064732679
1.657703014e-05
-0.0002087708672
-1.760392189e-05
0.0002091197486
-0.0002077064148
0.0002074956048
1.739004698e-05
1.379165858e-05
-0.0002084232019
-1.370883615e-05
0.0002083403794
1.643601442e-05
-0.0002091685969
-1.622464306e-05
0.0002089572255
-1.556757685e-05
-0.0002094895516
0.0002092887511
1.576837737e-05
-0.000209686378
-1.713377367e-05
0.0002096865195
-0.0002095731604
0.0002093236613
1.668551347e-05
1.392812129e-05
-0.000208613173
0.0002084767103
1.293850911e-05
-0.0002082305044
-1.291490012e-05
0.0002082068954
1.478632564e-05
-0.0002088567486
-1.459140276e-05
0.0002086618257
-0.0002084055628
0.0002082578454
1.425036587e-05
-0.0002091724245
-1.533190341e-05
0.0002089367511
-0.0002084035655
0.0002082468923
1.494299878e-05
1.318866081e-05
-0.0002077791007
0.000207528949
1.666616764e-05
-0.0002059166176
-1.644426117e-05
0.0002056947112
-1.574733726e-05
-0.0002057288406
0.0002055078726
1.596830523e-05
1.768400557e-05
-0.0002081613045
-1.776636749e-05
0.0002082436665
-0.0002062030121
0.0002059212162
1.694796359e-05
1.480614135e-05
-1.459512601e-05
0.0002053188643
-1.382140844e-05
0.00020491584
1.4089915e-05
-0.0002058305177
-1.548826622e-05
0.0002055714466
-0.000205732448
0.0002055214363
1.501715308e-05
1.537322023e-05
-0.0002069810607
-1.505510543e-05
0.0002066629459
-1.424936662e-05
-0.0002068287771
0.000206545874
1.453226973e-05
-0.000206589055
-1.616485685e-05
0.0002063571212
-0.0002069956255
0.0002067173487
1.565149701e-05
1.307944979e-05
-0.0002081371787
-1.314098198e-05
0.0002081987109
-0.000209303364
0.0002105977488
1.638962071e-05
-0.0002068276291
-1.396460517e-05
0.0002065428677
-0.0002073373827
0.0002070726643
1.334416828e-05
0.0002042279646
-1.255324651e-05
1.321709991e-05
-0.000204891818
0.0002035432432
-0.0002038707531
-1.396486865e-05
-0.0002046883993
-1.455371456e-05
0.0002044819643
1.278924852e-05
-1.275074279e-05
0.0002035047375
-1.188378179e-05
1.233800806e-05
0.0002037737384
1.336234625e-05
-1.330552441e-05
0.0002041747428
1.3131945e-05
0.0002029598595
-0.0002052325144
-8.295047727e-06
0.0002016437804
-0.0002051217053
0.0002057968904
1.618428313e-05
6.793379101e-05
-0.000208164538
0.0001699413381
-0.0002059762482
-1.180951277e-05
0.000206913418
-1.766529287e-05
1.758158716e-05
-0.0002068297123
0.0002092671582
-0.0002081228327
-1.423292059e-05
-0.0002061887902
-1.522330294e-05
0.0002065160811
1.18548913e-05
-1.190415663e-05
0.0002093164235
-1.65153868e-05
2.970556735e-05
0.0001937232374
-1.353226768e-05
0.0002050283722
0.0002062577659
1.258221754e-05
1.374770592e-05
-1.36488052e-05
0.0002043722909
1.34573093e-05
0.0002042255055
-0.00020534271
-1.429883987e-05
0.0002031261631
-0.000204527495
1.385214545e-05
0.0002044230555
-0.0002054575393
0.0002052982626
1.614253225e-05
1.661853104e-05
-0.0002047995111
-0.0002057232464
-1.728475649e-05
-1.262509338e-05
1.274000221e-05
-0.0002028947621
0.0002027798533
-0.0002029583881
-1.304007266e-05
0.0002028111252
-0.0002039784036
-1.51440182e-05
0.000203652897
-0.0002038629692
0.0002041236208
1.353556275e-05
1.155210187e-05
-0.0002030937428
0.0001992385188
-0.0002027485542
-1.257483583e-05
0.0002026982967
3.018164756e-05
0.0002072128544
-0.0004145176839
-3.016563244e-05
3.095603765e-05
-0.0004145368489
-3.095047002e-05
0.0004145312813
-3.094199035e-05
-0.0004141573682
0.0004141545417
3.094481684e-05
-0.0004146139816
3.101137183e-05
-3.100854586e-05
0.0004146111557
-0.0004147374758
0.0004146961211
3.099739238e-05
0.000207354651
3.020300539e-05
-0.0004146798224
-0.0004142612295
-3.093916398e-05
0.0004142584031
-0.0004130797108
0.0004130713629
3.092522887e-05
0.0002063897476
3.038093208e-05
-0.000413000441
-1.559669422e-05
-0.0002067625005
0.000206764547
1.559464771e-05
-1.719190859e-05
1.746663396e-05
-0.0002064777375
1.750335482e-05
-0.0002078474075
-1.781725186e-05
1.653062692e-05
-0.0002083306361
1.38391289e-05
-0.0002077788016
-1.4197506e-05
1.494510763e-05
-0.0002071801965
-1.503848825e-05
0.0002072735772
-0.0002096035525
-1.278636427e-05
0.0002095374775
-3.09118316e-05
-0.0002160363874
0.0001768483608
-1.557579742e-05
0.0002937763359
-0.0002082671695
1.333942558e-05
0.0002076722786
-0.0002089376796
1.5491492e-05
-1.518527636e-05
1.588345211e-05
-0.0002096358554
-1.453811239e-05
-0.0002103430261
-0.0002140705633
6.961385973e-05
0.0001746171948
-1.774240721e-05
1.645570353e-05
-0.0002127838596
-1.774047781e-05
-0.0002108745757
-1.398675943e-05
-0.0002110165477
0.0002101089514
-1.349873366e-05
-0.0002105969771
-1.327485118e-05
1.44968318e-05
-0.0002157208846
-1.486910295e-05
0.0002160931558
-0.0002148937371
0.0002148239783
1.492607752e-05
1.7411808e-05
-0.0002136728424
0.0002213311549
-1.732544345e-05
-0.0002173422472
1.01765338e-05
-7.085865645e-05
0.0002820132776
0.0002158276736
1.187391326e-05
7.168731036e-06
0.0001926523935
-0.0002105632113
1.184583177e-05
0.0002058861106
1.312809437e-05
-0.00021248449
-0.0002695900607
-1.219428056e-05
0.0002817843412
-6.882111121e-05
1.208592714e-05
-0.0002128548766
-2.97161932e-05
-0.0002114685923
0.0001723636743
-1.360601223e-05
1.380518488e-05
-0.0002078111145
0.0002074154338
-1.338583212e-05
-0.0002076356139
-1.265010264e-05
0.0002072417343
-1.382654153e-05
1.386606479e-05
-0.0002067735741
0.0002067340508
-1.38355855e-05
-0.0002063597632
0.0002063688071
-1.644954324e-05
-0.0002092792763
0.0001960126264
-1.434752951e-05
-0.0002079415044
0.0002058394907
-0.0002086746448
1.341747316e-05
0.0002087196565
-1.553179838e-05
1.575291761e-05
-0.000208895764
-1.529368526e-05
-0.0002090230935
-1.734119389e-05
-0.0002095320463
0.0002086819583
-1.687295549e-05
-0.0002091501967
-1.390468691e-05
0.0002082326436
-0.0002082140722
1.306682956e-05
0.0002081394863
-1.39951889e-05
1.418204734e-05
-0.0002084009307
-0.0002080074543
-1.513631778e-05
-0.00020871515
0.0002081702613
-1.494374843e-05
-0.0002083628306
-1.334259374e-05
0.000208130669
-1.610940968e-05
1.639245707e-05
-0.000206011888
-0.0002061937828
-1.691474345e-05
-0.0002066569798
-1.545572677e-05
0.0002065160124
-0.0002064115029
0.0002063383237
1.510924265e-05
1.530561429e-05
-0.0002060080392
-0.0002060751681
-1.586475922e-05
-1.442549806e-05
1.467624991e-05
-0.0002070795289
1.535054564e-05
-0.0002071922999
-1.513930643e-05
1.507548382e-05
-0.0002074589978
-1.505416154e-05
0.0002074376756
-1.305248902e-05
1.314563954e-05
-0.0002063398595
0.000206246709
-1.291768256e-05
-0.0002063250447
0.0002061902383
-1.345748746e-05
-0.0002061027627
0.0002057246646
-1.347743505e-05
-0.0002063854582
0.0002064054058
-1.26715525e-05
-0.0002686337727
0.0002813053252
-1.285704964e-05
-0.0002062384067
0.0002061777738
-0.0002062393117
-1.270678253e-05
0.0002060890446
-0.0002071738024
0.0002072266674
1.489224261e-05
1.384523894e-05
-0.0002073434928
-0.000207037474
-1.42156532e-05
-0.0002037279785
0.0002034712178
1.486664747e-05
-1.477295046e-05
-0.0002040556231
1.510059502e-05
-1.443450539e-05
-0.0002039585093
-0.0002033324112
1.426653996e-05
0.0002030407826
-1.684784456e-05
1.728394402e-05
-0.0002037685107
-1.652987215e-05
-0.0002033603367
-1.772929838e-05
1.771253448e-05
-0.0002054358601
0.0002039489335
-0.0002043942879
0.0002017657352
-1.390545258e-05
1.620517695e-05
-0.0002029523602
0.0002006526358
-0.0002022700036
0.0002019668634
-0.0002029791203
1.341196815e-05
0.0002028666798
-1.547310428e-05
1.584576008e-05
-0.0002033517761
-1.514003507e-05
-0.0002033005117
-1.618392844e-05
-0.0002031388581
0.0002029192931
-0.0002032574615
0.0002028039491
-2.933296355e-05
6.730029698e-05
-0.0002075049991
0.0001695376656
-0.0002046347716
0.000191506985
-1.116756284e-05
1.1231492e-05
-0.0002070332614
0.0002650993946
-0.0002089666605
0.0002783797344
-0.0002088802557
0.0002078343377
-0.0002744718866
0.0002881069394
-8.486239333e-06
-0.0002245524397
7.073104883e-06
-6.622515905e-06
-0.0002215138107
-3.00012609e-05
6.985529729e-05
-0.0002201870527
-1.034936407e-05
-0.0002141671596
0.0001945152628
-5.581477076e-06
-0.0002203229626
0.0002889711461
-0.0002246973258
-0.0002117974545
0.0001977664692
-0.0002083305973
0.0002079489664
-1.416069678e-05
1.296207339e-05
-0.000213034333
0.0002163343576
-0.0002140393508
-0.0002097389074
-1.304559215e-05
-0.0002101920489
-0.0002111179471
3.164384338e-05
-1.660558545e-05
0.0001963551564
-0.0002172304335
0.0001780156205
-0.0002155992864
1.712861241e-05
0.0001883496971
0.00029914189
0.0002095601621
-0.0002115412597
1.291995834e-05
0.0002084860356
0.0002055683652
-1.199766558e-05
1.250635416e-05
-0.0002101363483
0.000212076776
-0.0002119885144
0.0001911275036
-0.0002074710138
0.0002070356195
-1.298326627e-05
-0.0002078735797
-0.0002087225314
-1.391185926e-05
1.396393185e-05
-0.0002071595714
0.0002071074988
-0.0002070617856
0.0002070159911
-1.407741585e-05
-0.0002074021446
0.0002071320309
-0.0002072717796
0.0002071582956
-1.597217602e-05
1.618673028e-05
-0.0002086377561
0.0002083694416
-0.0002085887
0.0002080780786
-0.000208848152
0.0002088715864
-1.65714003e-05
-0.0002091497072
-0.000208997843
-1.429835657e-05
1.446748723e-05
-0.0002083996351
0.0002085169252
-0.0002086332344
0.0002086688546
-0.0002078095292
0.0002076555963
-1.471159808e-05
-0.0002080416796
-0.0002080232115
0.0002055159077
-1.626634644e-05
-0.0002056938224
1.38542466e-05
-1.376391298e-05
0.0002054255741
1.398959046e-05
0.0002055593673
1.362555972e-05
-1.349064596e-05
0.0002053729589
-0.0002053711007
0.0002052327474
-0.0002056691419
0.0002067564757
-1.731047092e-05
-0.0002072123723
1.657073043e-05
-1.430379814e-05
0.0002044895434
2.983299728e-05
0.0001949813996
1.414755098e-05
0.0002057632557
-0.0002063151529
0.0002061589058
-0.0002066776603
0.0002051132476
-1.434500517e-05
-0.0002053633684
1.314268472e-05
-1.309276156e-05
0.0002050633244
1.319469509e-05
0.0002052668539
1.292424132e-05
-1.274241489e-05
0.0002047340136
-0.0002049011619
0.0002047326417
-0.0002051562521
0.0002056775032
-1.52678221e-05
-0.0002058979473
1.339490779e-05
-1.337168079e-05
0.0002056542762
0.0002054757085
1.332233346e-05
0.0002053937979
-0.0002056810284
0.000205631681
-0.0002059316974
-1.319893968e-05
-0.0002064851105
1.333118955e-05
0.0002063528606
-0.0002063942507
0.0002063409506
0.0002066486688
-1.477506266e-05
-0.0002069287115
1.490500209e-05
-1.465058406e-05
1.50828375e-05
1.439435635e-05
-1.417352711e-05
-0.0002065960872
-0.0002068388802
-1.338736352e-05
-0.0002065217114
0.0002064316399
-0.0002064623653
0.0002064061913
-8.479705082e-06
-0.0002074699027
1.197897269e-05
0.0002039706351
-0.0002104607029
0.0001893094453
0.0002104495816
-1.432738195e-05
-0.0002092631817
1.190133968e-05
-1.19124609e-05
1.263014786e-05
6.859657916e-05
0.0001718341669
-0.0002119496545
-0.0002098874157
0.0002064870369
-1.367525657e-05
-0.0002067763855
1.386906611e-05
-1.36213409e-05
1.320107756e-05
0.0002065017346
-0.0002066144146
0.0002061941512
-0.0002069455029
-1.246479925e-05
0.0002059521679
0.000206015908
-0.0002043575855
1.361798546e-05
0.0002039567
-1.338452728e-05
1.373742018e-05
-0.0002047104784
-1.309859589e-05
-0.0002051777494
-1.408865813e-05
-0.0002042166004
0.0002041535745
-0.0002045048125
0.0002038066914
-1.262596008e-05
0.0002036819086
0.0002036687479
-1.332785109e-05
-0.0002039496516
0.0002039719782
0.0002032753117
1.269112174e-05
-0.0002082853089
0.0001872991395
-0.000265845853
0.0002785369748
-0.0002097162289
1.180416688e-05
-1.640717484e-05
1.42556249e-05
-0.000207564679
-0.0002068591784
-1.309944465e-05
-0.0002059753994
0.0002082906548
-0.0002071344746
0.0002671557588
-6.82610148e-05
-0.0002107989007
-1.259301942e-05
0.0002797487782
8.417158262e-06
0.0001883062459
-0.0002093771533
0.0001708217059
0.0002051404378
-1.318958032e-05
-0.0002054831251
1.266496986e-05
-1.242419038e-05
0.0002048996583
0.0002049509272
1.197894665e-05
0.0002026959775
-0.000205294683
0.0002048494393
-0.0002059020458
-1.355253509e-05
-0.0002044580707
0.0002043618005
-0.0002044094007
0.0002043141749
-1.40551554e-05
-0.0002048064766
0.0002045627921
-0.0002046386224
0.0002044356125
-0.0002028608945
1.289122706e-05
0.0002027096697
-1.414297948e-05
1.447683261e-05
-0.0002031947477
-1.384304052e-05
-0.0002031947011
-1.480856248e-05
-0.0002032898607
0.0002029092431
-0.0002032409729
0.0002027603975
-0.0002019735951
1.244150537e-05
0.0002010841916
-1.215171497e-05
1.300656019e-05
-0.0002028284403
-0.0002040139657
-1.345016242e-05
-0.0002031414323
0.0002024410403
-0.0002028846426
0.0002023077099
0
0
0
0
0
0
0
0
0
0
0
0
0
0
0
0
0
0
0
9.788977391e-08
0
2.251203227e-05
-3.622118319e-07
5.602257976e-08
-1.031830587e-05
0
0
0
3.838866563e-05
1.406551787e-07
9.149986312e-05
-1.216886331e-06
4.579510593e-07
-7.438941755e-05
0
0
0
0.0001062622611
4.721314154e-07
0
0
0
0
0
0
0
0
0
3.424290117e-06
0
9.067517517e-05
-3.088218824e-07
4.531783608e-07
-4.879449005e-05
0
-2.834979307e-08
0.0001416417747
4.862380683e-07
0.0003227000668
-2.576419498e-06
1.761204334e-06
-0.0002601706936
-4.153359382e-05
-7.794564116e-07
0.0003842875607
2.915452474e-06
0.0005439336874
-1.466131281e-05
8.990732131e-06
-0.0004966428858
-0.0001496577165
-2.635264033e-06
0.0005832861384
1.068051463e-05
0
0
0
6.987058991e-05
1.877038731e-07
3.131688541e-07
-2.523328374e-05
0
-7.39750576e-08
0.0001334678
-1.687099369e-07
0.000403504028
6.164145828e-06
-3.767156556e-06
-0.0003038073965
-9.609171126e-05
4.16356036e-07
0.0005082813977
-3.612035427e-06
0.0008216674606
-1.353253246e-05
9.219432627e-06
-0.0007202953797
-0.0003641047885
-3.913986288e-06
0.0009165846975
1.692650099e-05
0.001143743889
-5.558545082e-05
4.309659035e-05
-0.001079039549
-0.0006387526977
-2.226521163e-05
0.001196251721
4.955138675e-05
-4.638453462e-06
3.464696166e-05
2.977199229e-07
0.0002730039391
7.68789052e-06
-5.215301085e-06
-0.0001722141275
-5.442569077e-05
2.314576355e-06
0.000390371571
-9.999683984e-06
0.0008063505561
2.363284986e-05
-2.441427198e-05
-0.00066657215
-0.000386069829
8.88634778e-06
0.0009459714788
-1.359689011e-05
0.001295021196
-3.719578521e-05
3.295829261e-05
-0.001185648614
-0.000842341934
-1.908155276e-05
0.001390560079
5.036401454e-05
0.001585378802
-0.0001035842236
9.367407563e-05
-0.001536087387
-0.001214972188
-6.86707631e-05
0.001620765107
0.0001014282481
-4.736441131e-05
0.0001160949306
-6.673630838e-07
0.00047655793
1.985863648e-05
-1.793029013e-05
-0.0003376075247
-0.0002159617614
1.090866508e-05
0.0006289334899
-2.395505039e-05
0.001099512631
1.273805218e-05
-1.290839513e-05
-0.0009456403366
-0.0007369912756
1.556974917e-05
0.001244110638
3.228401413e-06
0.001600128975
-7.139749656e-05
5.012971807e-05
-0.001495070272
-0.001304539176
-3.257724328e-05
0.001672885465
7.0748465e-05
0.001715820398
-9.027001413e-05
0.0001068751575
-0.001731526078
-0.001609013504
-0.0001089322516
0.001702212296
0.0001122040611
-9.607654159e-05
0.0001904539411
-3.976258115e-06
0.0006120063555
2.920547186e-05
-2.770009322e-05
-0.0004539045488
-0.0003676773983
2.286934023e-05
0.0007792985406
-3.279709222e-05
0.001270307862
5.647710508e-06
-7.330417175e-06
-0.001114802799
-0.001002417037
1.889399566e-05
0.001411550322
1.290270123e-05
0.001688750497
-0.0001077821488
0.0001021829733
-0.001628865788
-0.001534105227
-8.800330718e-05
0.001715057737
0.0001234319413