/*--------------------------------*- C++ -*----------------------------------*\
| =========                 |                                                 |
| \\      /  F ield         | OpenFOAM: The Open Source CFD Toolbox           |
|  \\    /   O peration     | Version:  v2012                                 |
|   \\  /    A nd           | Website:  www.openfoam.com                      |
|    \\/     M anipulation  |                                                 |
\*---------------------------------------------------------------------------*/
FoamFile
{
    version     2.0;
    format      ascii;
    class       volScalarField;
    location    "2";
    object      nut;
}
// * * * * * * * * * * * * * * * * * * * * * * * * * * * * * * * * * * * * * //

dimensions      [0 2 -1 0 0 0 0];


internalField   nonuniform List<scalar> 
3019
(
1.155882719
1.155851595
1.155822092
1.155800736
1.15603003
1.156029934
1.156052901
1.156102917
1.156196415
1.156348446
1.156521946
1.105425894
1.155115242
1.155028246
1.15494632
1.154894531
1.155123911
1.155166186
1.155296273
1.155598728
1.156033433
1.156742126
1.157761675
1.025955222
1.154316762
1.154168123
1.15404347
1.153986947
1.154247407
1.154386214
1.154700202
1.155318224
1.156370546
1.127712613
0.9126426716
0.7937096862
1.153492779
1.15330093
1.153152621
1.153118526
1.153433568
1.153753645
1.154482868
1.155643966
1.099328798
0.8202610054
0.6475495738
0.5490693287
1.152651791
1.152413598
1.152260868
1.152291568
1.152729215
1.153346217
1.154726343
1.156835434
0.8321889517
0.5967970314
0.4425049172
0.3451671868
1.15180543
1.151544279
1.151412942
1.151534112
1.152187756
1.153254686
1.155618203
0.9745281798
0.6601970444
0.45210901
0.299882702
0.1949909718
1.150954572
1.150681456
1.150603101
1.150925267
1.151813597
1.153532803
1.157130402
0.8321060939
0.5586621884
0.3657963371
0.2148256036
0.09875570328
1.150159334
1.149891475
1.149896672
1.15046101
1.15159417
1.154209224
1.054769623
0.7564212928
0.5153687575
0.3390494639
0.197096409
0.08130616109
1.149423973
1.149178719
1.149309364
1.150178005
1.151685812
1.155273275
0.9920865571
0.7207710651
0.5165117526
0.3663695542
0.2534956564
0.1803941021
1.148830757
1.148623067
1.148899861
1.150117207
1.152087094
1.156664257
0.9621871395
0.7247266114
0.5438511526
0.4182435129
0.3402742026
0.3384607081
1.148375952
1.148223273
1.148692306
1.150340973
1.152789511
1.158275589
0.9535662361
0.7408426234
0.5813639644
0.4726108987
0.4154928601
0.4680808267
1.14812102
1.148029318
1.148685441
1.150759873
1.153744755
1.159996723
0.9594791953
0.7681686203
0.6216772542
0.5174269754
0.453102229
0.456942634
0.1607542571
0.3216102852
0.4547819304
0.4633854627
0.07904379755
0.318332747
0.3133120268
0.1854733063
0.3995020547
0.4352474806
0.3289670893
0.3865618757
0.203844372
0.2297125249
0.4477389071
0.4745738371
0.4479868948
0.4910472356
0.1326554899
0.172179356
0.471259114
0.4468960993
0.07836069388
0.1033765796
0.06507446646
0.1508792881
0.03110347567
0.05912240289
0.233216762
0.2584518167
0.2658109552
0.2014252787
0.1871088293
0.1711362
0.2043001349
0.174938484
0.1999946351
0.4033887421
0.1558294065
0.1315143431
0.1853520045
0.1578486635
0.1047869605
0.131004669
0.4865351906
0.1051396536
0.07984355787
0.1301120542
0.1064896925
0.07659130676
0.4440737364
0.05371477108
0.07878650126
0.05528461838
0.234347154
0.1678236705
0.0945880233
0.1014202845
0.06411529344
0.03650371475
0.2450734333
0.2616159553
0.165550958
0.1500088383
0.07145523981
0.1133877366
0.04131730212
0.01288647995
0.02249512847
0.03793127697
0.03032228003
0.09257389976
0.2582712711
0.2457955391
0.04975644002
0.04167331281
0.09512413743
0.06527732994
0.05711848998
0.0398727386
0.0648115729
0.1071588888
0.0377279741
0.0233325387
0.01471014738
0.05248627875
0.02601759787
0.04167521047
0.02504371622
0.05838674357
0.1988004395
0.03117473017
0.1981692754
0.2192665291
0.03479944824
0.0388645355
0.03158154985
0.03431392091
0.215400942
0.1439554409
0.1423833566
0.1728153408
0.1711041705
0.09580883185
0.09399889244
0.1177742758
0.1161792765
0.24155685
0.07175271918
0.07090364081
0.01574250776
0.01259469023
0.1466931998
0.3213644877
0.3097241423
0.336705836
0.3252212129
0.1499272123
0.2743681028
0.2621972256
0.09385827491
0.1856823557
0.3516665156
0.3404517837
0.060065419
0.06198650396
0.1361619839
0.1180727335
0.2902208484
0.2783142773
0.3058432867
0.2941629912
0.1198611502
0.1012290094
0.03713218404
0.03785548592
0.02148319631
0.02231017085
0.08419741207
0.1250506943
0.05591808671
0.05966394445
0.03815627346
0.03883190446
0.1105373774
0.07573919895
0.0208704535
0.02134253316
0.02047981097
0.06455128383
0.03837955588
0.04000226206
0.0149915453
0.01632529468
0.04485691889
0.04400683747
0.06731038983
0.07802112787
0.09487611525
0.05858665688
0.07321020924
0.06819370885
0.05979093055
0.1374045719
0.12637501
0.102963773
0.1367615413
0.05970603805
0.03872226329
0.04307306533
0.05357899944
0.0334387546
0.03742062414
0.02937731606
0.0946392457
0.0830281851
0.1008656238
0.09704634231
0.03049456621
0.07478581098
0.0726293195
0.07971624445
0.07556473984
0.03628058173
0.1167294591
0.1124240157
0.1237230144
0.1182594213
0.03685863901
0.03267795239
0.1058278658
0.1021753764
0.1110469662
0.1070958137
0.03301650796
0.04347762955
0.04271913544
0.04563326209
0.04373845549
0.04131589854
0.0402753277
0.04246674875
0.04158590523
0.06934389144
0.06742746403
0.07195882013
0.07000943971
0.06203559236
0.04833370204
0.06662712431
0.06456949243
0.0361763117
0.03677860793
0.0998928954
0.02149497885
0.02128244543
0.02215070177
0.02167902644
0.02061828519
0.0865316476
0.0229691219
0.03400990182
0.04097210652
0.05405378744
0.1232865142
0.03749912206
0.02429100468
0.04013822733
0.03718026792
0.02292453152
0.02238577177
0.02385119582
0.0231460613
0.1119081478
0.03906007162
0.03994365528
0.02027845206
0.02076363769
0.07480101843
0.0667348326
0.01939733878
0.02021714033
0.2152268221
0.379425309
0.3696350989
0.3568662882
0.3700001784
0.2188850168
0.3661712462
0.3553328757
0.1891259017
0.1504887464
0.06754615624
0.07128600659
0.07431163252
0.08491110579
0.1639074411
0.04021272889
0.04771492886
0.03696817212
0.04243341143
0.06602374061
0.09285618422
0.09152407308
0.04141250761
0.06674231136
0.06317045053
0.09050552936
0.08880858503
0.06348370451
0.03247529536
0.03909492275
0.03506714414
0.02693438351
0.02758644162
0.02276034789
0.04656188391
0.04522967176
0.04965186876
0.02365129088
0.03398430287
0.03235643157
0.05220124833
0.0518349628
0.03092257834
0.02871989957
0.02831191276
0.03131810922
0.03061979292
0.03532163069
0.05808706893
0.05749416284
0.06158525893
0.06084326077
0.03812018266
0.03190639293
0.05339419695
0.05289095479
0.05688370777
0.05628128269
0.03386536161
0.06498382189
0.06685680052
0.1488118871
0.1376483136
0.06256366635
0.06438857473
0.09162453866
0.09470028197
0.1781848198
0.02673491109
0.02659112709
0.02807773551
0.02786146878
0.02041905584
0.02632536577
0.02622031267
0.1657318504
0.08709415713
0.09047618314
0.03729449105
0.05648238955
0.05601804844
0.0217206725
0.03612821588
0.03587485855
0.03745348788
0.03649336852
0.02192846803
0.02082906946
0.02060565371
0.02104546229
0.03538023108
0.03515890217
0.03571582579
0.03553155356
0.02117191973
0.02173601984
0.02113580849
0.03173762406
0.02271351017
0.01630955293
0.03996180141
0.03098522903
0.01032680377
0.01142826985
0.01866901962
0.02091838436
0.01217862891
0.01507945356
0.01477439401
0.04602228884
0.04301890915
0.08188483389
0.07349767392
0.04334662129
0.0632233424
0.08797325553
0.0845711916
0.03508629181
0.03232135288
0.030315369
0.02292482162
0.02970972362
0.04303013254
0.04359149689
0.03818964248
0.04785018544
0.04804221742
0.03080516226
0.03047194188
0.05088223635
0.05087630128
0.02940200254
0.02901391485
0.03016538567
0.02974828455
0.05917226263
0.05860592804
0.03571565353
0.03747263747
0.06027721122
0.05972989244
0.05456017029
0.05402586631
0.03233642483
0.03339836379
0.05566818688
0.05510931739
0.04321308587
0.02546997942
0.02573705157
0.02505035553
0.02525408648
0.04297158537
0.04452367546
0.02667211707
0.02715441145
0.02600077161
0.02630888023
0.04405225222
0.04093918561
0.02384115225
0.02407813785
0.02347692958
0.02370492349
0.04070832938
0.04219195386
0.02466008399
0.0248483389
0.02424156526
0.02447321737
0.04192113042
0.02716693124
0.02698484793
0.06871440205
0.04621973056
0.04653298564
0.04553723668
0.04581123174
0.06801455729
0.02760587278
0.02740298783
0.02508921298
0.02634396431
0.05998365003
0.04184951366
0.04154732638
0.02805127662
0.02945402462
0.05361532564
0.06615497411
0.04485189399
0.04504694145
0.04414899781
0.04409802051
0.06494597376
0.02589680353
0.02594226187
0.0360979597
0.05395346031
0.05364541997
0.05533842643
0.05498026098
0.03668142468
0.02145061932
0.0212115414
0.02202639097
0.02175381587
0.0217172416
0.01700438009
0.02415913609
0.04438191013
0.039770197
0.05149261551
0.04968805334
0.03428567866
0.02636864707
0.01833472506
0.023577011
0.0250674544
0.0394673572
0.02312597046
0.02341257398
0.02244378092
0.02318007844
0.03953527539
0.02275902242
0.02253401208
0.02358371546
0.02333873253
0.0204926473
0.0345740046
0.03421303516
0.0349994837
0.0347196103
0.0205711435
0.01994716632
0.03352576441
0.03166067887
0.03409181112
0.03350273809
0.01993202377
1.155340611
1.15594685
1.155906392
1.156203029
1.157189802
1.15654555
1.157603588
1.024539412
1.157468356
0.9852781004
0.8766619954
1.041064428
0.8569308237
1.15548789
1.156774478
1.156051938
1.157322875
0.9516320311
1.157587321
0.8900197891
0.7449325731
0.953519222
0.7087408848
0.6265971412
0.8144308005
0.6075988284
1.156426236
0.9710954886
1.157171909
0.8900086596
0.6961848374
0.8787245851
0.6449121017
0.5208403859
0.682502058
0.4878483411
0.4102158682
0.5678076709
0.3912568321
1.021969354
0.7654875198
0.9096576612
0.6978629498
0.5283527572
0.6465388711
0.4812094118
0.3627005415
0.4752704732
0.3297746031
0.2484703014
0.3644667127
0.2276261274
0.861423512
0.6386976037
0.7253683237
0.5784897983
0.4248697629
0.4969020231
0.3816215139
0.2652208925
0.3335774755
0.2306620836
0.14097048
0.2165007342
0.1181760018
0.7713775862
0.5756795339
0.6173441424
0.5217628964
0.3814211635
0.4089247614
0.3400853619
0.2276049796
0.2500959246
0.1942152447
0.09289293912
0.1236297951
0.08683325705
0.0530934645
0.08389911155
0.7255037929
0.5581271758
0.5677152149
0.5119985557
0.3911125792
0.3791076273
0.3551711225
0.2617118384
0.2297152277
0.2045508746
0.1777273121
0.1677196396
0.08518960132
0.0740312886
0.06720374232
0.7230700649
0.5761484614
0.5610915271
0.5355951708
0.4326316795
0.401030181
0.403936838
0.333810175
0.2774164758
0.2742837233
0.256213218
0.2318155826
0.2012719017
0.2009522578
0.1764835458
0.7346732126
0.6068549283
0.5827671428
0.5716754894
0.4836162424
0.4455543941
0.4597479021
0.4072173373
0.3533411477
0.3613274692
0.3561787102
0.3319442938
0.354258591
0.3659065934
0.3523386557
0.7588274632
0.6433222051
0.6155761861
0.6110662074
0.5294758646
0.4957687098
0.5069919257
0.456205395
0.4223287238
0.4289584136
0.429431567
0.4160170998
0.4787284323
0.3783843233
0.3895641599
0.6535122557
0.5402164551
0.4642452864
0.4492755723
0.4625087878
0.4457653329
0.4464307445
0.3153255104
0.3276488662
0.1542851711
0.1342853939
0.1428531098
0.3418047131
0.3297278866
0.3026352432
0.3931949854
0.4039044174
0.4388930867
0.3316543766
0.3436241194
0.4717844467
0.03566563327
0.04774454039
0.08256756209
0.07155036331
0.04482375519
0.3070788991
0.2815869392
0.2961273036
0.2615960645
0.263496239
0.3076838881
0.2070458641
0.2487200351
0.2426031751
0.399038465
0.3789734072
0.381225272
0.3910769095
0.3710005321
0.4105253632
0.3198892866
0.3627101205
0.3754824981
0.4011123982
0.3783126747
0.3701165272
0.2077780415
0.2641446461
0.2602999409
0.2861496188
0.2825773149
0.2261257112
0.4447964617
0.4387507787
0.439534445
0.4768777147
0.437015201
0.4545071357
0.4127318871
0.4420727216
0.4736272937
0.3631318342
0.3746295956
0.4865400709
0.1378653374
0.2043122432
0.2008983441
0.2267908962
0.2224961621
0.1675295741
0.4442751496
0.4536578795
0.4503571954
0.2989272391
0.3112934734
0.4431166465
0.08569409473
0.1472946864
0.149488085
0.1683796552
0.1646361189
0.09925507989
0.07387440925
0.0733649559
0.06297514595
0.1582108503
0.1398568243
0.1344864934
0.03259821195
0.02705701223
0.02568462517
0.0540044658
0.04775827721
0.05268897105
0.2434356221
0.3400310851
0.3522858679
0.285117524
0.330878159
0.2470467956
0.2814801434
0.3176978101
0.2751542104
0.1965333145
0.1230072409
0.1277016976
0.1000540848
0.1034734111
0.192452452
0.1947067941
0.1493742756
0.1556685935
0.1292272914
0.133841639
0.208289557
0.178794348
0.234094283
0.230113459
0.2564761723
0.2526736651
0.1962939634
0.4212225045
0.4073887078
0.4180807084
0.1539775992
0.125691329
0.1275854611
0.1061851579
0.1075260185
0.1331270367
0.1799523266
0.09576894134
0.09895822582
0.129771224
0.1320926811
0.1598934028
0.1096686562
0.17556561
0.1718540174
0.1974329957
0.1939383255
0.1262120113
0.4789271959
0.347581119
0.3592785247
0.1038357196
0.07943412764
0.08034345385
0.05623851786
0.05696838535
0.08102648015
0.1285206366
0.1035489264
0.1049645446
0.08133073756
0.08227143551
0.1078234035
0.1489340903
0.2948172192
0.05275035708
0.03343849287
0.03377593384
0.0777465014
0.05507079096
0.05564610016
0.03465652598
0.03684365354
0.05784627239
0.2095346338
0.1906585365
0.2175050505
0.124914764
0.1628810361
0.1929683366
0.1323895994
0.1542966868
0.1138206453
0.08930929897
0.08009262412
0.091664428
0.04660396623
0.06720554965
0.07983879411
0.05212007691
0.0609412474
0.04249453336
0.2516705666
0.2262296012
0.2228606431
0.2475445497
0.227149716
0.269815603
0.169771398
0.2098963931
0.2247251611
0.1090267758
0.1221040524
0.1546145443
0.0873610272
0.1106796989
0.09796883233
0.1271195102
0.1167426757
0.1017280857
0.01307649441
0.01092783401
0.01063964516
0.02078775881
0.01856116475
0.01999025789
0.02801342783
0.01802166798
0.03396757267
0.02153263025
0.03146507958
0.01549350539
0.01934275449
0.0326681863
0.1543844084
0.1496127415
0.0878463761
0.2539888665
0.2009835818
0.2055356533
0.1928431007
0.1976899458
0.2500171096
0.09456720431
0.0797184198
0.08398604439
0.05630872959
0.06226520513
0.06492495237
0.1203038048
0.1258904206
0.1028203662
0.03367594264
0.03002164109
0.03469167538
0.01806588635
0.02444056256
0.02959895687
0.02090256381
0.02245842403
0.01674381998
0.04723653685
0.04762552431
0.05156800416
0.02882524565
0.03138293922
0.02885777677
0.04674579503
0.04208195438
0.03718131542
0.1123480771
0.1209372269
0.1950625446
0.1941118677
0.1046852824
0.109654506
0.1420994483
0.1474764731
0.2207672713
0.2116938936
0.1354252673
0.1403854867
0.1167819476
0.1181624506
0.1455662083
0.1407903287
0.1140650508
0.1154215284
0.1449813054
0.1466169158
0.1746302075
0.1692930015
0.1417288931
0.1433496262
0.07351443291
0.0745059112
0.09723289857
0.09180478231
0.06931314285
0.07159069191
0.09048396875
0.09281202352
0.1194333102
0.1146988219
0.08737210379
0.08871925307
0.1887937337
0.05164168395
0.05235872621
0.07286068901
0.06963144869
0.05021562425
0.05125441798
0.01341411949
0.01330663124
0.2111512541
0.2077117437
0.1397622026
0.3174848546
0.2627336571
0.2665846369
0.2551600169
0.258929806
0.3136061989
0.3328659227
0.278106054
0.2820746469
0.2704885339
0.2744099942
0.3290686685
0.1655320639
0.2193968298
0.2148739175
0.2702990182
0.2168723318
0.2208644747
0.2090191679
0.213204407
0.2663647703
0.09793498728
0.1613184735
0.1573124326
0.2414866485
0.2376494567
0.1820316343
0.3479462778
0.2933832368
0.2972201889
0.2857562889
0.2896499192
0.3442342232
0.06080454845
0.08324716649
0.08217234856
0.08516797871
0.08413804504
0.06132769277
0.1345866126
0.1087704224
0.1101046448
0.1831809494
0.179317895
0.1117252258
0.2862688221
0.2323833938
0.2362864321
0.224617402
0.2285374967
0.2823240045
0.3019556423
0.2476457183
0.2513990388
0.2401041156
0.2438790192
0.2980601038
0.1246435768
0.1904156502
0.1868503922
0.07757678733
0.07842801624
0.1024945846
0.05763653591
0.05710744949
0.03764734626
0.082407418
0.05794662604
0.05954654188
0.1003192283
0.1021616521
0.1269877453
0.05823662198
0.0790727535
0.07707105615
0.08134760675
0.08007780498
0.05855696839
0.03836966847
0.05878209774
0.05823150507
0.05992688722
0.05936306734
0.03862901238
0.10918438
0.08325210746
0.08421604559
0.05395936122
0.05453635259
0.07676777029
0.06138608281
0.04120613504
0.04619879297
0.01313616899
0.01162220833
0.01368604288
0.008584782933
0.009534962132
0.01806429547
0.01665499794
0.01503720237
0.08277808396
0.09086367448
0.0665466089
0.08274646045
0.08455795662
0.0777836298
0.1002086966
0.09191191624
0.08856649149
0.06436337564
0.06105808166
0.05644176699
0.07170741411
0.06617920099
0.06916505082
0.06987457016
0.0686759616
0.07545364423
0.1335868801
0.1033719988
0.1084382045
0.0938111985
0.09784248977
0.129764491
0.1123306804
0.1164460728
0.1104143169
0.1115781538
0.1145397108
0.123906956
0.04011212964
0.04360463979
0.04280550397
0.04591557421
0.04417877541
0.04124451121
0.05243929059
0.04920102369
0.05051867626
0.09192487831
0.06785974032
0.07020694821
0.05484573023
0.06071024437
0.08765282573
0.09979819531
0.07498792324
0.07562153617
0.07308007341
0.07355948771
0.09827186696
0.07404914721
0.04892183719
0.04928048608
0.04819069161
0.04858003767
0.07333660798
0.07772063858
0.05056672025
0.05185515127
0.04961558333
0.05000589073
0.07648235319
0.1152553085
0.08562665582
0.08658313155
0.08376032726
0.08470070172
0.1138270154
0.121640028
0.08978589944
0.09135244964
0.08756818666
0.08860001
0.1198699598
0.104605822
0.07834709157
0.07920105408
0.07662238941
0.07743134707
0.1033372807
0.1096995991
0.08188733835
0.08281695573
0.08007855985
0.08096458192
0.108377513
0.07130934666
0.04755908411
0.04786659372
0.04689686456
0.04721488642
0.07065168664
0.09864745799
0.07573800281
0.07653353697
0.06221637824
0.06593831347
0.08924451984
0.04343845758
0.0673312337
0.06454813694
0.0747487465
0.07120778084
0.04828933275
0.1208923181
0.09553341583
0.09814325929
0.08521216673
0.08623868542
0.1132840794
0.03926743118
0.06113466719
0.06051755385
0.06288834666
0.06187642066
0.03953491578
0.07374943748
0.05282750265
0.05344646494
0.0478499395
0.0498685729
0.06860227253
0.2716344826
0.2679132428
0.2115485443
0.3768472213
0.323330223
0.3269110288
0.3159872853
0.3196895561
0.3732642303
0.3594041381
0.3375574904
0.3411512462
0.3304126802
0.3340085361
0.3650191409
0.2225245548
0.2789745114
0.2753164526
0.3626142943
0.308515761
0.3122625258
0.3009763827
0.3047698249
0.3589958286
0.1927300933
0.2489435646
0.2451572522
0.1224639095
0.123997598
0.1521725891
0.06837116848
0.09576157961
0.09449491436
0.09921939061
0.09727075454
0.06948573154
0.07853003961
0.104761879
0.1017863525
0.1099200947
0.1075688867
0.08241565352
0.1619264961
0.1343799406
0.1364759027
0.03400925766
0.03248933565
0.03061014
0.0373071452
0.03525125811
0.03682700562
0.03178442304
0.03406094588
0.03687471311
0.0655910018
0.09119303771
0.09015387872
0.09334416118
0.09225000149
0.06620746553
0.1471864885
0.1195653309
0.1209875089
0.1113945204
0.1127396532
0.1392517149
0.06319279681
0.08713702021
0.08611819806
0.08914022591
0.08812193975
0.06378513942
0.09259508334
0.1190467037
0.1176873781
0.1218591666
0.120464562
0.09368181553
0.17636272
0.1482661933
0.1499295625
0.1383597909
0.1400684319
0.1675742742
0.08819127798
0.1134050848
0.1118904
0.1162616811
0.1149211423
0.08956347941
1.15559151
1.155621436
1.156037928
1.155667319
1.155727519
1.156080088
1.155822536
1.155947028
1.156142486
1.156113072
1.15632552
1.156265364
1.15658438
1.156905963
1.156435005
1.157278728
1.131300644
1.156669178
1.062900093
1.021204535
1.058948795
1.154675022
1.154704858
1.155134511
1.154761321
1.154849081
1.155219957
1.154962169
1.155204961
1.15552409
1.155481875
1.155601873
1.155688924
1.156038827
1.156246288
1.156189729
1.156939154
1.15723995
1.156976039
1.140012171
1.060915682
1.119549457
0.9794518274
0.9396345362
0.9877910123
1.153840233
1.153914963
1.154296967
1.154047755
1.154248101
1.154518494
1.154555319
1.155167621
1.155150151
1.155330493
1.155581583
1.155525767
1.156603521
1.157043021
1.156729342
1.046342769
0.9828366198
1.061008361
0.8421129952
0.8059163987
0.8728680125
0.7307531289
0.7132509848
0.7743673489
1.153093697
1.153246864
1.153557728
1.153513751
1.153924114
1.154046225
1.15453044
1.155806889
1.155253707
1.155859381
1.156383323
1.156083801
1.024487244
0.9454410568
1.019179764
0.7563622719
0.7068734466
0.7682695934
0.5903225882
0.5603141402
0.6167887418
0.4933399763
0.4780924558
0.5337438013
1.15247006
1.152759918
1.152973217
1.153249365
1.153991846
1.153903786
1.155117106
1.109004875
1.156109226
1.130282897
1.034464442
1.091866821
0.7819214633
0.7142803536
0.7635818574
0.5535372936
0.509556309
0.5520372734
0.4010457013
0.3715898482
0.4131620075
0.3026111193
0.2864545594
0.3294511042
1.151982095
1.152504344
1.152605912
1.15333208
1.154561669
1.154218917
1.156346291
0.9486059053
1.074047764
0.9317991864
0.8425326069
0.8812797565
0.6284655279
0.5703451196
0.6009995643
0.425016962
0.3820773703
0.4085335224
0.2729371526
0.2422121193
0.2691067139
0.1659111704
0.1474761019
0.1776776422
1.151662071
1.152524053
1.152491473
1.153802883
1.15563242
1.155068563
1.102169959
0.8498646358
0.9235687649
0.8088030222
0.7315771031
0.7527944927
0.5431293628
0.4902310981
0.5050708608
0.3533895653
0.3129938862
0.3248610455
0.2030709038
0.1692607257
0.1816940687
1.151608908
1.152861365
1.15267577
1.154672847
1.157102367
1.156353024
1.01866981
0.7957731967
0.833880524
0.7461091692
0.6787213334
0.6873446277
0.5114956088
0.4645386008
0.4668178843
0.3414179394
0.3046322977
0.3009744684
1.151849818
1.153534924
1.153195291
1.155885823
1.147921059
1.157884498
0.974141624
0.7825728954
0.7876956734
0.7232219467
0.6657338065
0.6625596494
0.5218991126
0.4814248004
0.4753966025
0.3774356642
0.3476240185
0.3341608245
1.152384111
1.154533602
1.154053491
1.157396698
1.108639595
1.125742188
0.9556568916
0.7854988562
0.7834970234
0.7266978619
0.6767620515
0.6723249669
0.5527296179
0.518410456
0.5082269564
0.4323776581
0.4091128527
0.3935683761
1.15321695
1.155797925
1.155225161
1.159053133
1.088681757
1.09628238
0.955395586
0.8023808815
0.7942419562
0.7453889942
0.7015105678
0.6944896676
0.5912609465
0.5607383548
0.5501173394
0.4848372355
0.4648595199
0.4522560974
1.156647457
1.085515042
0.8194121499
0.7751190268
0.7364485904
0.7258282875
0.6325447697
0.6032243732
0.5922784054
0.5277154173
0.5065185577
0.4969123503
0.0637553376
0.06370734993
0.07853031318
0.06019364636
0.04973604734
0.2969049806
0.2906194774
0.3057977325
0.1914027127
0.2072616499
0.2040717052
0.421231789
0.4108539541
0.4227484521
0.3218880893
0.3362929587
0.3442800222
0.4768011652
0.4644440182
0.4626768059
0.4351577287
0.4438216944
0.4589489713
0.1343360263
0.1601431855
0.1584415401
0.4624100493
0.4587234803
0.4670162967
0.08060712521
0.1046975781
0.1029555046
0.1284798656
0.1268605009
0.1019890557
0.2366666144
0.2931585511
0.2896685853
0.3105296276
0.3109969939
0.2543636149
0.1584849366
0.1602836811
0.1889365016
0.183521751
0.1549997657
0.1567318794
0.1062672963
0.1317706132
0.1301066347
0.1567937868
0.1550546943
0.1293861615
0.1012758951
0.09972198559
0.07523732638
0.4040997162
0.1516674865
0.1618034017
0.1758646268
0.1118503274
0.1144501318
0.09777195621
0.05763017634
0.06415776273
0.07009698809
0.04270525084
0.04382267374
0.03814402171
0.2656102191
0.2726346649
0.290841373
0.166097407
0.1808928016
0.1830913124
0.1352851323
0.1378556733
0.1511930026
0.07703974165
0.08463878548
0.07946525688
0.02487280179
0.02495593601
0.03044911523
0.1157617339
0.1140773515
0.09110771236
0.02121988967
0.02375209302
0.02631658585
0.01591271832
0.01676321449
0.01478923425
0.1770696349
0.1816471412
0.1986109762
0.1971564972
0.1706412155
0.1735047174
0.01049332793
0.01050766088
0.01253883305
0.1683368909
0.1675294846
0.1440682618
0.1540519857
0.1685471184
0.168869546
0.0952605963
0.1189341526
0.1172411084
0.1430973894
0.141176494
0.1160727768
0.1215005048
0.1466340814
0.1448545946
1.155514447
1.155541744
1.155396045
1.15589326
1.155696037
1.155710572
1.155785776
1.15572193
1.155882766
1.156505333
1.156347367
1.156094435
1.156911587
1.156600736
1.156822699
1.156351256
1.156442957
1.156700954
1.136142769
1.157605359
1.157209388
1.093092714
1.157932603
1.086556333
1.157205799
1.157536364
1.157859647
0.9388367341
1.001375392
1.062846405
0.9350396004
0.980284085
0.910419633
1.098931188
1.046750889
0.9887188389
0.8338653774
0.8893228201
0.9205199506
0.8819592305
0.8227671758
0.9787023139
0.9354844184
1.155854826
1.155688682
1.155385998
1.156454438
1.156045749
1.156284181
1.155768512
1.155877693
1.15621821
1.097154114
1.157439547
1.156927878
1.030207958
1.102741482
1.021909223
1.157130917
1.157526691
1.111183933
0.8348808985
0.9066812941
0.9657009527
0.8115340708
0.8564942802
0.7872061423
1.006863293
0.9301216194
0.8816545631
0.6768117367
0.740086666
0.7737787745
0.6878929431
0.7122502596
0.6498790393
0.8430052716
0.7769391131
0.7509229792
0.5919101994
0.6520414452
0.6684061178
0.6405825155
0.5805821477
0.76253198
0.701625963
1.147678595
1.156750528
1.156138942
1.03759011
1.123935729
1.058535841
1.15659133
1.156995017
1.107782271
0.8177247398
0.8782169855
0.9538112718
0.7512613279
0.8110717769
0.7535185647
0.945163812
0.8748401022
0.811999655
0.598962582
0.6505136305
0.6980228423
0.5704986574
0.6082120702
0.5577777311
0.7227742162
0.6631553805
0.624359889
0.4584797626
0.5075255003
0.5370955846
0.459391559
0.4817186552
0.4326521709
0.5904734548
0.5343648798
0.5119939324
0.3757265244
0.4253498005
0.4406289269
0.4138432476
0.3639652794
0.5224850205
0.4667355095
0.9263345329
0.9780206031
1.074961987
0.8094271272
0.890210858
0.8402167796
0.9967529237
0.9428904313
0.8578234801
0.635484892
0.6739212238
0.7387259131
0.5615255249
0.6149774103
0.5800869551
0.7019915971
0.6553087506
0.6019787071
0.4379211576
0.4718155526
0.5143849622
0.3968459059
0.4328295906
0.3984970517
0.5116835694
0.4697738534
0.4336806039
0.2996336236
0.3339319581
0.3638973745
0.2835036714
0.3071137419
0.2725484953
0.3871688667
0.3453154803
0.3222644874
0.2105512246
0.2469382307
0.2633150436
0.2344968072
0.1977955455
0.317483026
0.2742061632
0.7785414962
0.808075933
0.8924879415
0.6634319643
0.7316523333
0.7043473308
0.7982383949
0.7626402443
0.692167159
0.5236119573
0.5452305625
0.6014140426
0.4447268355
0.4933416676
0.4726733606
0.5470079234
0.5174728254
0.4689963339
0.340561073
0.3594440694
0.4008042692
0.2845815938
0.3208813978
0.3013066865
0.3688167232
0.3429913981
0.307264808
0.1985199899
0.2184471773
0.2499590351
0.1633542679
0.1894372194
0.1689515986
0.2413305755
0.2140721958
0.1883823745
0.09851732521
0.1219264929
0.1389837726
0.1089679841
0.08433754898
0.1648593192
0.1340272504
0.6992558485
0.7136001444
0.787545264
0.5862562298
0.6468314707
0.6344676795
0.6816850838
0.6623974011
0.6000026472
0.4716751151
0.4793041821
0.530803874
0.387120341
0.4318793492
0.4251814927
0.4557140658
0.441819915
0.3959788784
0.3009005343
0.3048448952
0.3447860389
0.2305955963
0.26669654
0.2632658423
0.2858721404
0.2743858872
0.2383128748
0.1596045795
0.1615746205
0.1958006078
0.1001645647
0.1302684004
0.127954511
0.151949621
0.1397158561
0.1087714201
0.06044913051
0.07096137482
0.06536782563
0.6635170958
0.670962609
0.7366850841
0.5591429231
0.6122539127
0.6082621789
0.6247525868
0.6177590605
0.5623113924
0.4692038139
0.4651818309
0.5103981421
0.3832914204
0.4228124873
0.4291016312
0.4215740646
0.4208082838
0.3798958189
0.3220227463
0.3118630322
0.346523187
0.2478376935
0.2788697074
0.290903974
0.2644779206
0.2696374955
0.2366765788
0.6692094339
0.6675631941
0.7239400436
0.5705240742
0.6167375567
0.6204586219
0.609588063
0.6134394546
0.5657170894
0.4983679801
0.4891056777
0.5281581517
0.4200581615
0.4530465341
0.4640893529
0.4372424022
0.4439713251
0.4094302423
0.3778179746
0.3623055946
0.3899837575
0.31418983
0.33701627
0.3544753607
0.3044915398
0.3200836849
0.2951067551
0.6880303618
0.6821339451
0.731253432
0.5983687821
0.6381875012
0.6454656261
0.625366888
0.6314134063
0.5902657407
0.539544203
0.5288952869
0.5620656742
0.471043511
0.4985976824
0.5102280063
0.4755336305
0.4870038513
0.4583345908
0.4386869512
0.4242129697
0.446247304
0.3903951752
0.4054705861
0.4209754319
0.3719421897
0.3890439838
0.3723338932
0.3642306115
0.3555706112
0.367091512
0.3413067527
0.3523710071
0.3533627651
0.7171601461
0.7091139793
0.753271312
0.6338922539
0.6697261562
0.6785732084
0.6531057198
0.6612362617
0.6246447348
0.5814616327
0.5711292762
0.6011338915
0.5186803841
0.5436749305
0.5542986474
0.5216197446
0.5328657846
0.50755004
0.4869754314
0.4763135387
0.4961802932
0.4466959125
0.459505718
0.4697445386
0.4352262461
0.4481054246
0.4355342457
0.3821559184
0.4327384664
0.4290097664
0.4398714972
0.4361834744
0.3858483642
0.6880039199
0.6983634035
0.6642260335
0.5651614217
0.5760722651
0.5509284883
0.4788543886
0.4877074507
0.4715274029
0.3195418933
0.3714421833
0.3669341004
0.3795383692
0.3754604752
0.3235588404
0.3968322004
0.4469523958
0.4432869139
0.446828537
0.4503659437
0.4003822888
0.3357019443
0.3875330521
0.3833678554
0.3954156435
0.3914080731
0.3396658975
0.0393162514
0.05138322084
0.0513608515
0.05952468239
0.05465869288
0.04254395963
0.08045962436
0.06532769377
0.069455268
0.06214620695
0.05426691256
0.06362201487
0.0380257206
0.04587870453
0.05292053266
0.04056773656
0.03298347976
0.2579137148
0.2739521773
0.2798356211
0.3026645204
0.2903721186
0.2920879805
0.2232397976
0.2242072897
0.2407107915
0.3823037535
0.3960207444
0.4064709149
0.3884187713
0.3866765411
0.3775531502
0.4108164273
0.4041441587
0.3937031955
0.3363858084
0.3321689436
0.3207710657
0.3599577984
0.3505608691
0.3464678536
0.3598729495
0.3522850893
0.3665860012
0.3959956569
0.3870689212
0.4017304924
0.3700270291
0.3829016313
0.3816834626
0.4618461732
0.4627739986
0.4777996627
0.4504457747
0.4509428203
0.4539886649
0.4532160389
0.4589795963
0.4424603738
0.4287392382
0.4302532162
0.4265876921
0.4435862484
0.4433970274
0.4273076455
0.4675513753
0.452523054
0.4570650323
0.366993914
0.4182253631
0.4144190092
0.4255270634
0.4217667877
0.3708066146
0.1633800148
0.1617571449
0.1360710781
0.4587289316
0.4521712826
0.4599291666
0.4428968021