/*--------------------------------*- C++ -*----------------------------------*\
| =========                 |                                                 |
| \\      /  F ield         | OpenFOAM: The Open Source CFD Toolbox           |
|  \\    /   O peration     | Version:  v2012                                 |
|   \\  /    A nd           | Website:  www.openfoam.com                      |
|    \\/     M anipulation  |                                                 |
\*---------------------------------------------------------------------------*/
FoamFile
{
    version     2.0;
    format      ascii;
    class       volScalarField;
    location    "2";
    object      omega;
}
// * * * * * * * * * * * * * * * * * * * * * * * * * * * * * * * * * * * * * //

dimensions      [0 0 -1 0 0 0 0];


internalField   nonuniform List<scalar> 
3019
(
31.93118828
31.93210726
31.93304554
31.93384324
31.96671973
31.96754161
31.96836984
31.97008165
31.97337966
31.97862723
31.9856011
31.99230611
31.79551025
31.79810823
31.80066217
31.80284963
31.83648683
31.83954226
31.84448798
31.86748827
31.88304886
31.90817558
31.94111251
31.97239521
31.66161993
31.66625174
31.67067517
31.6742647
31.70871451
31.71551958
31.72745204
31.76099042
31.79870617
31.85661732
31.9297978
31.99747256
31.52939388
31.53535861
31.54119717
31.54657904
31.58361637
31.59689834
31.62247675
31.67661749
31.75252706
31.86791391
32.01469044
32.16044616
31.39910326
31.40690645
31.41466702
31.42296899
31.46326623
31.48652685
31.53481145
31.62238522
31.76573824
31.99635351
32.31817367
32.71304345
31.26994162
31.27909691
31.28875872
31.3009475
31.34868917
31.38778677
31.47155616
31.60699963
31.86327147
32.3166944
33.12490731
34.58265707
31.14311058
31.15415912
31.16695062
31.18483932
31.24101697
31.30168134
31.43006119
31.64007893
32.07385135
32.93215578
35.02351996
42.06053245
31.01800046
31.03079755
31.04696608
31.07249162
31.14112196
31.22877569
31.41181561
31.72387884
32.38730191
33.83240242
38.22812449
61.01764762
30.89758498
30.91292645
30.93413963
30.96999188
31.04909754
31.16876903
31.41640959
31.84631559
32.7548688
34.7590347
40.99995337
75.36135869
30.7813764
30.79903731
30.82519162
30.8717881
30.96627953
31.11990908
31.4364017
31.98767766
33.11230847
35.5070237
42.60070532
81.63970816
30.67271032
30.69367597
30.72643095
30.78632915
30.89237358
31.08026844
31.46812099
32.13025317
33.42456816
36.07703952
43.74383684
91.26699489
30.56980575
30.59340775
30.63168238
30.70390309
30.82586864
31.04770719
31.50377186
32.26209302
33.69052388
36.54351291
44.85672884
102.4829248
74.58665463
80.76635756
89.95029318
101.1697153
57.8906369
42.28439482
69.0488406
65.06298697
43.50787171
74.82666833
69.62956125
84.72287601
241.8279491
219.1934506
44.6494489
83.2120134
75.76633221
95.2457038
341.2854455
275.7389118
84.23586139
104.2830681
511.4820123
413.2252666
187.6758833
219.2497009
115.1599476
181.3180069
216.4390111
198.0318936
78.17935393
258.3112142
270.3876178
225.2053422
255.4289553
272.5963421
245.576429
85.9421613
312.6526306
354.9355396
272.4484141
309.4534751
409.0564567
344.5448056
96.6003578
419.106416
517.3542881
357.7118712
415.2355761
520.775541
104.5787275
702.1711194
522.3227324
686.5014618
40.45135927
64.33812586
53.91432626
69.01304488
148.2013001
99.80699211
77.67343973
195.8922849
174.1285676
171.2576087
151.961739
70.80498977
1440.031799
272.705702
629.3232547
65.09393121
104.3838815
448.4988285
178.6039852
186.1232129
1301.990349
1441.533686
201.6510869
927.4458367
762.4445956
1385.510204
927.7734155
205.6050887
149.1498255
462.5912439
219.7704344
677.8241606
494.9818631
159.8950747
658.7298086
961.5382287
258.3291028
1500.355119
258.692256
239.9925798
1457.746222
1404.469204
1495.468381
1463.812776
244.0032462
331.987222
334.7274126
288.072991
290.3449502
448.4828936
455.1120859
385.8876689
389.8274853
188.8446253
558.249922
562.7372904
120.1400525
250.9487302
315.3094573
148.751159
153.452842
142.9734049
147.2569268
309.580278
169.8426576
176.3874988
443.9878557
260.2804872
137.6891338
141.6245146
708.000166
695.3117764
345.9634797
372.7464621
162.0572762
167.8354062
155.0875874
160.2360223
368.4583288
430.7581953
1009.389847
1000.177017
1581.464658
1536.348746
496.9195131
368.5341116
743.9391109
710.1120134
996.2079887
989.8898003
404.1835734
537.2099902
1613.230046
1588.580299
1618.271701
604.9013078
1487.454157
1423.77377
425.785501
465.1922145
1405.224602
1416.352614
919.0266847
343.3771093
364.692581
317.0593921
337.0886366
912.3418903
973.7797525
408.8823203
443.3620314
372.306578
398.9144662
980.9426692
613.2376182
290.2105513
311.0921232
880.0812087
912.5238318
1536.124076
544.204437
607.8739896
520.2651816
533.5867949
1502.608496
655.8232593
665.6076044
628.6346819
652.2734107
1440.542112
472.3674004
484.8178401
451.7057233
467.956068
1432.872121
1481.994908
504.5524618
515.8909702
488.8610508
500.6814698
1479.938989
964.2430647
968.3151494
939.911632
962.9658572
979.6574792
991.4337242
969.8971231
977.2438115
681.0598313
690.7160809
668.664476
677.7881556
729.8380253
897.9781393
695.4612572
707.5090822
1022.136125
1014.993121
434.9764119
1611.959733
1616.346772
1580.902825
1602.967652
1660.302674
486.1625219
1501.176728
1074.274074
961.3057121
764.2441865
372.5579514
1038.432796
1488.834503
992.0650563
1048.250946
1546.862898
1569.541054
1508.018068
1537.363978
400.5945302
988.0035497
979.0326849
1645.680653
1618.2969
541.8782056
589.2625192
1708.456688
1648.245823
231.3285291
128.0745877
131.6624877
123.1460429
126.8659943
228.1451424
132.7995747
136.4348585
256.6181224
321.1138793
663.7851867
639.1283456
617.8881563
553.6376414
300.321786
1457.550165
1349.671968
1766.368438
1434.265212
924.0245955
641.0406111
648.5690359
1350.793632
856.9754338
898.0947746
653.6924433
663.2181102
938.7912044
257.5400053
283.9230884
586.498341
738.4941371
1295.787812
958.4384173
1434.721841
1485.988506
968.185008
1824.834027
1347.175966
1396.240201
959.7645129
961.1283117
1503.504658
1486.574368
1497.887801
1426.035766
1445.069016
1450.462603
927.4608662
930.1361126
914.2260588
918.6066428
1415.732991
1491.25543
951.8760065
954.6634443
933.1264982
936.2170597
1469.386686
677.8783785
667.6130566
323.8696847
343.2092089
691.8483734
681.1902687
524.8574088
513.9566137
281.176123
1525.479533
1527.143135
1501.650261
1505.245501
1861.242793
1533.014347
1533.681661
297.7001025
542.8600765
529.2949441
1007.83683
711.8943794
715.211503
1568.182006
1012.632301
1016.08605
987.5981382
1006.810541
1557.384175
1599.02019
1613.041998
1603.90189
1020.93837
1024.032576
1017.483611
1019.585017
1597.645142
1539.243252
1578.766306
1092.275365
1481.3778
2030.80649
1455.190843
1767.608252
731.3426837
943.2660623
1404.975592
1490.695822
970.7484779
1378.91218
1796.946006
1385.728487
1430.37001
710.0172534
784.8371253
1305.974797
936.5106826
666.9819661
690.1435569
1402.716305
1372.061639
833.8129877
1442.568301
1779.800705
914.3245044
1441.504599
1431.757363
1013.186524
1005.201171
1464.144364
1509.654271
970.3957287
966.6482937
1471.76538
1481.035619
1455.359057
1464.807587
923.9577387
926.002566
1448.282094
1424.634545
920.4984592
922.1225157
945.0171759
947.8255091
1485.580614
1475.715695
939.5583827
942.3813013
965.7036454
1505.240272
1496.588126
1517.54342
1511.796404
966.8943034
956.1120045
1466.509885
1450.291247
1488.292981
1478.465615
960.9039297
983.9241778
1555.076235
1546.722779
1567.234758
1559.130711
985.9687021
971.8492394
1528.647169
1523.677924
1541.816776
1534.25668
973.9741589
1517.600528
1520.430574
684.1449192
965.0968712
963.3178365
969.6922749
968.2629805
687.8405105
1510.16265
1513.396924
1571.186909
1493.90637
749.6079911
1018.341403
1027.627528
1417.972595
1368.560254
823.3920181
697.4520188
974.8685581
974.3182837
980.4775371
984.2591893
706.2877872
1542.151117
1535.480352
1026.208891
733.2873714
734.8156924
720.9542123
723.2151741
1015.377018
1612.315725
1624.537788
1585.885369
1600.550535
1571.615918
1979.348142
1441.924556
858.7710584
941.0457278
759.2633045
780.419343
1063.971476
1401.554376
1914.565332
1528.876961
1455.218696
1002.483788
1578.993688
1567.668775
1611.718341
1572.007811
998.6828205
1553.443291
1563.596105
1519.23016
1529.561907
1632.616951
1031.920629
1038.849811
1025.684162
1030.388257
1629.242473
1664.868644
1050.655492
1103.537825
1040.177744
1053.471156
1668.008148
31.786022
31.80789772
31.87781956
31.816714
31.8523697
31.90014156
31.86520056
31.91102534
31.93151824
31.92641227
31.9714462
31.96375132
31.98280276
31.69527396
31.74109039
31.78775341
31.76012557
31.83093907
31.84147742
31.85755136
31.94810819
31.91237955
31.97922789
32.07405903
31.98220234
32.09423569
31.63358158
31.72003535
31.73076768
31.75601335
31.8930595
31.83613454
31.94788841
32.139977
31.9771708
32.21031099
32.4435894
32.11984591
32.482763
31.60616533
31.75994626
31.72250226
31.82800848
32.09567757
31.92955771
32.21125278
32.66046408
32.23010667
32.84978102
33.60911627
32.58164773
33.76523494
31.62648312
31.89041336
31.78424864
32.00876533
32.50992876
32.17920956
32.74567495
33.83259894
32.87608313
34.39630718
37.53180982
34.04542687
38.80186549
31.69737462
32.10738455
31.9382339
32.29690817
33.14839391
32.65456296
33.58387207
35.91412563
34.27914515
37.37823668
51.66762041
38.99570853
47.10398221
54.40358602
44.21826038
31.81213923
32.39201463
32.17684911
32.66212817
33.89795007
33.34031097
34.5433489
38.12590209
36.52003829
39.05636099
41.99938375
40.88633088
64.02654311
73.7255983
69.51571914
31.95259957
32.68877009
32.46668097
33.0276664
34.55406857
34.07031523
35.34152637
39.60800947
38.55848047
41.49217227
45.24053776
44.61099963
76.23509976
91.01593151
89.66580184
32.09816832
32.96320898
32.75913756
33.35407764
35.07756187
34.69435956
35.95112136
40.60559348
39.87982033
42.93031339
47.08730622
46.65501198
82.58410709
110.0623883
106.8230748
32.237646
33.20253179
33.02361442
33.63172637
35.49954599
35.18602791
36.43938773
41.45097569
40.80920156
44.06879217
48.68846043
48.20159079
92.5809832
126.227198
123.0135272
33.25298831
35.589778
41.64094881
45.26892822
51.68248316
49.86065355
104.7635788
147.7888968
142.9984243
88.58841299
87.04753199
73.50195569
105.6833274
101.8519658
79.94113695
121.9971398
119.0640888
88.60627297
141.5122006
137.246762
99.46700385
92.47650739
59.36765152
49.15665141
46.06429739
58.28600687
46.24704478
45.75765526
41.89856577
67.41051845
50.68087756
51.44565126
49.35042324
50.39313071
66.88585558
47.87358039
47.44153231
43.19484865
72.29088202
52.63377999
53.38880839
51.68815834
52.39020827
71.56447206
114.2663402
111.1657241
83.60945767
238.0807475
187.0525652
189.3839245
174.4473722
176.4111187
222.0678833
49.6047762
48.99633939
44.28814139
79.84470004
54.87842604
55.97931083
53.66221281
54.55500189
78.80744874
130.8355392
127.334081
93.89361687
331.3686762
230.2130807
233.2286014
211.8644215
215.2066098
281.9111922
56.32451366
57.43235847
88.1944747
154.696924
149.4220545
105.4054304
476.0518694
297.4905874
292.743699
267.8106382
272.6038014
425.9405932
192.9642475
269.7704256
248.8980434
347.6445403
325.7565686
214.0802423
125.0319774
151.7589313
136.9437841
235.592491
226.1273531
175.8280761
208.7990267
118.1178592
121.91302
113.9736221
117.0003276
206.1582689
79.11691651
100.2563954
93.80499024
263.915843
423.6537224
412.2925253
496.0633413
485.3507352
264.3994528
230.6661472
365.9666159
352.991388
408.7867744
398.5641854
251.2035833
267.9527448
206.5730517
209.4744799
191.7470471
194.1423944
249.2483648
87.24596848
118.1281811
115.2735317
315.5411004
381.8901054
377.5175176
430.8378536
427.005552
351.7404963
278.9899424
510.2455798
499.6112135
372.4647285
367.2076549
306.3222675
395.0553529
259.1928079
263.5942407
236.3955658
239.7015019
354.3722963
98.06554948
135.8925696
132.0507146
422.8941628
533.9005721
529.8721502
696.7986928
690.7223301
511.7952473
360.9847942
438.5861376
434.3017066
525.464724
521.4386129
411.5207011
293.2769518
156.5354294
711.6177132
1041.906508
1034.947234
527.3241559
706.1956781
701.5392074
1014.431245
965.2289661
661.7437551
43.89225398
43.01394054
39.79673044
61.23187802
47.24128098
48.92533831
43.96418952
46.56920695
59.81209972
80.75844662
77.47050508
66.71933651
132.4936523
90.28688142
97.22662887
79.93035284
87.6102433
124.9484707
93.4905753
91.81355559
76.81177658
187.3000391
110.0268649
113.0183964
106.9454516
109.2663493
184.1470966
163.6514525
103.7064347
106.2585627
98.81541676
102.8158142
161.0618934
72.3418732
85.45267329
83.28568232
317.2457666
427.7238848
348.5225792
963.4152652
847.13933
566.7438215
74.17845206
102.8830978
76.79307691
95.23695482
69.77857814
180.2074438
107.524952
82.433911
286.5548815
293.8273032
466.8026832
181.1154204
225.1091121
221.0152419
232.8170259
228.0769718
183.498758
292.4713281
275.5565516
197.5293988
522.3778909
558.3305312
844.3271916
209.6074066
318.1476475
297.9993527
187.7771003
172.3941835
137.7299166
365.1253785
229.5593143
248.6916746
169.7614042
188.7036821
327.3911494
654.0891905
475.3303379
493.3755381
380.4828359
397.3391099
521.8952608
168.0237926
215.1433956
202.6476288
456.4137718
429.3108114
264.9377884
262.6037548
481.6377289
465.5482615
380.9931275
369.8672535
235.5782425
247.7548781
395.1347086
384.5790684
402.8504058
399.4912155
329.2628582
337.5171258
409.63818
406.2189747
341.6286266
338.7289056
285.7101861
292.7770495
347.5474655
344.575151
563.21337
558.1253443
443.6347267
463.631758
589.6866709
575.0211645
487.4375948
477.6872982
381.8487638
393.5088986
500.4346117
494.8654849
236.8704484
735.9662384
728.9449881
551.9966491
570.5236596
750.6413562
738.9866168
145.672668
169.5585068
224.4121205
227.2967249
327.8555441
150.2864257
181.2086629
179.0631344
185.5702793
183.3741257
151.8519667
144.3826375
172.940086
170.9129123
176.9342119
174.8450808
145.7949082
284.1678838
217.5214666
221.3097991
171.976371
211.6874302
208.5733125
218.0875414
214.5908369
174.0797675
430.1658586
276.9073483
282.4939235
201.4647234
204.1074781
264.3479407
138.9786388
165.415536
163.6179484
169.0941269
167.1908999
140.2789086
702.7311156
535.7431263
540.4856759
527.9070213
532.1816113
699.5812925
348.9405895
423.6065507
419.9626067
250.6424335
254.9108419
389.3160048
163.9279321
200.1754781
197.4855139
205.7669682
202.8963949
165.8387183
156.7625392
190.118998
187.8171233
194.9391538
192.493338
158.4790967
357.7317774
243.1516524
246.7704299
542.5143894
538.6499303
426.9286585
703.2066384
707.003067
1002.402329
505.323885
682.253936
667.9294704
449.0250935
442.8601292
364.2037136
720.8410859
554.57195
565.5978006
543.8195855
549.9492543
719.5004731
994.1969472
695.0524232
698.8637891
687.2781534
691.0447714
991.4028414
407.7940755
517.2668903
513.2820607
715.332427
710.4891815
532.0467882
630.1763016
880.718184
800.6341854
618.4216417
504.943686
360.2820367
445.3486714
625.834666
531.158044
779.6346678
663.4795534
622.4676275
633.0593874
923.0546353
350.2316403
456.1576479
445.0616661
476.127684
466.230367
357.0301398
323.8043182
405.9240135
390.3442432
433.8542121
420.741975
330.3271784
893.2985807
588.7556369
608.9169897
420.4831793
553.7752576
528.9058094
605.0277677
582.8670279
432.5401904
381.2007062
494.3018473
484.5515598
514.6417979
502.0037401
389.3237724
447.4758381
458.5073598
621.3430981
297.6742035
353.5404731
342.6242296
376.4988899
364.2090921
303.2998577
557.3220295
739.1250912
719.1020336
885.9643911
812.7452652
580.339802
523.5726064
686.8065107
684.591511
696.8409836
695.6578398
529.2283895
659.1306237
951.2321323
949.7115704
954.9551139
952.5899835
662.338259
640.8662795
942.5287398
926.4984021
948.7310929
946.959598
647.7317873
476.616427
642.8159687
639.109902
650.0615213
646.3583057
480.7349632
458.0513074
625.9271369
618.2683643
635.2492303
631.1016164
463.2829936
508.2882685
672.1817627
668.6180146
679.6481048
676.2380931
512.2975615
492.8552322
657.5921627
653.8343183
665.0038633
661.3773363
496.8160203
671.6464758
957.5659539
956.2999548
961.0255965
959.4212933
674.7401138
438.9048536
551.4089146
547.7466455
644.4873771
614.1824876
474.2036056
917.3978366
631.2483533
653.2204206
579.321557
602.6536209
839.5816449
378.4341435
466.6954963
456.7887143
509.2012869
505.0486521
397.0729516
986.6536178
679.2238426
683.3398454
666.4024124
674.0065573
984.2237637
547.4458399
725.0769508
719.5393447
778.9035258
753.0756719
576.5534572
182.6303806
184.8089316
234.6123853
129.2943974
152.076506
150.5640254
155.2321931
153.6314832
130.4662733
124.4037681
146.1532318
144.6871955
149.1042962
147.6117453
125.6211761
225.0562997
178.4277675
180.5072732
133.9803829
158.5076527
156.8559278
161.895283
160.1775079
135.1931653
252.8524434
196.531718
199.0174595
389.3349386
385.804969
318.4468126
658.8799497
488.5839488
493.1328957
475.7190754
483.0420292
651.6702284
590.0201274
455.1841756
466.048626
437.8833459
445.5001988
566.9370416
303.2229385
362.1803536
357.764798
267.5667775
305.249598
290.0400362
331.5639986
318.4269194
275.2870706
563.0262498
416.9952226
431.8134925
674.5398222
504.9750158
508.7869322
497.2345932
501.1538261
671.1772107
326.5208467
396.1259867
392.7785963
416.5517899
413.0272802
340.2845576
688.0429143
520.1568831
524.1801308
512.5441861
516.4016081
684.617017
521.4377897
413.0488834
416.4306782
406.1728041
409.5403767
517.486886
283.4778469
335.8484756
332.9914685
353.9690806
350.6706195
295.1344191
538.3922266
427.6871657
431.9150325
420.1027192
423.5555686
532.5449245
31.90327921
31.90436319
31.96790249
31.90606327
31.90911367
31.96873156
31.91149631
31.91575226
31.97153172
31.92153451
31.92893195
31.97574035
31.93793466
31.94829612
31.98195871
31.95923835
31.97006873
31.9890414
31.97921863
31.98587043
31.99465967
31.77401928
31.77494086
31.83791147
31.77704646
31.78032649
31.84165894
31.78486815
31.78161098
31.86471223
31.83927226
31.84328331
31.87026667
31.85900218
31.86600233
31.88771091
31.89085991
31.90107461
31.91497954
31.93206974
31.94266661
31.94875217
31.97272284
31.98082406
31.97912875
31.64795099
31.65055084
31.71172572
31.65558995
31.6630388
31.72065699
31.67300283
31.68462596
31.75484287
31.73764624
31.74683018
31.76881934
31.78313605
31.79886188
31.81205228
31.85198585
31.87444113
31.8741495
31.93802778
31.96078352
31.94890602
32.01891134
32.03531407
32.01255274
31.52506219
31.53069154
31.58915702
31.54048797
31.55523894
31.60769849
31.5759936
31.61142259
31.6629587
31.66058396
31.67899928
31.69245092
31.74964459
31.77995624
31.778288
31.88571685
31.92753457
31.90309415
32.06280502
32.10819672
32.0541401
32.23353991
32.27130415
32.18946407
31.40747382
31.41815289
31.47285173
31.43573038
31.46184398
31.50635512
31.50049392
31.56968129
31.59658385
31.61436166
31.64669532
31.65084377
31.7795244
31.83815711
31.81456572
32.05340495
32.14143225
32.06877283
32.45602123
32.57127768
32.41527735
32.93166001
33.06660816
32.78967522
31.29563804
31.31409358
31.36460133
31.34343993
31.3864173
31.42157574
31.44827772
31.56468225
31.56361912
31.60992224
31.66724594
31.65663158
31.90433407
32.00942242
31.95452531
32.43837654
32.63410033
32.47581468
33.46406411
33.8472094
33.42002926
35.38392706
36.13481515
34.91745661
31.19029008
31.21937397
31.26494147
31.26401583
31.32830157
31.35502522
31.41793398
31.60070667
31.56935001
31.65602533
31.74960468
31.72404885
32.14103524
32.32230315
32.23395044
33.13334229
33.54627766
33.28056457
35.72315643
37.07732844
36.00938289
31.09315666
31.13602565
31.1754594
31.19808872
31.28626471
31.3049352
31.41271965
31.67476514
31.61654267
31.74994328
31.88789501
31.85077478
32.47369926
32.752469
32.641682
34.06967694
34.78754347
34.47420529
31.00559384
31.06359194
31.09675185
31.14444624
31.25823073
31.27006862
31.42498036
31.77464437
31.69829228
31.88154633
32.06712636
32.0204885
32.84795658
33.21785225
33.10362801
34.9665817
35.91616862
35.66139982
30.92762076
31.00128929
31.02818012
31.10111183
31.24231221
31.248086
31.45292655
31.88417176
31.80029037
32.02540469
32.2536066
32.20620552
33.19654349
33.63572987
33.53611196
35.66559116
36.74571372
36.56075337
30.85897372
30.94772154
30.96867858
31.06643145
31.23545193
31.2369819
31.48917903
31.99319884
31.90817617
32.16991224
32.43351392
32.38634002
33.50025531
33.98866245
33.90099693
36.20706504
37.37411781
37.22388315
30.91610321
31.23345364
32.01151647
32.30592693
32.59587978
32.54969994
33.75417435
34.27924042
34.20732702
36.65537939
37.90804676
37.76990528
63.76483547
59.56300261
54.56248109
48.76029827
51.99606033
68.48358492
60.77308074
61.18434805
58.0144746
58.57393739
65.73738654
73.92249518
64.35042219
64.91528868
61.5843923
62.00597087
70.24159416
81.99550924
69.76634796
70.61381509
65.50133931
66.14175835
76.75204465
338.0358872
288.1092633
290.445083
71.41243428
72.31639172
85.63748789
500.0221315
399.95254
405.2244737
341.4691614
344.7793749
417.4156194
213.8026999
170.6990491
172.5462204
159.5367667
161.5857292
200.9116536
318.9752907
316.1661645
268.3026291
274.6175836
324.5494171
321.7561795
404.7522048
334.9137125
338.1781378
292.7670544
295.268447
347.7947078
410.4176707
415.2878617
527.8979146
115.2487383
63.45629128
56.69196512
57.40826035
49.98843448
51.29669377
56.11274469
143.8429196
120.9663697
124.2461852
90.87027827
97.41099844
107.727146
193.0946839
155.2778057
157.5433899
142.4698957
144.2788524
177.2016693
168.6770864
139.0932805
140.8059918
127.0370275
129.5981717
155.2945702
120.4697672
108.58352
96.13465115
369.6948793
373.8918084
453.9585473
433.572962
344.0628044
361.2345915
202.8291835
225.2422302
253.0877583
290.9558685
284.1720163
259.1131017
259.512534
300.541969
296.2690124
297.5887576
241.9334661
213.53418
278.1278513
278.8070099
320.0163639
302.4636459
278.8315763
277.8409577
439.0761691
362.1533078
366.154941
314.0330557
317.3518365
377.7543884
364.6835755
308.1689939
311.0765426
31.79241019
31.81723861
31.81187817
31.82978493
31.82267135
31.79918253
31.87421655
31.84774006
31.85315973
31.82784206
31.84596172
31.83682365
31.86602466
31.85474466
31.83882802
31.89435343
31.87335729
31.88203279
31.88052172
31.88943496
31.87642728
31.91441582
31.90108848
31.89370658
31.92424578
31.9109174
31.92191221
31.94319181
31.94133308
31.92602594
31.96569403
31.95333308
31.95683734
31.95818765
31.95285369
31.96369182
31.99495896
31.98564002
31.97560875
31.99277699
32.00276704
31.98584313
31.98758167
31.70838132
31.72655687
31.71538551
31.75404602
31.73914654
31.72348203
31.77727719
31.75716649
31.76967051
31.78084126
31.78860048
31.77022455
31.82950262
31.80722405
31.8045616
31.82551511
31.81514584
31.83311605
31.88625976
31.87783618
31.85300066
31.92860102
31.90205142
31.91614702
31.89269889
31.89512567
31.91744797
32.01074281
31.98178267
31.95438919
32.02835515
32.00588095
32.04145019
31.96512924
31.98155219
32.00351363
32.1177752
32.07296074
32.05260189
32.08957177
32.13221444
32.02317638
32.04554785
31.65843355
31.66788299
31.64621449
31.7190807
31.69186405
31.68644615
31.71048842
31.69978415
31.72306804
31.79646821
31.78532093
31.75108166
31.86648333
31.8234143
31.84250582
31.80628065
31.81182044
31.84722095
32.00796568
31.96308131
31.91301775
32.0706625
32.01537044
32.07206354
31.93917857
31.9711278
32.01689967
32.27998611
32.1868971
32.12680805
32.28612657
32.2403293
32.35804712
32.08927152
32.15550066
32.20701956
32.55071155
32.40260862
32.35787857
32.44970131
32.59160896
32.21652612
32.29408352
31.65008842
31.64727417
31.60839507
31.74172393
31.69051253
31.70055627
31.6841323
31.68558885
31.72867335
31.90619131
31.86783914
31.80057502
32.03183001
31.94425227
31.99456278
31.86870771
31.90340163
31.97475266
32.34343096
32.23659044
32.12945196
32.48688154
32.35473266
32.49256477
32.14628892
32.2381441
32.34312516
33.0555703
32.79730636
32.6318246
33.1053536
32.94988602
33.3149968
32.50193755
32.7093352
32.86136658
34.06515032
33.50884651
33.35954062
33.68143379
34.26885152
32.87758112
33.15360027
31.70095551
31.68263022
31.61665741
31.84948584
31.75981686
31.78866105
31.71575273
31.73522224
31.81384709
32.14773696
32.07637722
31.95415508
32.38660105
32.2188202
32.31209389
32.05888296
32.13101253
32.27328762
33.03452274
32.82369564
32.58388907
33.45711775
33.11195872
33.39086732
32.66107415
32.86432986
33.13535682
35.1192763
34.42795367
33.89002982
35.77522647
35.02164263
36.13732732
33.71393475
34.35273238
34.96391631
40.79357267
37.9749863
36.99957196
39.15830824
43.87021166
35.32986625
36.68527006
31.81226292
31.78039082
31.67604267
32.04773543
31.90330248
31.94780028
31.82286116
31.8598274
31.98884042
32.52518538
32.42410568
32.21888781
32.97754693
32.67168955
32.80271877
32.4247194
32.53976621
32.80650842
34.14787946
33.84472811
33.3578565
35.33174035
34.48422665
34.89943185
33.72171901
34.0792463
34.77015603
39.65323959
38.27364066
36.53459005
44.7765437
40.63476827
43.19034649
37.22674888
39.07468879
41.9950316
50.2327592
48.64754029
50.85031906
31.97461833
31.93002792
31.7798194
32.31710072
32.10732413
32.1659094
32.00029203
32.05086714
32.24359362
32.98961813
32.87145136
32.56770116
33.71271877
33.24464702
33.39253742
32.95229953
33.09428754
33.52285116
35.39066107
35.09782073
34.3106243
37.63731121
36.16426214
36.53798522
35.33773723
35.75861493
37.09973024
32.16034955
32.11284608
31.91586036
32.61496376
32.34349667
32.40328281
32.22511736
32.2849367
32.54184165
33.43547794
33.32720271
32.93782061
34.39997652
33.80420718
33.93380067
33.53222186
33.67176083
34.24029499
36.3652615
36.14806685
35.15874719
39.29305115
37.47357553
37.73244207
36.87878738
37.19334035
38.95251444
32.34500489
32.29781523
32.05963422
32.89551208
32.57381367
32.6307066
32.46081778
32.51912659
32.82968147
33.81977083
33.72670624
33.27439783
34.95377251
34.2754766
34.38323123
34.05274587
34.16967053
34.83064408
37.07700547
36.91291937
35.80896391
40.37048063
38.37535982
38.56718666
37.96280579
38.17992699
40.14249603
109.0017949
96.55954205
97.36747685
95.08281455
95.81591159
107.9089354
32.51561787
32.46993414
32.19786412
33.1417337
32.78182461
32.83441568
32.68145669
32.73700955
33.08865357
34.13948027
34.05958091
33.56193432
35.39561965
34.65915038
34.75043301
34.47688822
34.57706907
35.29985238
37.64859295
37.50646668
36.31916918
41.22634696
39.07745917
39.24886476
38.74032079
38.91746227
41.03305105
125.1287769
109.8957298
110.765677
108.2467313
109.0917324
124.0688113
32.87719737
32.9273737
33.30978703
34.82867938
34.91017873
35.68395967
39.39825587
39.57014186
41.87045624
146.1079532
126.0206604
127.3984939
123.6343519
124.8185004
144.5531093
120.9891429
106.6348335
107.4618307
105.0364273
105.8600213
120.0185818
140.0381154
121.3649408
122.5348082
119.2094183
120.2889097
138.6276872
73.69442242
66.14603605
71.23700186
55.68808857
59.12024068
66.15156262
51.76683488
54.91577312
51.41372679
49.24028679
50.89225952
47.05070109
61.95181939
55.70347695
52.92229633
58.21816969
65.63785939
59.95225065
60.3746525
67.9408542
55.5943954
55.27058232
51.20357691
66.31140326
59.06093538
59.52818121
63.33578897
63.83516683
73.07952727
52.87226663
57.48711056
57.15506339
58.1985745
57.83648428
53.1288736
51.91723455
56.21069984
55.90061105
56.83193496
56.51719258
52.1570085
70.880496
62.42581727
62.87676577
113.2656515
99.8941197
100.7892276
98.17434196
99.04225398
112.2202379
68.22716488
69.00885239
80.95355424
55.21916275
60.8569782
60.35637746
61.9365775
61.38319318
55.57083947
53.93897669
58.98948198
58.58703226
59.87407727
59.42353691
54.23968068
77.75347855
66.79761063
67.51187841
129.6394402
113.3601314
114.2943457
111.5958453
112.4943506
128.4796117
283.8240275
285.9366849
334.7288846
56.80893333
63.10785578
62.50773562
64.35203177
63.72070644
57.07642063
86.61291732
73.18600363
74.12189315
152.9312657
130.707773
131.8146747
128.4894359
129.9557635
151.2121171
388.2368388
395.1751759
487.2939922
324.215436
316.2255933
293.0526588
421.583238
348.1131087
351.6428897
263.2417717
239.3440955
241.4641907
236.376328
237.76954
256.5126339
340.9827313
279.9756857
285.2230375
269.301534
274.7057491
333.5676656
167.1426211
168.9067748
211.2794437
119.3829981
140.4194532
138.9962178
143.2578023
141.8253247
120.6342172
115.3968165
134.5972834
132.8640504
137.5909853
136.151273
116.0353079
202.9159357
163.4270819
165.3134265
419.5183784
343.2675588
346.8103151
337.5723746
340.4099535
415.6601647
492.495125
386.1854745
389.4743397
379.6596043
382.9184567
488.93774
266.3347697
313.3393742
310.4416622
361.8982882
297.1215899
300.576842
289.5810553
293.7039625
357.6439594
405.4063481
332.0097264
334.9542905
326.4527554
329.2951943
401.9760459
117.1964938
103.4039181
104.2525549
101.6753518
102.5794965
116.2311671
330.1622283
327.342264
276.7500358
506.7115741
399.424663
402.7624691
392.7763133
396.0818665
503.1215284
328.103785
331.5088004
400.1473901
351.0797507
297.680048
300.3019855
134.5794855
117.1557571
118.1942275
115.2081279
116.1879237
133.3034316
294.474761
336.6971264
330.9059643
133.1238198
54.95212606
55.893737
62.45194894
58.10596913
52.65051741
53.89094212
113.0273419
117.3348895
138.6510678
92.94893828
101.0644592
97.31157423
107.1391361
104.1265251
95.07522396
93.19600138
87.90650649
83.76967938
116.2554009
102.9188734
108.2072208
150.5065346
153.0297165
190.4333817
110.9318586
127.9283916
126.4503271
131.15544
129.472105
111.8432743
107.723982
122.7587729
121.5830529
125.1540034
123.8884874
108.429552
180.7136004
146.1584395
148.3268972
135.647187
137.4425266
166.1621955
104.6726843
118.0918089
116.676375
120.4886099
119.2592422
105.4182822
100.4249857
111.781476
109.4838284
115.299502
113.5377717
101.5893345
158.286751
131.77611
133.8410058
79.77025203
91.59528532
84.98309605
80.22953194
85.56212338
146.0879998
126.4072205
139.9849023
97.02604763
106.1670169
125.6698001
88.34917831
96.91341074
87.39521243
459.4590003
377.9304603
383.2256112
286.747373
248.0525602
250.937298
243.3755455
245.8120741
281.362704
310.6277001
260.4447735
264.8142403
253.6080072
257.0882687
304.2861235
298.1408373
323.7615093
399.849819
275.6984479
257.8204929
237.2867586
286.190371
249.2721606
272.8776387
446.0345376
357.2104126
361.1825027
349.7924217
354.6414908
436.7791131
307.4242462
304.182283
260.9460288
477.5074416
373.0202512
376.3869095
365.4576959
369.4262055
472.4255122
377.3467785
309.3327214
312.2636771
303.4992655