/*--------------------------------*- C++ -*----------------------------------*\
| =========                 |                                                 |
| \\      /  F ield         | OpenFOAM: The Open Source CFD Toolbox           |
|  \\    /   O peration     | Version:  v2012                                 |
|   \\  /    A nd           | Website:  www.openfoam.com                      |
|    \\/     M anipulation  |                                                 |
\*---------------------------------------------------------------------------*/
FoamFile
{
    version     2.0;
    format      ascii;
    class       volScalarField;
    location    "2";
    object      p;
}
// * * * * * * * * * * * * * * * * * * * * * * * * * * * * * * * * * * * * * //

dimensions      [0 2 -2 0 0 0 0];


internalField   nonuniform List<scalar> 
3019
(
962.7639193
961.1351858
957.3132348
949.7228503
939.3558321
917.7492984
883.2642886
829.4656691
750.5514392
640.0971293
494.8030776
317.269492
963.784205
962.629279
959.7481669
953.8488803
943.4584323
924.7889425
893.8900719
849.9566665
778.1000518
674.1760244
532.4107689
352.5977278
966.2055957
966.0910725
965.4058886
963.2059398
955.4887087
943.4969787
921.3516747
882.6074072
820.6228432
723.4433559
578.3498435
382.7553288
969.2019558
970.5603874
973.0170355
975.780693
973.4398751
970.9046037
962.5469849
936.4229652
893.3923532
810.2667071
667.1570491
447.4244285
971.2278753
974.274187
980.4025136
988.9833486
993.4943703
1003.382166
1012.774457
1008.573996
994.0979454
942.8529874
824.1859107
583.1368311
970.6137728
975.3453962
985.1380101
1000.119499
1011.491706
1035.690744
1065.752638
1088.514444
1116.194641
1127.229955
1087.348974
874.1114198
965.7516804
971.964662
984.8501302
1005.330471
1025.032585
1061.606343
1111.612989
1161.950913
1236.052653
1330.91592
1463.658213
1555.28396
955.2564642
962.5265429
977.5839598
1001.886721
1028.629867
1074.569371
1138.822585
1211.949764
1321.5676
1482.909877
1772.910547
2376.450913
938.0876741
945.8471036
961.8783221
987.8691567
1019.799023
1070.067361
1140.643013
1226.29669
1348.899259
1518.173334
1778.567626
2128.268574
913.7035122
921.3327577
937.0296995
962.3938672
997.067072
1046.361858
1115.092008
1200.33266
1313.417479
1457.073742
1638.202311
1816.442831
882.1322121
889.0641366
903.219333
925.7925996
960.9683806
1004.893407
1065.058938
1142.284941
1236.770606
1347.972363
1474.560791
1593.809257
843.9228506
849.6991131
861.454545
879.1879973
913.8825667
948.5833166
995.7363846
1060.262833
1132.897389
1214.016005
1303.981631
1411.450865
2178.819821
1848.74069
1618.173955
1434.742313
2319.789497
1677.464477
1829.101229
2083.711512
1515.939312
1606.443383
1798.283897
1725.640162
1762.901394
1881.160079
1347.893421
1420.730591
1582.100677
1524.756418
1565.47712
1640.80845
1397.259541
1327.829594
1390.28772
1477.328392
2724.356911
2289.311209
3149.802781
2805.908795
1897.614105
2019.788984
1954.689463
2025.496758
1901.370544
2247.384156
2045.94539
1652.771187
1747.2087
1697.26893
1755.732923
1654.423576
1892.735103
1764.349937
1483.210105
1560.891587
1502.435178
1564.622912
1487.851323
1648.054308
1568.98748
1384.086466
1314.042821
1389.743365
1481.836741
1396.00685
1799.631075
2125.747499
2252.026956
2370.00677
2747.060091
2996.511816
1993.812236
2040.743422
2244.356687
2284.682017
2677.754893
2330.362923
2439.659253
4024.571703
3657.554308
2151.271937
3084.940214
1431.372569
1399.173105
1361.720555
2810.416238
2479.222474
2504.006474
2485.19937
2827.881496
2257.378888
2448.101818
2442.517516
3116.886557
3582.297704
3876.556334
2893.423212
3489.625021
3050.894179
3545.213664
2891.167344
1965.816911
2042.794896
1957.082505
2144.822219
2130.549034
2241.24641
2049.703314
2118.473285
2116.73874
1704.949504
1697.685838
1832.932106
1823.565032
1529.72462
1524.339014
1607.762425
1602.575216
1348.546003
1440.968956
1435.815641
2809.53208
3944.734611
1599.805662
1577.00974
1544.706607
1622.876693
1588.133677
1605.308193
1446.309913
1411.145009
1436.773995
1690.321071
1672.70797
1634.941848
1661.966257
1678.685098
1672.056304
1520.452042
1491.177552
1457.765466
1534.123162
1502.091215
1525.786374
1550.96069
1565.641389
1575.831245
1501.465126
1523.511127
1504.92286
1630.560512
1636.936646
1655.921412
1578.855736
1589.95678
1582.529106
1463.335886
1472.357407
1495.978801
1433.159928
1413.374858
2353.744955
2327.11828
4026.525812
3959.856627
2647.782538
2601.269475
2608.763906
2618.686115
2499.769172
2811.179358
2662.928804
2657.037521
2330.422529
2344.874254
2274.237824
2464.424934
2371.76388
2358.052245
3124.91988
3042.05445
2869.076604
3240.486904
3141.519496
2003.246841
2001.215989
1978.014077
2038.485376
2010.334842
2014.132365
1944.058805
1923.507175
1971.660553
1950.759919
2172.017523
2182.987048
2139.066565
2254.151397
2199.338387
2186.885497
2079.704573
2079.348448
2048.036893
2125.917146
2090.522445
2091.297488
1733.212456
1712.716263
1764.73282
1739.37986
1680.383053
1664.72611
1705.113051
1685.451419
1878.039039
1848.625361
1915.818494
1887.844297
1799.891303
1772.498367
1838.853968
1809.737701
1540.728525
1560.292207
1545.946829
1566.090717
1543.503708
1579.134282
1571.943294
1538.502323
1509.473571
1525.742005
1535.290459
1616.142489
1630.783687
1624.333087
1633.975074
1618.803159
1658.571447
1639.467293
1591.251991
1581.334245
1610.972501
1595.395186
1587.315207
1594.300802
1610.173196
1451.32817
1465.857849
1457.366486
1419.435098
1439.709963
1448.022447
1812.906756
1788.324215
1742.174785
1853.265408
1804.278381
1830.072547
1727.528497
1685.89932
1703.749739
1733.248798
1738.503775
1762.879435
1770.927354
1797.47636
1788.751292
2404.831488
2748.666333
2827.173348
2518.931411
2524.06142
2530.468615
2491.882947
2274.160856
2286.558243
2265.959014
2455.632149
2422.222613
2414.385174
3291.498736
3108.381271
3214.294972
3437.707416
3455.747048
3600.864625
2892.350806
2961.095556
2965.752654
1986.571262
1984.042107
1983.17114
2041.052482
2032.241774
2034.382853
1942.625877
1937.429797
1978.818743
1971.167332
2145.004673
2147.90967
2134.169744
2246.67817
2227.761531
2223.292961
2057.087479
2057.951659
2049.242283
2121.708459
2111.03182
2109.577503
1710.879978
1731.599001
1725.401388
1678.682775
1684.298708
1703.763448
1844.770169
1873.232831
1858.700702
1865.884695
1855.530086
1931.141027
1921.521154
1782.786947
1845.279644
1835.128656
1797.968083
1806.906025
1835.265955
1569.582496
1564.585092
1560.209878
1507.375907
1503.586099
1497.317564
1516.333227
1510.494898
1515.233584
1397.661267
1390.587016
1480.211848
1477.290085
1470.200727
1491.314492
1484.637457
1488.761514
1410.957368
1406.497072
1425.558193
1408.547562
1416.301352
2377.925404
2297.404488
4451.928718
4377.627448
3921.862782
3784.869976
4241.576207
4066.071978
4206.382379
2697.13199
2558.548406
2336.476016
2309.548985
2297.029317
2385.023737
2391.907501
2363.803382
3238.465105
3339.150317
3339.843017
3645.952457
3513.877042
3048.292689
3042.53855
3137.315741
2003.052998
1994.650233
1994.98437
2024.743752
2022.749427
2012.908942
1952.659589
1947.529508
1963.985483
1958.057825
2176.239674
2161.864821
2158.730872
2204.340531
2209.223384
2191.885628
2079.441007
2068.181873
2067.365607
2101.098114
2100.992319
2090.534294
1726.932211
1728.862221
1734.213131
1714.539501
1722.335461
1720.093475
1755.367176
1754.173976
1765.305971
1738.922713
1744.969626
1746.536748
1675.499363
1677.746461
1681.805073
1667.81927
1673.163425
1670.336633
1697.845918
1698.251023
1706.1392
1685.969843
1691.330021
1691.276416
1886.915447
1876.429349
1868.266336
1872.611717
1882.687167
1852.338275
1862.452222
1858.445105
1909.194722
1897.474996
1805.42041
1796.339484
1790.267219
1793.204364
1802.666343
1773.481892
1777.199157
1779.855537
1829.126224
1832.357292
1842.312042
1812.691264
1822.497209
1819.433689
1825.204222
1815.373062
1546.665375
1543.045382
1537.175145
1555.078581
1549.187422
1553.535107
1557.670801
1549.631727
1577.1731
1574.95411
1534.976253
1525.293116
1519.92708
1520.077804
1518.660926
1531.470817
1526.390731
1531.261086
1621.16845
1625.885201
1637.038888
1622.849048
1652.078022
1654.451097
1661.386617
1642.181006
1648.081799
1645.759747
1587.370406
1584.027648
1604.378379
1599.6017
1455.533297
1453.262655
1448.631712
1463.91262
1458.333988
1460.362524
1443.293788
1436.775979
1431.650591
1444.478605
1440.684703
1445.624203
872.2013161
826.3281398
799.4755284
806.9732795
736.3979406
704.2048765
707.439053
604.2106942
571.7672752
563.1947496
424.5836959
399.936685
372.5991233
921.1365023
887.4668254
839.0628998
872.4436788
811.3433094
751.9063724
784.6308828
682.2174564
619.6521473
639.8165993
486.3601023
436.2025811
426.5347661
989.2116899
974.8487333
907.0336089
966.3916821
925.2815663
835.9195804
904.9713311
817.0980443
709.6468191
776.6027091
611.0942993
509.918625
539.2384798
1068.551661
1082.154033
1000.454711
1084.339742
1082.681186
960.4296896
1076.968228
1035.399124
862.7629997
1009.428816
861.7773578
658.3725776
778.4002902
1145.184282
1191.401339
1110.455186
1207.815186
1261.662157
1126.594479
1281.669982
1344.922445
1106.026804
1364.182746
1370.819016
957.8359255
1324.274497
1202.546142
1276.550911
1216.176642
1305.182127
1410.346259
1304.228104
1454.718441
1635.870135
1427.223305
1720.99576
2204.769202
1556.814099
1879.369292
1909.824815
1364.073953
1225.879055
1313.4223
1290.86802
1347.245126
1470.11404
1434.914766
1520.869289
1715.918296
1679.894915
1801.431366
1915.8741
1885.398959
2400.498086
2544.22681
2524.029338
1209.990025
1294.605013
1314.965447
1326.44117
1436.076644
1469.45303
1478.2269
1623.59933
1702.578358
1749.330281
1821.923764
1862.361717
2080.464935
2113.056679
2168.065165
1159.378715
1232.333023
1282.704434
1258.935973
1346.29278
1417.663778
1378.073023
1480.529177
1590.133106
1597.926519
1640.383063
1686.170213
1785.237892
1796.90918
1845.487675
1082.475047
1140.159148
1211.644877
1160.729943
1226.204697
1318.519947
1249.288238
1322.368308
1442.142205
1432.891575
1462.377831
1506.310781
1570.234998
1581.346047
1616.156714
1113.87815
1192.980276
1280.522591
1258.736006
1275.134928
1328.042775
1387.612839
1402.478438
1437.87123
2228.259278
2292.831423
2231.008763
1862.158128
1914.145977
1882.57487
1628.244963
1665.850653
1643.513066
1449.368708
1483.068218
1457.587287
2941.584778
2146.590712
2002.322003
1258.606205
1852.674313
1732.151021
1777.792054
1714.937837
1928.76549
1837.251834
1760.581044
1940.395273
1866.242219
1964.972873
1550.510037
1595.202258
1557.109428
1683.802272
1633.339793
1564.283481
1732.856329
1659.910219
1711.176433
1735.218106
1781.041493
1754.968666
1779.167668
1772.514639
1756.781224
1871.342211
1854.763149
1864.358529
1373.643774
1418.310159
1390.752268
1489.352903
1449.561806
1382.883459
1539.840834
1473.241179
1512.120747
1537.362575
1570.123421
1547.280924
1579.540232
1569.109667
1559.071373
1635.311319
1623.518339
1628.992067
1358.432938
1285.803319
1323.163788
1352.565859
1390.413614
1363.055314
1408.501842
1393.313403
1375.066037
1463.459597
1451.83024
1459.370759
2645.199612
2656.127333
2795.461305
2276.196208
2347.438101
2335.498195
3175.026675
3352.413599
3328.994431
2857.590821
2962.104535
2890.244836
1946.660006
1921.844429
1869.969768
1999.257084
1939.899128
1963.608728
1917.941327
1932.699513
1975.24371
2006.23608
2008.509257
2036.881742
1917.330201
1939.225667
1924.805157
2209.654518
2200.407287
2255.851636
2046.718854
2078.584913
2067.836935
1664.897764
1659.586477
1647.327819
1741.493075
1726.686122
1732.110218
1669.875413
1679.015456
1720.570755
1748.470488
1750.390616
1758.337142
1656.732552
1662.666738
1660.008381
1867.912742
1882.657908
1909.420064
1766.422615
1774.724311
1771.909678
1500.003772
1486.053279
1474.927974
1549.125065
1539.103097
1546.720882
1480.10946
1494.08673
1526.596478
1560.223176
1564.285868
1568.382334
1492.678947
1498.985678
1493.893355
1642.456012
1644.700997
1650.752993
1572.441516
1576.575195
1573.393001
1368.496515
1339.405521
1382.890183
1387.703567
1394.725521
1475.741548
1480.176716
1486.524701
1401.623245
1405.835691
1401.206421
1895.562668
1916.143063
1808.703345
2241.864487
2011.974839
1966.582228
1974.869886
2020.10669
2267.516739
2485.86899
2530.553563
2395.813101
2939.015265
2651.579764
2563.765122
2712.712829
2667.314384
2986.087421
2017.390942
2063.12859
2035.690609
2113.727838
2092.328811
2022.771607
2209.299501
2121.095621
2142.249407
2429.281881
2355.109145
2244.426685
2520.293132
2397.970179
2485.88397
2282.625249
2359.829706
2425.81875
4057.856308
4244.197526
4190.552176
3736.630646
3868.761282
3768.916989
1785.277759
2467.650608
2554.7531
2568.816222
1901.703667
3682.119882
2852.876559
2704.465758
1417.14915
1405.411411
1414.48939
1387.014338
1396.085166
1408.082592
1371.039303
1383.74092
1374.555705
2499.504546
2613.796905
2571.018108
2828.546476
2769.569133
2767.455407
2386.367635
2374.081485
2465.495791
3257.760051
3324.330565
3161.527066
3827.343912
3517.552609
3345.20979
3543.45345
3566.592013
3877.689162
2964.980083
2957.954314
2891.168554
3422.914669
3344.133718
3398.75584
2973.343024
3068.567018
3171.309001
1975.143422
1999.439833
1987.963826
1933.29339
1946.366822
1968.074679
2139.64161
2184.204151
2175.680354
2091.281261
2089.873224
2126.387315
1706.800148
1713.704969
1711.324794
1691.527176
1693.309558
1699.983617
1836.67729
1845.700585
1841.16513
1815.374331
1818.664354
1827.667536
1533.512949
1539.171148
1535.194226
1519.189286
1522.886563
1527.986238
1610.639322
1615.711205
1613.272775
1597.418792
1600.068177
1605.431387
1358.152955
1444.944637
1449.938351
1446.232001
1430.64283
1435.514463
1440.187561
3197.414488
3473.40718
1590.03639
1579.4018
1584.430518
1566.100497
1572.883009
1583.636757
1551.945565
1562.329587
1555.338119
1611.065541
1617.451606
1629.247495
1594.640104
1605.898337
1599.47532
1617.513451
1611.984699
1600.801867
1434.710032
1443.261329
1454.841627
1419.886888
1431.591532
1422.978168
1453.510629
1440.202738
1428.672752
1685.16387
1672.181781
1677.36868
1659.842622
1666.211012
1679.158966
1641.293197
1653.590757
1647.243886
1667.723691
1665.194243
1659.334823
1676.700667
1670.946913
1673.251955
1666.413838
1668.557623
1674.500509
1507.591816
1496.864656
1505.019154
1480.175158
1488.470115
1499.353614
1466.272074
1477.46559
1469.040658
1523.54393
1531.287817
1541.627036
1510.156696
1520.807156
1512.873372
1541.69792
1528.840477
1518.295577
1555.413447
1560.008819
1555.69681
1572.12879
1568.477698
1572.85045
1499.742549
1505.254942
1510.408797
1632.630614
1638.651416
1636.084812
1643.35139
1641.016009
1634.820243
1653.329396
1647.195277
1649.661155
1582.155655
1579.530162
1575.757071
1587.82969
1583.550252
1585.863829
1577.89732
1580.862902
1585.323797
1467.017618
1473.553266
1469.525602
1406.844813
1409.469687
1418.32785
4187.227705
4245.227772
4062.303515
4384.299419
4451.983233
3871.825347
3988.347218
4093.950443
2615.168892
2571.382131
2564.798418
2576.783817
2575.741572
2619.180224
2496.758327
2535.055845
2537.245631
2757.827052
2766.885583
2822.648661
2665.516386
2714.662559
2709.160457
2710.021137
2714.222628
2662.582403
2319.471184
2316.209164
2341.512228
2270.963019
2292.568104
2295.894303
2431.242132
2427.424805
2460.837804
2368.195197
2396.667806
2400.484733
3103.855852
3028.64751
3041.483009
2984.647812
3007.676285
3075.589156
2881.207954
2943.110265
2922.958166
1992.688331
1993.712105
2002.392133
1980.476845
1985.60227
1984.807519
2029.066805
2030.722537
2039.906092
2011.804942
2021.307316
2019.66208
1937.401283
1942.64135
1948.635925
1930.1748
1936.591213
1930.615176
1964.831629
1968.399077
1975.254492
1954.734532
1961.25146
1957.698808
2167.590439
2165.474191
2180.500665
2137.443947
2151.161748
2152.989181
2235.044961
2232.102214
2251.032352
2196.599745
2213.874665
2216.745753
2068.441879
2068.817702
2079.738383
2048.998672
2058.497372
2057.972876
2113.56963
2112.8464
2124.605396
2090.810154
2101.727319
2101.924193
1907.188374
1914.010589
1922.898091
1892.869808
1903.533477
1897.694594
1540.65636
1544.887388
1550.373096
1514.041254
1517.912208
1514.166963
1619.922045
1618.04294
1613.489155
1628.868043
1622.890312
1623.353778
1619.058242
1621.074706
1626.794618
1589.972337
1594.865233
1592.287435
1598.865837
1597.137747
1592.336989
1608.136947
1602.435219
1604.045958
1451.675535
1455.234276
1460.89664
1424.759631
1430.579037
1425.266083
1804.9646
1788.614528
1795.893562
1772.637981
1780.593261
1796.461078
1749.680236
1764.96628
1757.202167
1836.782428
1845.300291
1861.788607
1812.568367
1828.870019
1820.41631
1847.271077
1838.113733
1821.48313
1713.314239
1720.277558
1734.776805
1692.473625
1706.16137
1699.406811
1717.643699
1712.375478
1698.554855
1735.021629
1742.574648
1740.18985
1746.069724
1744.591851
1736.996478
1760.678339
1752.58068
1754.411936
1779.18809
1777.196406
1768.787533
1794.851746
1785.953773
1788.293152
1780.887972
1783.270012
1791.954985
3236.06957
3286.820684
3354.535161
3145.954965
3216.766495
3170.137101
3306.812477
3263.657554
3182.770627
1717.955918
1715.910572
1708.94722
1729.822951
1722.853314
1724.854071
1718.818448
1720.675461
1727.7468
1680.565358
1686.828457
1684.553909
1690.34455
1688.785054
1682.603895
1702.031644
1695.274409
1696.85524
1854.283635
1850.020623
1840.773527
1868.417357
1859.243399
1863.780996
1850.49964
1854.682383
1863.640066
1800.791835
1809.701307
1806.045668
1816.333834
1813.092596
1803.942126
1831.523641
1822.294308
1825.789069
919.6942366
904.9439831
902.530634
886.2137305
862.2467031
859.0415073
833.1390498
797.7552066
793.588323
755.1686824
704.543389
699.582341
645.2365571
576.8841714
571.8029478
499.5057136
413.4424285
409.6231541
319.9375394
221.0785965
219.5329368
948.4823237
941.9082671
935.3229782
932.9077304
921.1354004
911.2027747
905.7658764
884.4621771
864.5140062
855.8597737
840.9515191
835.2450917
785.8045491
763.3365353
756.1198491
682.8705083
650.8935635
642.8988058
540.4152309
497.7101734
490.6296074
357.8126943
306.3924313
301.8458676
963.8815366
960.9555075
950.4988648
956.2837693
949.6151215
934.0289158
940.382177
929.3385244
894.0195297
894.1996027
882.3521924
869.868362
836.0116892
816.4696116
800.2388234
741.4249628
710.2524061
692.1723264
595.8471199
550.7661271
534.1845748
394.7661147
336.9412982
327.3199366
983.6056694
985.3320599
972.6583346
986.8159378
987.3549864
967.6174331
986.9538104
991.6264583
943.2646426
952.8525659
946.1865495
928.233717
916.0555045
901.360462
877.1989826
838.7752681
810.6127065
780.9020733
698.6946467
650.966729
619.8266121
472.562044
401.5900019
380.3839192
1003.32471
1011.001425
998.1738525
1019.939116
1029.54382
1008.313988
1039.307311
1062.350215
1008.730777
1028.273661
1029.098985
1007.301126
1023.577372
1017.741973
985.5965999
983.9856419
965.7651509
921.2071958
878.3654119
834.2966831
777.9997505
636.138734
544.0096286
497.1636544
1020.332366
1033.709526
1022.90068
1049.877857
1068.868572
1050.110882
1090.531077
1130.709159
1079.999779
1108.159987
1118.348424
1096.3891
1147.582062
1156.414773
1120.60042
1177.498981
1182.063532
1124.538505
1173.24611
1155.551446
1059.137938
992.5464019
873.8846938
761.3486954
1029.525015
1047.766177
1042.028291
1070.064014
1096.450503
1084.617901
1128.047558
1181.023265
1145.183552
1177.305928
1196.692517
1179.256105
1261.983529
1286.975695
1257.035497
1377.310615
1414.717781
1360.185186
1559.933276
1622.225674
1501.143265
1027.24001
1048.571222
1049.849872
1074.696868
1105.712624
1103.698309
1143.14294
1200.767354
1188.819973
1219.127888
1244.748786
1236.436314
1334.220562
1369.712395
1355.281193
1503.507551
1561.09743
1538.243892
1011.469724
1033.586027
1043.015192
1060.57739
1092.723571
1102.101207
1131.190822
1185.006753
1200.051001
1222.891408
1250.176619
1253.981822
1343.905825
1380.084292
1385.63578
1509.438713
1561.261424
1572.812373
981.7279592
1002.526035
1019.946834
1027.683571
1057.554517
1077.757914
1092.831276
1137.307484
1175.680999
1188.561097
1213.702386
1226.292151
1297.524935
1328.597925
1346.020068
1432.98288
1471.786826
1499.036943
939.4603824
957.102119
981.4727243
978.3595305
1003.356477
1032.582337
1032.467485
1064.713481
1121.132011
1123.683442
1144.653509
1164.41053
1212.888563
1237.395198
1262.936065
1316.373622
1344.510771
1378.497115
929.9494022
970.4660983
1043.704406
1036.783022
1052.848131
1077.516861
1103.918718
1121.785249
1152.427813
1177.650293
1197.084767
1235.590694
2458.737125
2352.177685
2233.601122
929.930676
1058.502214
1860.999759
1837.511758
1807.437504
2036.88464
2001.893955
2042.562489
1631.470533
1617.627684
1593.119062
1778.188598
1749.710405
1768.396015
1443.810904
1430.941238
1407.789759
1569.137351
1545.610525
1558.353447
1570.092575
1566.564414
1562.115769
1384.299094
1360.376067
1373.297776
1396.156702
1391.295768
1384.780686
1472.707686
1467.20813
1471.369261
1913.860798
1904.360527
1887.845754
2013.382775
1993.079319
2000.139066
1906.224618
1914.149965
1908.91192
1884.932735
1889.813219
1898.15382
1489.06013
1484.247862
1478.8783
1557.007714
1552.575589
1556.271045
1378.498036
1372.089498
1377.479657
1321.822738
2167.574866
2104.607896
2071.457737
2150.617748
2170.180898
2276.007007
2816.185801
2741.485925
2685.263684
2863.502492
2897.645245
3023.627225
2063.31479
2058.077481
2034.973683
2236.363746
2200.954159
2207.377554
2328.747758
2316.018142
2274.623062
2627.206485
2569.622128
2610.38192
3251.565418
3120.671525
2983.901218
1426.687981
1421.449792
1425.91402
3673.541335
3580.72187
3501.510358
3713.87195
3747.332916
3896.878047
1968.800734
1977.458208
1972.499083
1949.439834
1952.867944
1960.663364
4081.046069
3913.339114
3791.711723
1597.147138
1592.136886
1594.609389
1611.283498
1606.892195
1602.685451
1442.240089
1437.870832
1432.643028
1516.242925
1511.324137
1515.213833
1531.157741
1526.902174
1521.936859
858.7506926
849.0243215
863.0868199
815.2338861
832.7621049
843.2429148
817.5509456
824.4490397
806.0113156
785.9705734
773.5999529
795.1370078
723.0079123
749.1044871
762.1269554
730.5978612
738.9291681
711.9237364
676.2931713
662.4425925
693.5872984
590.8983511
627.6308399
641.4262374
608.1944816
616.9010237
579.637825
520.0395216
507.9474674
550.2414
414.7031703
461.9748602
473.2308447
446.7740536
453.5712622
406.0270697
319.4003598
312.6867754
364.0460865
258.4878874
263.4812378
252.0539368
255.1183898
911.5672983
896.2591514
907.0430073
869.5844521
883.7977112
900.3922449
855.2768097
868.7641281
853.4545193
855.0113573
834.7513586
853.2812939
789.2502065
813.4705613
834.6911402
777.2247214
794.321234
769.5078219
754.407876
730.9185846
761.7311935
658.3021028
696.4290464
720.3032688
657.3493002
675.5455483
637.5580328
593.1140472
570.2562669
616.1886674
466.5953337
520.2690658
541.887433
486.4926086
501.9820709
450.0453602
362.9677695
348.6714476
409.1792883
285.2586555
295.9944818
269.4332735
276.5494309
985.8670436
965.3700542
970.4393581
950.7984424
958.9577075
981.2056026
918.5095794
938.0616784
928.1794927
955.5749538
927.4983993
940.4019264
892.8289195
911.7530576
941.9940677
858.1084912
883.7886403
863.057977
880.5795873
843.7688379
870.3027019
776.6493889
812.7135389
851.5010586
747.4360656
778.1311132
740.9806464
729.2680384
687.1984433
734.9789869
571.3616845
632.7599374
674.2971404
567.3878538
597.4217557
537.9712835
458.8388098
427.4047298
502.8144586
345.7180459
370.4894615
309.24613
325.5892137
1074.096197
1051.593922
1048.380195
1054.300969
1053.473674
1078.718991
1004.822463
1029.188513
1027.192517
1085.767175
1051.541971
1054.067172
1039.277036
1046.714844
1085.465674
974.4886485
1009.357205
998.3302427
1067.793912
1014.428261
1028.581412
971.3948106
995.7255856
1054.139275
894.7775917
942.776317
914.0551479
973.8241902
899.1726439
939.8309009
781.702438
847.2075983
925.6520669
723.0620314
780.2396304
714.6497519
672.6024027
601.5213998
700.3189184
485.1485217
543.2165576
400.9822206
438.5871032
1160.205926
1139.743774
1127.123146
1165.202551
1152.461609
1175.630097
1103.764724
1128.379401
1138.152933
1224.839218
1191.195553
1178.147697
1217.323213
1204.287813
1242.774028
1124.093233
1164.597348
1171.810699
1302.411238
1242.646868
1230.312091
1260.912281
1253.449946
1323.700623
1117.596439
1184.852821
1182.277342
1379.252517
1263.644672
1266.430057
1209.757972
1246.99301
1385.022223
1017.584877
1124.315237
1072.842935
1208.609507
1019.089965
1139.601225
833.0660272
1126.732655
616.3525124
710.3326087
1225.566978
1212.258661
1190.914421
1259.112993
1234.901534
1250.140912
1197.284709
1217.132457
1238.823606
1336.54502
1313.655014
1285.211976
1379.910228
1345.019898
1371.335411
1279.738376
1314.251068
1344.158031
1505.747612
1464.086749
1419.278913
1576.091597
1515.529442
1565.162134
1392.282894
1456.962505
1505.240654
1824.968649
1733.303099
1647.632699
1953.03328
1837.654663
1958.557941
1535.966101
1691.949683
1760.825765
1699.280819
1737.469632
1920.462445
1253.041382
1250.00656
1223.575974
1309.040943
1278.390388
1282.151017
1262.632082
1272.232218
1301.908524
1384.144028
1378.944525
1342.381403
1464.637159
1419.414065
1424.813489
1392.766185
1409.117552
1453.333366
1578.000499
1573.631611
1515.628898
1718.257154
1640.613613
1642.414044
1602.941252
1628.149491
1707.08452
1236.546618
1244.377061
1217.413618
1303.659574
1273.058244
1264.705769
1283.437766
1279.279753
1310.42687
1360.448645
1371.650864
1336.4196
1451.042449
1409.732819
1396.899277
1425.634252
1419.409037
1462.351824
1523.531654
1544.563002
1495.885409
1654.370964
1597.328665
1572.009726
1633.983463
1618.375821
1681.254777
1182.583761
1199.057292
1174.835288
1251.205533
1224.497746
1206.895243
1253.712535
1240.190599
1268.096519
1286.758622
1308.715655
1279.249041
1372.279305
1339.69828
1315.860526
1380.703304
1361.451814
1396.215035
1411.163457
1442.350776
1406.50281
1518.142411
1479.663542
1445.411598
1543.462496
1512.484438
1554.794101
1812.871263
1804.927124
1790.492859
1837.123601
1822.203667
1829.116405
1100.994511
1123.556205
1103.774994
1165.488613
1144.138616
1120.236638
1187.530512
1166.520238
1189.266671
1181.930372
1210.427815
1187.586771
1258.364386
1234.016868
1203.754478
1290.176011
1262.803145
1289.129101
1273.012515
1309.343146
1283.475663
1363.144653
1335.932974
1297.382452
1409.968999
1373.458004
1403.036246
1592.730787
1585.506975
1574.942168
1609.058476
1598.194645
1604.361916
1095.400479
1069.415495
1086.453895
1172.456292
1140.028949
1158.644878
1257.747893
1217.023648
1237.588636
1414.426257
1405.518874
1394.309726
1429.075792
1418.198688
1426.215257
1640.496763
1633.530723
1622.287686
1659.073004
1647.405723
1653.092172
1460.728092
1452.057833
1441.457151
1474.570342
1464.194867
1471.959355
2642.034607
2493.154469
2631.764973
2116.434284
2313.137473
2404.861134
2125.374495
2214.184615
2060.869123
1423.60598
1271.977073
1117.255016
1708.547981
1464.249305
1616.544581
1226.299892
1449.247571
1900.432193
1868.479417
1894.199293
1784.136861
1812.163473
1784.529124
2002.912456
1967.261543
1933.367256
1668.497146
1642.731013
1657.239286
1611.291766
1627.077326
1651.89837
1578.753698
1602.688092
1586.061586
1709.498577
1729.637173
1756.542699
1677.427675
1702.993638
1682.680985
1739.362095
1721.927788
1694.928547
1750.105957
1743.278275
1729.850851
1773.658852
1759.672351
1765.474971
1476.675592
1453.871538
1466.642874
1428.280742
1440.808632
1463.587959
1394.885744
1418.007033
1404.432023
1518.421312
1531.996935
1555.230169
1486.244074
1509.075306
1494.499567
1535.072085
1522.429667
1499.492877
1548.176807
1540.475818
1530.300005
1562.699471
1552.365546
1559.088528
1576.315799
1571.704865
1574.758566
1336.387543
1347.713538
1371.55129
1298.264028
1323.386651
1311.256193
1348.6461
1335.876003
1310.630318
1365.578937
1356.952078
1343.533404
1381.29751
1369.891985
1378.162372
1403.406884
1397.654923
1402.245759
1380.017632
1387.282929
1379.931156
1465.375272
1460.966287
1455.427156
2700.409165
2690.524981
2650.740781
2771.978405
2735.203217
2746.995752
2298.443059
2299.84603
2277.775515
2348.705789
2323.527239
2321.821947
1937.894476
1920.989602
1930.12442
1904.294844
1912.278061
1929.629966
1878.387708
1895.194504
1886.945784
1980.418661
1986.32298
2006.995259
1947.512913
1966.446358
1959.392321
1981.420377
1973.777796
1955.390423
2017.792135
2015.622462
2007.017124
2034.958915
2025.942009
2027.276322
1924.837344
1919.363109
1911.614034
1934.403283
1926.933607
1932.096421
1917.385683
1921.921232
1929.650129
2218.035215
2218.46146
2200.639158
2256.939236
2237.13433
2236.238726
2056.929366
2055.38866
2045.680043
2077.317098
2066.743227
2067.534056
1692.432277
1685.788729
1673.606925
1713.968736
1701.086795
1706.392149
1872.500521
1881.26817
1875.981691
1891.97482
1886.504294
1877.528439
1903.594647
1895.22771
1900.967183
1495.219777
1490.221308
1494.708451
1551.568569
1547.372054
1542.794973
1505.001714
1496.717549
1486.506325
1518.592909
1508.486189
1515.828839
1362.296545
1366.844512
1373.301559
1330.422722
2159.410572
2134.804374
2207.252591
2280.023306
2177.816168
2174.677902
2833.385134
2791.76293
2881.353696
2633.533281
2706.953348
2736.14245
2622.96742
2668.033096
2597.418345
2764.532646
2785.336333
2661.610338
3016.903719
2893.044888
2867.78668
2109.293341
2082.841172
2087.563454
2069.4055
2076.559035
2102.353365
2028.931791
2052.016906
2043.61716
2179.318451
2190.966649
2224.726179
2130.036956
2159.28591
2147.721927
2173.419655
2168.142382
2137.686902
2408.485376
2360.577068
2376.863746
2317.772568
2340.383403
2383.976459
2260.717485
2299.403638
2278.450648
2481.80409
2525.76594
2574.578195
2429.647732
2477.174231
2437.208201
2546.415929
2513.578711
2459.590999
1973.497381
2192.187797
2315.942407
2378.561144
2600.042479
3433.485923
3271.76367
3446.851783
2829.378048
3059.535986
3151.057162
2853.409413
2954.154912
2770.837835
1420.333208
1415.331146
1409.826211
2535.660806
2531.663578
2498.435573
2606.826923
2571.083386
2573.703147
2402.892254
2403.052155
2375.503995
2463.829415
2433.352033
2433.017531
3703.112363
3653.050741
3757.090675
3423.28166
3487.78288
3383.889769
3897.955427
3751.852939
3748.180184
1982.679191
1980.021189
1971.853381
1997.112081
1989.075093
1990.866835
1937.352372
1945.102103
1940.739208
1953.620019
1949.387682
1941.86899
1964.350747
1956.920732
1960.931075
2153.882819
2153.615215