/*--------------------------------*- C++ -*----------------------------------*\
| =========                 |                                                 |
| \\      /  F ield         | OpenFOAM: The Open Source CFD Toolbox           |
|  \\    /   O peration     | Version:  v2012                                 |
|   \\  /    A nd           | Website:  www.openfoam.com                      |
|    \\/     M anipulation  |                                                 |
\*---------------------------------------------------------------------------*/
FoamFile
{
    version     2.0;
    format      ascii;
    class       surfaceScalarField;
    location    "2";
    object      phi;
}
// * * * * * * * * * * * * * * * * * * * * * * * * * * * * * * * * * * * * * //

dimensions      [0 3 -1 0 0 0 0];
oriented        oriented;


internalField   nonuniform List<scalar> 
5999
(
0.0004695996881
0.9161804003
0.0006157248397
0.9165538748
0.0007717958106
0.916493929
0.000381720993
0.9164880566
0.0005520181961
0.4583357995
0.0003959214509
0.458285332
0.0005068612929
-0.0004921933276
-0.0006373024246
0.4582515607
0.0007357417302
-0.0008329253373
0.4581941285
0.0009737968644
-0.001126311142
0.4581671631
0.001289148075
-0.00146826338
0.4581501722
0.001653091131
-0.001830736387
0.4581696976
0.001996038821
-0.002144842953
0.4582272611
0.002249081858
0.001294970244
0.9148854301
0.002117582067
0.915731263
0.002557478976
0.9160540321
0.0009176458064
0.9167202802
0.001407609597
0.4579415634
0.001107766529
-0.4581316842
-0.4580878172
-0.001368376483
0.4577639809
0.001692212808
-0.4579026682
-0.00208841437
0.4574313466
0.001198799571
0.001360936444
-0.2288745491
-0.001441636021
0.2287537136
0.00156247148
-0.002060073586
-0.2288039298
0.2286479581
0.00221604529
-0.002810401186
-0.2287654918
0.228576646
0.002999247048
-0.003615427868
-0.2288018691
0.2286129809
0.003804316065
-0.004291826378
-0.2289288912
0.2287884781
0.004432165754
0.001658249315
0.9132271808
0.004384862922
0.9130046494
0.007458338828
0.9129805562
0.003284737909
0.9141012785
0.006792602634
-0.4577906486
0.4574823688
0.003593017727
-0.4574224233
-0.003742279845
0.4578708195
0.003293883644
-0.4567846237
-0.00361577465
0.4562705915
0.001994035096
0.00213577173
-0.2281636385
-0.002450648514
0.2279048205
0.002709466556
-0.2278792439
-0.003619810201
0.2275342605
0.003964793551
-0.2277055711
-0.004972441561
0.2279865776
0.00468524723
-0.2291295549
-0.003809414447
0.2292171748
0.003694770585
-0.2292350442
-0.003775185264
0.2291043056
0.003886581801
0.000667801639
0.9125593791
0.001484533765
0.9121879173
0.00301389765
0.9114511923
0.003729938571
0.9106716589
0.002713578684
-0.4565610512
0.4559528236
0.004338166238
-0.4591807942
-0.005763881645
0.4558716571
0.009073018781
-0.4573984488
-0.01064439594
0.4585757993
0.003044650032
0.006422395415
-0.2269447193
-0.003248099711
0.2266150637
0.003577755343
-0.2264727459
-0.004770712257
0.2263317571
0.004896676001
-0.227725357
-0.006096678556
0.2270089217
0.006746569147
-0.2278599099
-0.009252852111
0.2268307265
0.01021305377
-0.2276038786
-0.01310488075
0.2267098959
0.01396321257
0.0002451419709
0.9123142371
0.0006023456696
0.9118307136
0.001243506279
0.9108100317
0.001853325495
0.9090911024
0.000970737304
-0.4554941153
0.4545248772
0.002822563572
-0.454156763
-0.003483174402
0.4532279431
0.004411994385
-0.4520575414
-0.005650274026
0.4508217005
0.003581183336
0.00330493158
-0.2268224276
-0.005711639647
0.2247880629
0.007745122605
-0.2248841743
-0.01236380185
0.2257684303
0.01139842608
-0.2230483872
-0.01228549391
0.2212792606
0.01393767772
-0.2221615261
-0.01947158814
0.2201651168
0.02137692483
-0.2228277851
-0.02688503636
0.2211474662
0.02852741528
-0.0001221722077
0.9124364094
-8.755188782e-05
0.9117960933
0.000304411877
0.910418068
0.0006146239416
0.9082587438
0.000522146451
-0.4534709578
0.4529635739
0.001122007851
-0.452416678
-0.002314667898
0.451360103
0.003371242901
-0.4495213724
-0.004296474947
0.4480332017
0.002892688077
0.002891957549
-0.2219089267
-0.004125094162
0.2207239568
0.005267944788
-0.2170768546
-0.01012288809
0.2149761529
0.01209339321
-0.2165799487
-0.02071763701
0.2126188224
0.0245376447
-0.2151889398
-0.03201657878
0.2145751971
0.03254948246
-0.2154091261
-0.03819841994
0.2144995402
0.03908954021
-0.0006718997801
0.9131083091
-0.001164797952
0.9122889915
-0.001409608209
0.9106628782
-1.593215075e-05
0.9077642
-0.0008991321731
-0.4527029652
0.4522554994
0.0004315337013
-0.4500510411
-0.0008360599999
0.4494592683
0.001427832789
-0.4472462154
-0.002675268974
0.4464468616
0.001702588349
0.001771707996
-0.2165785211
-0.003786390737
0.215052481
0.005234434168
-0.2080086148
-0.01079638872
0.2064972622
0.01214446964
-0.2050514581
-0.01836086754
0.2030287012
0.02024239419
-0.205065832
-0.02649907579
0.2022036762
0.02931349972
-0.2056647376
-0.04602576196
0.1041746025
0.09831937829
0.0224279011
0.02676861766
-0.001278823707
0.9143871329
-0.002470829738
0.9134809975
-0.003406559061
0.9115986076
-0.001709226726
0.9085210837
-0.002454216113
-0.4521779132
0.4521243804
-0.001655693937
-0.44913224
0.001646150011
0.4489442775
-0.001458187502
-0.4446912961
0.001187205301
0.4438537343
-0.0001850477259
-0.0001722965383
-0.2108149793
-0.001567090438
0.2096711197
0.002613691565
-0.2003388373
-0.006677559604
0.1987659667
0.008080070812
-0.1979922392
-0.01252606124
0.1964848228
0.0138983941
-0.197947036
-0.016974415
0.1973732753
0.01753219919
-0.08947683369
-0.01126485836
0.08922385512
0.01151783693
-0.001901538686
0.9162886715
-0.003717883101
0.9152973419
-0.005585251336
0.9134659758
-0.003253887636
0.9102025681
-0.004012848067
-0.4523819892
0.452631957
-0.003503855366
-0.4490151504
0.003803665046
0.4493044501
-0.004092964664
-0.4433987091
0.004384716724
0.4432535465
-0.001947171226
-0.002309902687
-0.2064552798
0.0009488326931
0.2054541264
-5.215833609e-05
-0.1941397745
-0.003345300158
0.1927761292
0.004538148408
-0.1935399116
-0.007465069219
0.1928464718
0.008030424708
-0.1982794085
-0.00779813342
0.1990981718
0.006972499679
-0.09299413727
-0.001403547999
0.09368685352
0.0007108317485
-0.002490478038
0.9187791496
-0.005098147282
0.9179050112
-0.007663317953
0.9160311465
-0.004809376985
0.912924836
-0.005576208807
-0.4531994221
0.4537672619
-0.005377216727
-0.4497632452
0.00604391344
0.4505314189
-0.006812087082
-0.4433449034
0.007599985915
0.4436124089
-0.003720938563
-0.004172314957
-0.2027622464
0.00292743661
0.2018859888
-0.002158958814
-0.1891266739
-0.0006660553758
0.1880315088
0.001591629887
-0.1913955825
-0.003491742358
0.1911223293
0.003641899316
-0.2021414179
-0.002062355676
0.203259557
0.0009404395851
-0.0973252867
0.001417474089
0.09772591315
-0.0008893076121
-0.0009287929149
-0.003148518883
0.9219276685
-0.00630942034
0.9210659126
-0.009662649633
0.9193843758
-0.006292398893
0.9165799841
-0.007025398864
-0.454626858
0.455487922
-0.007153462878
-0.4514470072
0.00820019775
0.4524922814
-0.009245471998
-0.4441921022
0.01045860331
0.4449048141
-0.005465965909
-0.005742579617
-0.199374868
0.004520292067
0.1985580275
-0.003815182713
-0.1850095361
0.001317907222
0.1840738703
-0.0005508711399
-0.1906936444
-0.0007145915029
0.1906642536
0.0006261827401
-0.2066487598
0.001611898777
0.2077759662
-0.002740483861
-0.1000972587
0.00296175652
0.1003774096
-0.001605568182
-0.00163633923
-0.003733780646
-0.007521260088
-0.01150418144
-0.00760167738
-0.4565792148
-0.008682846394
-0.4537934117
0.009950370255
-0.011339238
-0.4453869054
0.01287533775
-0.006542166449
-0.007585454858
-0.1960950718
0.005452891996
0.1952364871
-0.004710095784
-0.1814353734
0.002286490671
0.1806060882
-0.001624444247
-0.1908969406
0.0008624001247
0.1911023404
-0.001179609176
-0.2111880921
0.004201457412
0.2123515325
-0.005365015114
-0.1022204377
0.004333519921
0.1024915572
-0.002281968928
-0.002322670548
-0.00202966959
0.001295633536
-0.09226010121
0.00117476867
-0.09690511691
-0.0007771309071
-0.0008178075465
0.002794865127
-0.0998022002
-0.001532725739
-0.001557197905
0.004156335733
-0.1019549136
-0.002191843933
-0.002230015876
-0.01317731386
0.0138700405
-0.09016956033
-0.003219074691
0.002137801238
-0.2010646271
0.09781225258
-0.09740664427
0.0007691603773
-0.09389111205
-0.00199000074
0.09447756479
0.0008215425548
-0.001947054508
-0.2055251179
0.1005258331
-0.1002273857
0.002496417655
0.001032933268
0.0981967934
0.09882891763
0.002068834493
-0.09848150659
-0.00119534475
-0.001220900784
0.04900783811
-0.0009764048002
-0.04874246409
0.001759847542
-0.001048816758
-0.047999509
-0.0007396648317
0.001391091456
0.04807773852
-0.0007296561375
0.00359289619
-0.004784158809
-0.2099971893
0.1027017465
-0.1024291957
0.003883784953
0.002677542786
0.1008100469
0.101181454
0.003462429988
-0.1009176344
-0.001845904492
-0.001880345051
0.02509513297
-0.0009812892133
-0.02515516735
0.00104132359
-0.04922703449
-0.0009469887406
0.00193788712
0.04926204494
-0.001025908821
0.00405178363
0.1029834828
0.05174719363
0.002454075266
-0.00253779021
-0.05166347869
0.02699268829
-0.002005097453
-0.02674118764
0.0017535968
-0.02611122259
-0.0009923323503
0.001146444525
0.02595711041
-0.04161894611
-3.512986016e-05
0.04228053763
-0.0003044024595
-0.0003220592057
0.04562290374
0.001030355471
-0.0451814689
-0.0007950962765
-0.0006766940353
-0.006973547121
-0.03835183541
0.0382393115
0.007086071035
-0.0004333580698
-0.0002240120721
-0.04096157596
-0.000703033261
-0.04791401162
0.001341717711
-0.0007241818297
-0.001180397985
-0.0469688617
0.001054302995
0.04709495669
-0.0954671481
0.0003009219447
0.09597881185
-0.0008125856913
-0.046781767
0.04686456487
-0.0005994274849
-0.0006637683693
0.02407580516
-0.0007190337746
-0.02405980465
0.001026036657
0.04590634707
-0.0007257142308
-0.0005837657478
0.001137007933
-0.04669706368
-0.0005941003131
-0.0006276109474
-0.000950521797
-0.04923482394
0.001882620457
-0.0009243092197
-0.001037405979
0.001752140347
0.04916875811
-0.0008756543701
0.002260227333
0.09917149856
-0.00128833542
-0.001314472847
-0.02483968051
0.02490684196
-0.001104567429
0.02442773422
-0.0008982261945
-0.02448002982
0.02406779321
-0.0007316528791
-0.001189686884
-0.02462639842
-0.001032161793
-0.02623622908
0.001157168283
-0.0009909215993
0.001059216794
0.02502683778
0.003632491982
0.101440546
-0.001926418708
-0.001965165302
-0.02528660603
0.0251488417
-0.0008531572657
0.02671649454
-0.0008026406827
-0.02694601565
0.02440791187
-0.0009271663934
-0.0008450087739
-0.02542288647
-0.001445628822
0.00149267132
0.02694564579
-0.002582473305
-0.02751442549
0.02732838563
-0.001259588961
0.02645613754
-0.0007319753507
-0.002253250431
-0.02726627251
-0.009768567799
0.009137520666
-0.1976564925
-0.09329380189
-0.002626979749
-0.09150174992
-0.01092727282
0.09116416439
0.09009443903
-0.006043758638
0.005470198794
-0.08952087918
0.04208181376
-0.04153351552
-0.0009816563097
-0.03942339991
-0.006884363153
0.03933421595
-4.356284758e-05
-0.0005029400683
-0.09492064518
-0.04685036283
0.001018509063
-0.04550893621
0.0007418215793
0.04579315129
-0.04516519106
0.0006866103142
-0.0005625713557
0.04260925526
-0.004686420184
0.09076692186
0.00401393736
-0.01951376712
-0.0001119351588
0.01944152552
0.0001841767609
-0.004643328411
-0.01507221575
0.01481432492
0.004901219237
0.0006579014983
0.01725743388
-0.0009290319602
-0.01698630342
-0.03351587267
-0.09321373551
0.04541148516
0.04392093513
0.01864342371
0.01875376417
-0.008085807166
0.009052753098
-0.03931878134
-0.001115750089
-0.02479939008
0.001258946423
0.02465619374
-0.05084328115
0.002603216459
0.0508989814
-0.0026589167
0.05111263684
0.00275484016
-0.002825088513
-0.05104238849
0.004578840534
-0.01852879195
0.026209256
-0.01225930458
-0.0001831883273
-0.01956232421
0.0002317454232
0.04381394946
0.0006163768406
-0.04336371231
-0.0005325918469
-0.0005340221447
0.02157557197
-0.02184279825
8.403795831e-05
-0.02032476368
0.002963538667
0.02194006554
0.02206508647
-0.02403697552
0.00194442271
2.746634106e-05
0.0001638900602
0.02129974675
0.0007539209069
0.04423136596
-0.0005694120991
-0.0006019253011
0.03899441308
-0.003400900425
0.002852746052
-0.03844625871
0.01781371845
-0.01735806082
0.0002022438616
-0.01629983124
-0.004095178669
0.0157516815
-0.003069498226
-0.01957289078
0.002317625328
-0.001373555329
0.0007176821409
0.01846959164
-0.002363260948
0.0396314697
0.001726204324
0.0178650725
-0.001981193953
-0.003074482906
-0.01852380727
0.023916216
0.0006669677609
-0.0007725591137
-0.02381062465
-0.02051462364
4.923047073e-05
0.02045869448
6.69868354e-06
0.000705238057
0.02396601656
-0.0007550386142
0.04638449054
0.001055616036
-0.04625180871
-0.0006175349486
-0.0005707629157
0.02087521075
-0.02089652415
3.318124655e-05
-1.186785025e-05
0.000591782792
0.02139733935
7.596432625e-05
-0.02056258687
4.927929609e-05
-1.316058658e-06
3.97302526e-05
0.02083092084
4.559661876e-06
0.001073398921
0.04650421395
-0.0006106251424
-0.0005824971909
0.0248139854
0.0008491157944
-0.000836239333
-0.02482686186
0.0009197990206
0.02474211306
-0.000847926681
0.02407503697
0.0008085955703
-0.0008097330438
-0.0240738995
0.0008177409979
0.02408012536
-0.0008228293814
0.0244612696
0.001301386068
-0.001366405861
-0.02439624981
0.001550956492
0.02477663197
-0.001866318863
0.02603549249
0.001207181689
-0.001424747809
-0.02581792637
0.001101539635
0.02609278224
-0.001158829391
0.002797924519
-0.002860370939
0.02453434026
0.001061794544
-0.0007890093362
-0.02480712546
0.02428098143
-0.0008623912629
-0.04187717885
-0.02070956623
0.03761307791
-0.005915729764
0.006158966301
-0.01531545228
-0.0254097706
0.001061915547
0.02544939469
-0.04995093578
0.001884669236
0.05001293239
-0.001946665841
0.05017977977
0.002002480749
-0.002057325535
-0.05012493499
-0.04968611286
0.001742614242
0.04975488057
-0.001811381949
0.001853958834
-0.001917665778
-0.04988722884
-0.02528913296
0.001086544049
-0.05065263401
0.002400594652
0.0507017278
-0.002449688441
0.0025461652
-0.002592377314
-0.05079706904
-0.02495841165
0.001220816114
-0.04924044646
-0.00087215183
0.001792309022
0.04924008829
-0.04939538606
0.001596670414
0.04947241266
-0.00167369702
0.00170385351
-0.001774388607
-0.04961557777
0.02359811371
-0.0003133107914
-0.02386372587
0.0005789229565
-0.0003006624384
-0.02462130102
0.0005501842646
0.02437177919
-0.0246198455
0.0009219027824
0.02456753269
-0.0008695899744
-0.02476585044
0.001350434181
0.02496637275
-0.05039933588
0.0022408095
0.05045088037
-0.002292353989
0.002355479224
-0.002408707551
-0.05059940568
0.002044215963
0.05023426518
-0.00209870137
0.002176258888
-0.002231958104
-0.05034363667
-0.02470155725
0.001237092878
0.02472520634
0.001016609268
-0.0008731423533
-0.02486867326
0.0241946764
-7.22245002e-05
-0.02445947244
0.0003370205445
-0.02515632774
-0.0001207303793
0.0003545914736
0.02492246665
0.02265884535
-0.0228029985
0.0001497799126
-5.626766152e-06
-0.02612194868
0.002220179323
0.02387404036
2.772900575e-05
-0.02681360838
0.001593603144
0.02710608863
-0.001886083396
0.02466099014
0.001207105549
-0.001397626338
-0.02447046935
0.02286556236
-0.002122723142
-0.0228142721
0.002071432886
-0.0003708480875
0.0006450586584
0.02332390314
-0.0001129748911
-0.02539158203
0.0003482291739
-9.728683241e-05
-0.02610123255
0.000336857861
0.02586166152
-0.02582425636
0.0009611416003
0.02569250479
-0.0008293900333
0.02563618455
0.0009932278442
-0.0007180664181
-0.02591134598
0.02219267543
-0.02230357408
8.655714766e-05
2.434150664e-05
8.411764386e-05
0.02252396221
5.07655001e-05
-0.01936771201
0.004395960253
0.01491612149
5.563027233e-05
-0.02426402234
0.002536862893
0.0251500206
-0.003422861155
0.01769620434
0.001140582447
-0.01898582508
0.0001490382989
0.003878120613
0.01368177843
0.0001363052951
0.01528864952
-0.001852009199
0.001548534154
-0.01498517448
-0.001080687503
0.01579782879
0.000571508231
0.01981119971
0.0003629991844
-0.02041471369
0.0002405147948
-3.120074459e-05
0.01964799828
0.0001944021795
-0.02271349091
0.0003025836823
0.02237970648
-0.02201653493
0.0006679380714
0.02202275469
-0.0006741578342
0.02184567407
0.0006630039017
-0.0005944795403
-0.02191419843
-0.02084124713
0.0007874050176
0.02128553876
-0.001231696642
0.000713074455
-0.0008144883381
-0.02191512104
-0.02306573627
0.0007152445427
-0.01986608597
0.003843339724
0.01990086686
-0.02222572625
0.001326604077
0.02283212976
-0.001933007579
0.02456676466
0.001118592902
-0.001457068356
-0.02422828921
0.0006950719969
0.02179396356
-0.0006433614846
0.001108366874
-0.001435459375
-0.02189863375
-0.02049745846
0.001771954941
-0.0003496060288
-0.02015297218
0.0005587681199
0.01994381009
-0.0197380776
0.0002320819989
0.01990464653
-0.0003986509264
0.0006432783358
-0.001082828984
-0.02040169648
0.02014752719
0.0009028501488
-0.0008852441006
-0.02016513324
0.01971393512
8.398604509e-05
-0.0197784071
0.001355774253
0.01840237958
2.02532611e-05
-0.02228478703
0.001437494114
0.02267998943
-0.001832696514
0.02600548266
0.002031138143
-0.003035954714
-0.02500066609
-0.02256855236
0.0005385244798
0.02243128234
-0.0004012544607
0.00096406709
-0.001021488114
-0.022227366
-0.02021788843
0.0003788686767
6.061265771e-05
-0.02604676035
0.0004516345749
0.02585383824
-0.0002587124699
0.02526509552
0.0004318951539
-0.0002313070916
-0.02546568358
0.001493438776
0.02640096526
-0.001888921375
0.0005081805746
-0.0003197623757
-0.02623517855
-0.02104457957
1.398293371e-05
0.02101651333
1.408330694e-05
-0.02430380358
0.0005222793954
0.02415494502
-0.000373420831
0.02370965984
0.0005117053692
-0.0003678461339
-0.02385351908
0.0008620200617
0.0246408389
-0.0009360943061
0.0005389877186
-0.0003958076132
-0.02444698369
-0.02109034527
1.433684354e-05
3.142886271e-05
-0.02070165486
-2.311981204e-06
0.02063673476
6.723208128e-05
-0.0231387473
0.0005069657744
0.02299202042
-0.0003602388962
0.0005227570833
-0.0003832254965
-0.02270808395
0.0005132751567
0.02356815853
-0.0003717738472
0.0005072622639
-0.0003613454247
-0.02328466413
-0.02076013526
3.553787722e-06
5.492660641e-05
-0.02608834797
0.0003139766842
0.02586823369
-9.386239643e-05
0.02522380315
0.0002659185295
-4.954867289e-05
-0.02544017301
-0.02690499444
0.002006056774
0.02700525671
-0.00210631904
0.0003845130818
-0.0001300540172
-0.02634280704
-0.02437098842
0.0241611315
-9.080552135e-05
0.02349127229
-7.367976797e-05
-0.02373090331
0.0002671401745
0.02500659844
-4.993546542e-05
0.0002963038803
-8.755291406e-05
-0.02457973938
-0.02436508927
0.0004448330931
0.02413254486
-0.0002122886881
0.02342137428
0.0004739490692
-0.0002334851991
-0.02366183815
0.0004250253948
0.02504588402
-0.0002058138934
0.0004370902963
-0.0002074824366
-0.02459469713
-0.02245100891
0.001977692671
0.02251605155
-0.002042735302
0.003205987294
-0.004461372217
-0.02564960952
0.0005001571781
0.02317694167
-0.0002557245686
0.001155460569
-0.0009412333974
-0.02266523608
-0.0004753583802
0.02261836111
-0.02320680035
0.001063797628
-6.98135575e-05
0.0003473275281
0.02391716243
0.001032739657
0.02458629601
-0.0008938293279
-0.02175952963
0.0216484011
4.131496749e-05
0.020814654
-0.02130625463
1.624224872e-05
-0.02213451931
0.02203966906
-2.588012276e-05
-0.02187774726
4.599313193e-05
0.001472806408
0.0193394443
2.403289183e-06
0.00185064298
-0.00248207808
-0.02618217328
-0.03077106796
0.00465885676
-9.737480215e-06
0.002199039668
0.02189212785
-0.002179143215
0.02735651278
-0.0272688039
0.002091434335
-0.004397768568
0.003254898866
0.02400843207
0.001342239274
0.02496381672
-0.001645065858
-0.02162554434
0.02163844988
-0.004410674106
0.02377513452
-0.02596514259
1.086485558e-05
0.02321843525
-9.801104901e-05
-0.001438316066
-0.02230995141
-0.02250864846
0.02241346196
-2.10033283e-06
-0.0222283989
-1.909530083e-05
0.0007492266971
0.02301901594
6.891878844e-06
0.0001035815308
-0.02261175271
-4.772822092e-07
0.0009617187879
-0.0008394579258
-0.02594651722
-0.02635310388
0.0003554528641
0.001113476423
0.02699226305
0.02172251973
-0.02184856926
0.000136187357
-1.013782828e-05
9.748737982e-05
0.0220834973
1.169074858e-05
0.001004737267
0.02535953687
-0.0007280895852
0.001992517855
-0.002252013134
-0.02400452706
-0.02087623737
0.001427270564
8.125479555e-05
0.0001742102336
0.02157526554
-2.695603899e-05
-0.04831751493
-0.0008451322379
0.001576218542
0.04840416963
-0.04868092492
0.00128569284
0.04877694157
-0.001381709486
0.04906622897
0.001412199418
-0.001506572709
-0.04897185568
0.001085714091
-0.04827348946
0.04837878642
-0.001191011051
0.001234964356
-0.001337296145
-0.04857859313
-0.0008012315876
-0.04823800953
0.001530321762
0.001451677994
0.04915797949
-0.001543428518
0.001565493566
-0.001640571185
-0.04932030844
-0.000921837254
-0.04923430443
0.001764811018
0.02498766768
0.0008248100197
-0.0008535120499
-0.02495896566
0.02662608758
-0.02686416112
0.0006225866153
-0.02677978651
0.001653438656
0.02713240463
-0.02579533845
0.002221539227
-0.0231546224
0.00161854284
0.02351377223
-0.02416260837
0.0009430920345
0.02427682782
-0.001057311482
5.434929819e-05
0.01937156972
1.560650178e-05
0.02228703784
0.003670454851
0.0002517633172
-0.01276549416
0.0005061895817
-0.0001958498866
-0.01962161549
0.0002551411693
7.566468944e-05
-0.02211431283
0.02203176853
-0.02234010633
0.0003840024964
0.02172564642
0.0003901600665
0.004148126009
-0.02821451441
2.941288526e-05
0.02503726657
-0.02382410103
0.002934960467
0.02517025808
0.001811431196
0.02143123187
0.0004583046126
-0.0003590144518
0.02115797457
0.0006322717536
0.0209950816
-0.01858772282
-0.0005093858487
0.01885224211
0.0002448665557
7.161465506e-06
-0.0002864880484
-0.01945875102
-0.02000851045
0.0007583884156
-0.003280788716
0.01919931709
0.001946544131
-0.01637230469
0.02309185365
-0.01000033768
-0.001978577721
-0.01637492092
-0.01621709152
0.0003771144503
0.0006148986466
-0.01725670687
0.0004247167115
-0.01915702073
0.001248112105
0.01420225252
-0.01416925584
-3.299668666e-05
0.02929423815
-0.0206433618
0.005551376175
0.02497399127
0.004311693823
8.553056709e-06
0.02212518815
-0.02229088257
0.0002149248842
-6.51015975e-05
0.02192726034
0.0002630294108
0.02039067875
2.914135535e-06
0.02171728869
-0.02176910375
8.048544806e-05
-2.867038892e-05
0.02168369747
7.183506608e-05
-3.824384198e-05
0.02292557319
0.002043444687
4.973389088e-06
0.02223799446
0.0006870905134
4.882187653e-07
-1.645371017e-05
-0.02096556683
8.549638676e-05
0.02366441152
-0.02384081819
0.0001599529619
0.02351653079
0.0001810619743
0.02486875889
0.0008932819846
-0.0001358498749
0.02457506139
0.000429547377
0.02118100581
8.048366854e-05
5.136330963e-05
-0.02059900674
-1.494344227e-05
0.02244272843
-0.02258746508
0.0001960999607
0.0002011251563
0.02336757692
0.0001886841287
-4.432577788e-05
0.02322133833
0.0001905643609
0.0207933722
-6.777133068e-06
0.02562954352
-0.02588385062
0.0005202256375
0.000557552834
0.02638251143
0.0009308956916
0.02490513451
-0.0008483625181
0.0008981042784
-0.0008617715145
-0.02465617826
-0.02486991199
0.0005449148526
0.0005222765161
0.02537440718
0.02361371375
-0.02380181012
0.0006620454389
-0.02436010523
0.0006291941041
0.02417574422
-0.02407861347
0.0007829235389
0.02407242612
-0.0007767361917
0.02123483131
-0.02129744212
2.745496422e-05
3.515584203e-05
0.02116649008
3.037358446e-05
3.796764676e-05
0.02159500449
1.055678857e-05
7.813619209e-05
0.02153421217
1.149767469e-05
4.929464306e-05
-0.01459657011
0.01454527761
5.129250176e-05
0.02109313462
4.066948999e-05
3.268597384e-05
6.739113494e-05
0.02099797286
2.777062857e-05
0.000901260211
-0.00095427249
-0.02410959609
-0.02313634532
0.001137183488
0.0006850569395
0.02342881399
0.0003549069807
-0.0001239110101
-0.02469046841
0.02471175408
0.0006371677176
-0.02499401482
0.0244133291
0.0006354455207
0.0002841662112
-0.02308909559
1.930881437e-06
0.02673691429
-0.02713553906
0.0006827909765
0.02640936031
0.0004773338899
0.02754996217
-0.02751471785
0.002184935005
-0.0007707974567
0.00118522057
1.414730948e-05
0.02298207375
-0.02379677051
0.0007991882374
1.550852259e-05
0.0003195506418
-6.679562393e-06
7.932366774e-05
-0.02241221169
2.931394323e-05
0.0255145609
-0.02580506271
0.0003698254823
0.02522476079
0.0003763572547
0.02610006864
0.0003934093208
-7.614796597e-05
0.0003711538917
3.560255157e-05
0.02607233147
-0.03076864086
0.004677686876
1.862251553e-05
0.002254387985
2.117297751e-05
0.02184064693
-0.02189942766
0.004454740988
-0.01486666693
0.005938672993
4.945455832e-05
0.0002737114596
0.0001120331747
0.01358219674
9.958169316e-05
0.01306200463
-0.002183752643
-0.0125892687
0.01344684039
-0.001170311932
0.01624837034
-0.01898595661
0.001348137952
0.0143583736
0.0007731055308
0.001116891211
0.01363160844
-6.922286667e-05
-0.006611140548
0.001256792375
0.001610367623
0.0002619565236
-0.0001238151603
0.0001501979447
0.02196944618
-0.02094956715
0.002823460697
-0.005268549183
0.003413894337
0.0007713345955
0.02092495799
0.001004351175
0.001747345778
-0.01978102688
0.01811251389
0.000783268888
0.002701370055
0.000609456718
0.001735553907
0.01136187998
0.001017915897
0.001361542308
0.0001252242458
0.0004316901431
-0.01757883115
0.0004473485266
0.0006176687815
0.02054981211
-0.02114496086
0.001950923006
-0.004257429744
0.004163880055
-2.430599942e-05
0.0001128859437
5.990437973e-05
0.02162538876
0.0004147575204
0.0008592965818
0.02183109168
-0.02190180936
7.889902637e-05
-8.18134731e-06
7.644746262e-05
-1.44595322e-05
0.02200729268
0.0002250359105
5.665865284e-06
0.00010627078
-7.874529488e-07
0.0240122053
-0.02417338923
0.000175166859
1.050155886e-05
0.000160885553
6.144806054e-05
2.675568976e-05
6.390484499e-05
0.02435222995
0.0002495871295
0.0001931775661
0.02273814898
-0.0229076348
0.000167173838
-3.236726116e-05
0.0001830511666
5.360760549e-06
3.637623598e-05
-3.139298067e-06
0.02307344354
0.0001842710262
0.0001693625292
-7.580032199e-05
0.02565795693
0.0002860770789
-0.02231722718
0.02224485589
-3.429037645e-06
-0.02240230384
-8.785735228e-06
-0.02216010335
0.02208278479
2.776989434e-05
5.194849812e-05
3.280404297e-05
0.0002697324184
-0.0007082298357
0.02666297948
0.001050507072
-0.0235029434
0.02276508906
2.962450591e-05
-0.02565347595
4.42135076e-05
-0.02252436695
-7.990910732e-06
0.0002555897645
-1.486766e-05
0.0005757621994
-9.180559548e-05
0.02394978352
0.0003031535754
-0.02169441719
0.02161896306
-1.635146033e-05
-0.0217736316
-1.159111587e-05
-0.02153854677
0.0214394607
2.54063042e-05
8.403395521e-05
-3.617672964e-06
0.0003029141654
-5.524453289e-05
0.02478787283
0.0002739701393
-0.02200594846
0.02192056456
3.013935806e-05
2.690086532e-05
-0.02185038808
-1.079642991e-05
7.980682765e-05
-9.63034543e-06
0.0002879402761
0.02135664763
1.934533873e-05
-0.02141804077
4.20477979e-05
2.56586523e-05
3.354686167e-05
-0.0002188943724
0.02389861721
0.0004528220232
-0.02389422991
0.02370099419
-0.02408717326
-0.02350372861
0.02330061699
0.0002247205458
0.000461499605
0.02148052988
1.78030767e-05
3.587920902e-05
1.477774682e-05
4.771136654e-05
0.01894691201
0.001384769549
-0.0203643541
3.26725403e-05
0.004317532035
3.280987453e-05
-0.004285411152
0.0236567643
0.003144698403
-0.02131252724
0.02134464812
-0.02197049299
-0.03014859413
3.374596741e-05
0.005741331604
0.003748486382
-0.0003159481099
0.02292415718
0.0005687325977
-0.02308556191
0.02283700494
-0.02249502342
-0.0004167029645
0.0004854691691
-0.0001434876523
0.0007443902711
0.02081639456
3.809064765e-05
3.533749159e-05
0.0005890021891
-0.02360777508
-0.0001880274628
0.02346606002
-0.02378708218
0.0009100243471
0.02319172932
0.001338128326
0.02410445791
0.0006561987184
-0.0004088861143
0.0007262618461
-9.949876905e-05
0.02151962159
2.928074166e-05
2.533950463e-05
0.02194999992
0.0001263502544
-3.668111924e-05
-5.165834822e-05
0.01486808686
0.004468895516
2.461925829e-06
0.01489765167
-2.95648082e-05
0.005991836005
-0.0218652523
0.02629338903
-0.02430919793
0.004007644904
0.003437527936
0.02320262717
0.002188141815
-0.004495771061
0.003389200309
-0.01476605369
0.03054085738
0.005863646186
-0.01477520326
9.149577692e-06
-0.01920561711
1.973973565e-05
0.004567429516
8.28528053e-06
-0.000182307531
0.02285702924
0.0005437135379
-0.02132498817
0.02112938143
1.329920779e-05
1.646148571e-05
-0.02065931114
1.537796868e-05
0.0004597930176
1.027727157e-05
0.001006870845
0.02232103412
9.989668792e-05
-7.468848728e-06
0.000107489635
-1.485441621e-05
0.02275076034
0.0002657463728
2.509229305e-06
0.0001377213543
1.286274601e-06
0.0001145265749
-0.02196916342
6.067585089e-06
0.02434590924
-0.0246433811
0.0004119984261
0.02403999661
0.0004420999901
0.02493534519
0.0003869029809
-0.0001049594524
0.000396923545
9.374427068e-06
0.0005259138044
-0.02135180893
-5.03422414e-05
0.0226763432
-0.02328108833
0.00113065893
0.002204186107
0.02370320711
0.0005109997352
-0.0002615751077
0.0006836938904
-3.811850562e-05
-0.002210079374
0.002441804235
-0.2283953634
0.003250052751
0.2279632067
-0.2282548811
-0.002958378376
-0.2289070038
-0.001869575086
0.2287165053
0.003549793895
-0.228178985
0.004550693157
0.2277394547
-0.2280955905
-0.004194557372
-0.2288542224
-0.002600798835
0.22864462
0.004878967553
-0.2280339412
0.003974219079
0.2289112718
-0.2285120976
-0.004385280838
-0.2288533332
-0.003409860914
0.2286477662
0.003624977285
-0.2287958225
0.003127673043
0.2293441481
-0.2292724383
-0.003215734312
-0.228921354
-0.00415320949
0.2287827371
0.003082872923
-0.2292041575
-0.003036469314
0.003383544039
-0.227291794
0.0046184813
0.2264260674
-0.2268645788
-0.004179969981
-0.003295825048
0.2276392215
0.004865925501
-0.2267235237
0.005178637927
0.2275265443
-0.2277983964
-0.004948810856
-0.004708101184
0.2274739521
0.005518653202
-0.2281167021
0.007139804615
0.2279171378
-0.2286080328
-0.006510623742
-0.004008795623
0.229086083
0.00781623294
-0.2285960912
0.009973329078
0.2276393967
-0.228395048
-0.009259297976
-0.003687118139
0.2292326476
0.01063813116
-0.2283013454
-0.01052215098
0.01188867688
-0.2281889536
0.00695729206
0.2269970843
-0.2256211464
-0.008378368188
-0.004416339947
0.2260692883
0.007214470776
-0.2252061756
0.01050753122
0.2233415821
-0.224812541
-0.009138666013
-0.005563516525
0.2269351984
0.01200468676
-0.2246519247
0.01692694322
0.2223224341
-0.2241111991
-0.01523523729
-0.008344167184
0.2269358279
0.0186334865