/*--------------------------------*- C++ -*----------------------------------*\
| =========                 |                                                 |
| \\      /  F ield         | OpenFOAM: The Open Source CFD Toolbox           |
|  \\    /   O peration     | Version:  v2012                                 |
|   \\  /    A nd           | Website:  www.openfoam.com                      |
|    \\/     M anipulation  |                                                 |
\*---------------------------------------------------------------------------*/
FoamFile
{
    version     2.0;
    format      ascii;
    class       pointVectorField;
    location    "2";
    object      pointDisplacement;
}
// * * * * * * * * * * * * * * * * * * * * * * * * * * * * * * * * * * * * * //

dimensions      [0 1 0 0 0 0 0];


internalField   nonuniform List<vector> 
6506
(
(0 0 0)
(0 0 0)
(0 0 0)
(0 0 0)
(0 0 0)
(0 0 0)
(0 0 0)
(0 0 0)
(0 0 0)
(0 0 0)
(0 0 0)
(0 0 0)
(0 0 0)
(0 0 0)
(0 0 0)
(0 0 0)
(0 0 0)
(0 0 0)
(0 0 0)
(0 0 0)
(0 0 0)
(0 0 0)
(0 0 0)
(0 0 0)
(0 0 0)
(0 0 0)
(0 0 0)
(0 0 0)
(0 0 0)
(0 0 0)
(0 0 0)
(0 0 0)
(0 0 0)
(0 0 0)
(0 0 0)
(0 0 0)
(0 0 0)
(0 0 0)
(0 0 0)
(0 0 0)
(0 0 0)
(0 0 0)
(0 0 0)
(0 0 0)
(0 0 0)
(0 0 0)
(0 0 0)
(0 0 0)
(0 0 0)
(0 0 0)
(0 0 0)
(0 0 0)
(0 0 0)
(0 0 0)
(0 0 0)
(0 0 0)
(0 0 0)
(0 0 0)
(0 0 0)
(0 0 0)
(0 0 0)
(0 0 0)
(0 0 0)
(0 0 0)
(0 0 0)
(0 0 0)
(0 0 0)
(0 0 0)
(0 0 0)
(0 0 0)
(0 0 0)
(0 0 0)
(0 0 0)
(0 0 0)
(0 0 0)
(0 0 0)
(0 0 0)
(0 0 0)
(-7.854814958e-07 2.480684848e-06 2.775557562e-17)
(0 0 0)
(0 0 0)
(0 0 0)
(0 0 0)
(0 0 0)
(0 0 0)
(0 0 0)
(0 0 0)
(0 0 0)
(0 0 0)
(0 0 0)
(0 0 0)
(0 0 0)
(0 0 0)
(0 0 0)
(0 0 0)
(0 0 0)
(0 0 0)
(0 0 0)
(0 0 0)
(0 0 0)
(0 0 0)
(0 0 0)
(0 0 0)
(0 0 0)
(0 0 0)
(0 0 0)
(0 0 0)
(-4.893383754e-05 2.507682779e-05 4.996003611e-16)
(-0.0002815529129 0.0001573887597 3.080868893e-15)
(-3.682593839e-06 2.364620748e-06 4.163336342e-17)
(-0.0005342116248 0.0004706688431 8.021361353e-15)
(-0.001324742227 0.001019678941 1.994238108e-14)
(-0.001570040855 0.001381960593 2.700617507e-14)
(-0.0007336159242 0.0007382121464 1.257327575e-14)
(-0.0008889951995 0.001556183233 2.649269693e-14)
(-0.001551219836 0.002388114685 4.66710004e-14)
(-0.001287818461 0.002637939781 5.156985949e-14)
(-0.000763064045 0.001770814882 3.014255512e-14)
(0 0 0)
(0 0 0)
(0 0 0)
(0 0 0)
(0 0 0)
(0 0 0)
(0 0 0)
(0 0 0)
(0 0 0)
(0 0 0)
(0 0 0)
(0 0 0)
(0 0 0)
(0 0 0)
(0 0 0)
(0 0 0)
(0 0 0)
(0 0 0)
(0 0 0)
(0 0 0)
(0 0 0)
(0 0 0)
(-0.0001366631066 2.105416924e-05 1.026956298e-15)
(-0.0007463313777 0.0001230471448 6.009082121e-15)
(-0.0001768355268 3.997065235e-05 1.429412144e-15)
(-0.002518355764 0.0007184484383 2.539635169e-14)
(-0.00402347781 0.0008447595486 4.066191828e-14)
(-0.005124948577 0.001182421756 5.660749647e-14)
(-0.003457904324 0.001081214934 3.809452753e-14)
(-0.005342584821 0.002329113613 8.149037001e-14)
(-0.007049088877 0.00227956459 1.080385781e-13)
(-0.00706312135 0.002624275482 1.242894676e-13)
(-0.005471841593 0.002738125266 9.570122472e-14)
(-0.004203378257 0.003735711286 1.309785613e-13)
(-0.005189922374 0.003432700365 1.636191183e-13)
(-0.004038902724 0.003603509106 1.72528658e-13)
(-0.003309268228 0.003957915429 1.391248228e-13)
(0 0 0)
(0 0 0)
(0 0 0)
(0 0 0)
(0 0 0)
(0 0 0)
(0 0 0)
(0 0 0)
(0 0 0)
(0 0 0)
(0 0 0)
(0 0 0)
(0 0 0)
(0 0 0)
(0 0 0)
(0 0 0)
(0 0 0)
(0 0 0)
(0 0 0)
(-5.879974222e-05 -3.991170021e-06 3.747002708e-16)
(0 0 0)
(-0.002500560638 -4.4983956e-05 1.892930257e-14)
(-0.00371519908 -0.0002808064192 2.810252031e-14)
(-0.005808094543 -0.0004573961906 4.696243394e-14)
(-0.004266817347 -7.578183085e-05 3.450018049e-14)
(-0.009706912626 -0.0001633640239 9.872658246e-14)
(-0.01176878857 -0.001093325466 1.199040867e-13)
(-0.01312787927 -0.001314035339 1.464245392e-13)
(-0.01105648284 -0.000186286386 1.230682223e-13)
(-0.01245542283 -0.0002569618087 1.933175842e-13)
(-0.01417722748 -0.001945068976 2.206707039e-13)
(-0.01347827433 -0.002137829247 2.414457523e-13)
(-0.0119608796 -0.0002890351468 2.135930322e-13)
(-0.008011289157 -0.0004298025283 2.59320343e-13)
(-0.008822722358 -0.00264378152 2.868677518e-13)
(-0.006654064478 -0.002782581526 2.961519918e-13)
(-0.006077981692 -0.0004888600915 2.690070389e-13)
(0 0 0)
(0 0 0)
(0 0 0)
(0 0 0)
(0 0 0)
(0 0 0)
(0 0 0)
(0 0 0)
(0 0 0)
(0 0 0)
(0 0 0)
(0 0 0)
(0 0 0)
(0 0 0)
(0 0 0)
(0 0 0)
(0 0 0)
(-0.0002717593506 -5.537176956e-05 1.637578961e-15)
(-0.0006179909047 -0.0001544647753 3.73312492e-15)
(-0.002194431009 -0.0005751621506 1.394717675e-14)
(-0.001475453689 -0.0003152973076 9.381384558e-15)
(-0.00865538664 -0.002156051484 6.539213615e-14)
(-0.01023722234 -0.003133886274 7.738254482e-14)
(-0.01318247695 -0.00428082933 1.064009991e-13)
(-0.0114315826 -0.003017195629 9.224565556e-14)
(-0.01796509308 -0.005824161476 1.824096429e-13)
(-0.01983560205 -0.007966328343 2.012695566e-13)
(-0.02086458582 -0.009129599132 2.315786451e-13)
(-0.01907519928 -0.006723706937 2.120387199e-13)
(-0.01868904189 -0.009126575861 2.906563878e-13)
(-0.019850484 -0.01200590341 3.074623889e-13)
(-0.01825576804 -0.01272114567 3.254480019e-13)
(-0.0172465517 -0.009714210895 3.085864897e-13)
(-0.01062607059 -0.01101830166 3.447520047e-13)
(-0.01100633625 -0.01402259285 3.542860449e-13)
(-0.008146744276 -0.0142352761 3.576583474e-13)
(-0.007907942984 -0.01127420044 3.503169976e-13)
(0 0 0)
(0 0 0)
(0 0 0)
(0 0 0)
(0 0 0)
(0 0 0)
(0 0 0)
(0 0 0)
(0 0 0)
(0 0 0)
(0 0 0)
(0 0 0)
(0 0 0)
(0 0 0)
(-2.586730768e-05 -1.135474299e-05 1.387778781e-16)
(-7.058488823e-07 -2.799765415e-07 0)
(0 0 0)
(-0.001939899403 -0.0007535437445 1.171285291e-14)
(-0.002448398974 -0.001063932026 1.477984402e-14)
(-0.005077981813 -0.002314752083 3.226585665e-14)
(-0.004332495146 -0.001765309427 2.753353101e-14)
(-0.01404398407 -0.006708795317 1.061095656e-13)
(-0.01528673534 -0.008175950699 1.154631946e-13)
(-0.01855203828 -0.01054646294 1.495886748e-13)
(-0.01757504415 -0.008917226966 1.418032358e-13)
(-0.02420000935 -0.01525467042 2.450539771e-13)
(-0.02520728905 -0.01780681808 2.549072065e-13)
(-0.02583325284 -0.01990971899 2.853134395e-13)
(-0.02491993508 -0.01714101167 2.757100104e-13)
(-0.02234361162 -0.02126525977 3.414213356e-13)
(-0.02283329283 -0.024324249 3.475830734e-13)
(-0.02049484213 -0.02501192984 3.566036355e-13)
(-0.02018250865 -0.02202057019 3.530786774e-13)
(-0.01160182063 -0.02253232874 0)
(-0.01181070867 -0.0253829242 0)
(-0.0103271767 -0.02540500355 0)
(-0.008761885148 -0.02536515954 0)
(-0.008645353918 -0.02395447644 0)
(-0.008587540161 -0.02257620536 0)
(0 0 0)
(0 0 0)
(0 0 0)
(0 0 0)
(0 0 0)
(0 0 0)
(0 0 0)
(0 0 0)
(0 0 0)
(0 0 0)
(0 0 0)
(0 0 0)
(0 0 0)
(0 0 0)
(-0.0002330768041 -0.0001417740936 1.276756478e-15)
(-0.000132824072 -7.516722948e-05 7.355227538e-16)
(-0.000108661673 -5.690122863e-05 5.967448757e-16)
(-0.003518001798 -0.002017803598 2.123301535e-14)
(-0.003648610885 -0.002261677371 2.201017146e-14)
(-0.006754318856 -0.00439355845 4.286848654e-14)
(-0.006575590034 -0.003957407746 4.174438573e-14)
(-0.01766702004 -0.01249119434 1.331851296e-13)
(-0.01795282652 -0.01372313014 1.352390422e-13)
(-0.0213642596 -0.01736597743 1.716682352e-13)
(-0.02105760308 -0.01583097416 1.693645224e-13)
(-0.02727133234 -0.02548321849 2.742805982e-13)
(-0.0275692579 -0.0278443343 2.767924778e-13)
(-0.02791121549 -0.03072697424 3.05561132e-13)
(-0.02763781287 -0.02815759626 3.032157858e-13)
(-0.02364352694 -0.03313870884 3.557293349e-13)
(-0.02379066814 -0.03598239904 3.566036355e-13)
(-0.02105738675 -0.03636659434 0)
(-0.02096381516 -0.0335759014 3.595734821e-13)
(-0.01218080516 -0.03382541305 0)
(-0.01223444634 -0.03523975361 0)
(-0.01077141631 -0.03527824631 0)
(-0.01071797502 -0.03386612997 0)
(0 0 0)
(0 0 0)
(0 0 0)
(0 0 0)
(0 0 0)
(0 0 0)
(0 0 0)
(0 0 0)
(0 0 0)
(0 0 0)
(0 0 0)
(0 0 0)
(0 0 0)
(0 0 0)
(-0.0003826122972 -0.0002973824415 2.095545959e-15)
(-0.0003455744538 -0.0002540136828 1.90125693e-15)
(-0.0003031663075 -0.0002100392863 1.665334537e-15)
(-0.004335583892 -0.003290168344 2.614575223e-14)
(-0.004483337259 -0.003609896387 2.703393065e-14)
(-0.007818129 -0.006607066994 4.959921363e-14)
(-0.007632911857 -0.006079494882 4.841960166e-14)
(-0.01908688071 -0.01787134391 1.435240815e-13)
(-0.01932235923 -0.01919488313 1.45189416e-13)
(-0.02271602176 -0.0239912804 1.81882287e-13)
(-0.02248216512 -0.02238190793 1.801753191e-13)
(-0.02843375183 -0.03511796471 2.839256608e-13)
(-0.02862561554 -0.0374833263 2.853134395e-13)
(-0.02882039239 -0.04108141826 3.12749826e-13)
(-0.02865030163 -0.03853303564 3.115840919e-13)
(-0.02414130883 -0.04441208136 3.579914143e-13)
(-0.02424050954 -0.04719659489 3.581995811e-13)
(-0.02140643754 -0.04746773806 0)
(-0.02132112902 -0.0446993035 0)
(-0.01255298048 -0.04497863513 0)
(-0.01259649975 -0.04636378805 0)
(-0.0111373808 -0.04641006802 0)
(-0.01109366904 -0.04502492129 0)
(0 0 0)
(0 0 0)
(0 0 0)
(0 0 0)
(0 0 0)
(0 0 0)
(0 0 0)
(0 0 0)
(0 0 0)
(0 0 0)
(0 0 0)
(0 0 0)
(0 0 0)
(0 0 0)
(-0.0005644166547 -0.0005338702061 3.094746681e-15)
(-0.0005088559169 -0.0004598590198 2.789435349e-15)
(-0.0004593880066 -0.0003957971902 2.525757381e-15)
(-0.004851403711 -0.0045790697 2.92543767e-14)
(-0.005000504212 -0.004950625399 3.014255512e-14)
(-0.008460539938 -0.008790887551 5.362377209e-14)
(-0.008276578394 -0.008199053916 5.24719157e-14)
(-0.01990634725 -0.02316978569 1.492694857e-13)
(-0.02013622905 -0.02457695818 1.50879309e-13)
(-0.02352775048 -0.03051385223 1.876693245e-13)
(-0.02329978914 -0.02882126634 1.860317456e-13)
(-0.02912249784 -0.04457145485 2.886718642e-13)
(-0.02930901065 -0.04699738249 2.899763762e-13)
(-0.0294341207 -0.0513096328 3.16607851e-13)
(-0.02926908864 -0.04871428525 3.155253836e-13)
(-0.02452303474 -0.05552582128 3.586714259e-13)
(-0.02461712404 -0.05830558125 3.588240816e-13)
(-0.021742689 -0.05851832162 0)
(-0.02165909109 -0.05575715409 0)
(-0.0128966447 -0.05603604569 0)
(-0.01293915679 -0.05741583582 0)
(-0.01148201654 -0.05746173111 0)
(-0.01146063011 -0.05677177601 0)
(-0.01143926223 -0.05608239836 0)
(0 0 0)
(0 0 0)
(0 0 0)
(0 0 0)
(0 0 0)
(0 0 0)
(0 0 0)
(0 0 0)
(0 0 0)
(0 0 0)
(0 0 0)
(0 0 0)
(0 0 0)
(0 0 0)
(-0.000808321383 -0.0009009387165 4.440892099e-15)
(-0.0007422471709 -0.000795998937 4.080069615e-15)
(-0.0006783420361 -0.0006988582089 3.719247132e-15)
(-0.00546691067 -0.006169069891 3.293199047e-14)
(-0.00563130656 -0.006614116683 3.393119119e-14)
(-0.009230847137 -0.01137624655 5.845324225e-14)
(-0.009031333336 -0.01069430924 5.720424134e-14)
(-0.02084131327 -0.02896395785 1.558059237e-13)
(-0.02108488788 -0.03048678521 1.575128916e-13)
(-0.02446547458 -0.03756375649 1.94372296e-13)
(-0.02422525134 -0.03575639339 1.926653281e-13)
(-0.0298751504 -0.05439965399 2.93917668e-13)
(-0.03006791024 -0.05691090526 2.952360578e-13)
(-0.03010143182 -0.06185766339 3.208960875e-13)
(-0.02993272461 -0.05919487694 3.198274978e-13)
(-0.02489310717 -0.06664816491 3.592126596e-13)
(-0.02498284005 -0.06942758072 3.593236819e-13)
(-0.02207433524 -0.06956950266 0)
(-0.02199190489 -0.06680669194 0)
(-0.01323483572 -0.06708502549 0)
(-0.01327655491 -0.06846612564 0)
(-0.01182191903 -0.06851200473 0)
(-0.01180089903 -0.06782145981 0)
(-0.01177981899 -0.06713104527 0)
(0 0 0)
(0 0 0)
(0 0 0)
(0 0 0)
(0 0 0)
(0 0 0)
(0 0 0)
(0 0 0)
(0 0 0)
(0 0 0)
(0 0 0)
(0 0 0)
(0 0 0)
(0 0 0)
(-0.001021674777 -0.001310987928 5.606626274e-15)
(-0.001056573087 -0.001311176049 5.800915304e-15)
(-0.0009644802281 -0.001156268862 5.287437155e-15)
(-0.00616894147 -0.008097087276 3.715083796e-14)
(-0.006379229602 -0.008666068811 3.841371665e-14)
(-0.01012823813 -0.01443237244 6.407374631e-14)
(-0.009877573017 -0.01360064312 6.250555629e-14)
(-0.02186270778 -0.03527700902 1.628974733e-13)
(-0.02215845784 -0.03698576454 1.649652637e-13)
(-0.02551803639 -0.04519450676 2.018385459e-13)
(-0.02522946185 -0.04320409702 1.997846333e-13)
(-0.03067033941 -0.06459950138 2.993855164e-13)
(-0.03089087977 -0.06724076198 3.009259508e-13)
(-0.03081184175 -0.0727283139 3.254757575e-13)
(-0.03062377652 -0.06996521983 3.242406343e-13)
(-0.02524492928 -0.07775236472 3.595318487e-13)
(-0.02533004752 -0.08052204844 3.595596043e-13)
(-0.02240183421 -0.08061754126 0)
(-0.02232000192 -0.07785535362 0)
(-0.0135643755 -0.07813261319 0)
(-0.01360487151 -0.07951362416 0)
(-0.01215298427 -0.07955909385 0)
(-0.01213259971 -0.07886833584 0)
(-0.01211216746 -0.07817809318 0)
(-0.01104956642 -0.04363760335 0)
(-0.01250907241 -0.04359137518 0)
(-0.01141789435 -0.05539302071 0)
(-0.01139650174 -0.05470287312 0)
(-0.01285413055 -0.0546561914 0)
(-0.01175874513 -0.06644082322 0)
(-0.01173766097 -0.06575028036 0)
(-0.01319299232 -0.06570405779 0)
(-0.01209173934 -0.07748797884 0)
(-0.01207124293 -0.07679773825 0)
(-0.01352376354 -0.07675199131 0)
(-0.01066056864 -0.03245254426 0)
(-0.01212376609 -0.03241126511 0)
(-0.001093407097 -0.0227618923 0)
(-0.001141680222 -0.02413327626 0)
(-0.02157529245 -0.05299573611 0)
(-0.0244300251 -0.05275069323 3.585187702e-13)
(-0.01431273209 -0.05460979959 0)
(-0.01435505582 -0.05598972422 0)
(-0.01401286938 -0.04493233043 0)
(-0.0140562562 -0.04631735915 0)
(-0.02190914755 -0.06404369905 0)
(-0.0248024892 -0.06386816022 3.591016373e-13)
(-0.0146497373 -0.06565785405 0)
(-0.01469139027 -0.0670388921 0)
(-0.01439731332 -0.05736958675 0)
(-0.01306649587 -0.0615590662 0)
(-0.01161025801 -0.06160506097 0)
(-0.01158884273 -0.0609142076 0)
(-0.01156749986 -0.06022360882 0)
(-0.01302412063 -0.06017753753 0)
(-0.00724373669 -0.06174291064 0)
(-0.007233958367 -0.061397422 0)
(-0.007225311349 -0.06105196126 0)
(-0.007952739395 -0.06102905029 0)
(-0.007973577214 -0.0617199222 0)
(-0.007071910463 -0.05622078853 0)
(-0.007799963171 -0.05619772904 0)
(-0.007821900268 -0.0568868315 0)
(-0.00709435261 -0.05690961785 0)
(-0.00708296289 -0.05656495169 0)
(-0.02223824616 -0.07509354889 0)
(-0.02515679041 -0.07497520538 3.59448582e-13)
(-0.01497878439 -0.07670609985 0)
(-0.01501920593 -0.07808679207 0)
(-0.01473285282 -0.06842000048 0)
(-0.01340096523 -0.07261015658 0)
(-0.01194736829 -0.07265638767 0)
(-0.01192660288 -0.07196577035 0)
(-0.01190576712 -0.0712749626 0)
(-0.0133596931 -0.07122897785 0)
(-0.007595595917 -0.07279350679 0)
(-0.007582859507 -0.07244830583 0)
(-0.00794880762 -0.07243661803 0)
(-0.007960474592 -0.07278191756 0)
(-0.007428023478 -0.06726784399 0)
(-0.008150891455 -0.06724533638 0)
(-0.008172677276 -0.06793572825 0)
(-0.007450388814 -0.06795828148 0)
(-0.007439748429 -0.06761294898 0)
(-0.01505957567 -0.07946787133 0)
(-0.01372538267 -0.08365623885 0)
(-0.01299937489 -0.08367897575 0)
(-0.01297930495 -0.08298801495 0)
(-0.01370537895 -0.08296534015 0)
(-0.007896509114 -0.08384008697 0)
(-0.007893040647 -0.08349388187 0)
(-0.008274641024 -0.08348079223 0)
(-0.008281442012 -0.08382656916 0)
(-0.007746739423 -0.07831558661 0)
(-0.00812274879 -0.07830299765 0)
(-0.008135550067 -0.07864761848 0)
(-0.007762000387 -0.07865999999 0)
(-0.006537427819 -0.039605455 0)
(-0.0065604131 -0.04030119707 0)
(-0.005830305862 -0.04032368026 0)
(-0.005818802375 -0.03997567148 0)
(-0.005807749141 -0.03962848321 0)
(-0.006717928579 -0.04516409467 0)
(-0.005985044027 -0.04518769469 0)
(-0.005974224928 -0.0448415972 0)
(-0.005965299773 -0.04449447546 0)
(-0.006696377026 -0.04447099771 0)
(-0.006322527406 -0.03396323949 0)
(-0.006353910212 -0.03467507328 0)
(-0.005618703361 -0.03468335889 0)
(-0.005587353837 -0.03397296145 0)
(-0.005784086385 -0.03893024516 0)
(-0.006513808035 -0.03890775509 0)
(-0.007060541347 -0.05587676398 0)
(-0.007049598699 -0.05553201924 0)
(-0.007778026075 -0.05550862658 0)
(-0.006898449756 -0.05069737011 0)
(-0.007625473818 -0.05067427943 0)
(-0.007647450063 -0.05136460096 0)
(-0.006920616426 -0.0513876213 0)
(-0.01272579608 -0.05051196535 0)
(-0.01276868461 -0.05189347753 0)
(-0.0113105322 -0.05193985493 0)
(-0.01126745324 -0.05055841308 0)
(-0.00619577639 -0.0514103207 0)
(-0.006184806017 -0.05106551262 0)
(-0.006172822123 -0.0507205444 0)
(-0.006706020094 -0.05623247447 0)
(-0.006694452078 -0.05588845632 0)
(-0.006740092901 -0.04585627277 0)
(-0.006007313538 -0.04587954827 0)
(-0.005995033614 -0.04553356192 0)
(-0.006161379718 -0.05037523766 0)
(-0.006149377515 -0.0500294993 0)
(-0.006875939612 -0.05000642345 0)
(-0.007416497193 -0.06692292531 0)
(-0.00740465422 -0.06657814525 0)
(-0.008128733027 -0.06655534184 0)
(-0.007995011032 -0.06241135302 0)
(-0.007264280487 -0.06243462696 0)
(-0.00725278104 -0.06208874399 0)
(-0.01310882343 -0.06294111022 0)
(-0.01165285251 -0.06298741756 0)
(-0.01163155938 -0.06229636759 0)
(-0.006881669738 -0.06210085452 0)
(-0.006873264944 -0.0617549364 0)
(-0.007068680129 -0.06727899855 0)
(-0.007056103653 -0.06693417782 0)
(-0.006717596587 -0.05657655658 0)
(-0.006866241451 -0.06140923083 0)
(-0.007732216319 -0.07797114953 0)
(-0.008110270383 -0.07795843068 0)
(-0.007972009119 -0.0731270929 0)
(-0.007608323851 -0.0731386438 0)
(-0.0134420119 -0.0739903149 0)
(-0.01198872135 -0.07403608656 0)
(-0.01196811929 -0.07334655587 0)
(-0.007242245354 -0.07315027156 0)
(-0.007227342105 -0.07280539709 0)
(-0.007361128707 -0.07832899772 0)
(-0.007343057228 -0.07798486728 0)
(-0.007080944039 -0.06762408623 0)
(-0.00721243909 -0.07246032994 0)
(-0.00829215274 -0.08417209209 0)
(-0.007908126816 -0.08418545231 0)
(-0.0137453802 -0.08434694506 0)
(-0.01301937242 -0.08436968197 0)
(-0.007517153776 -0.08419948523 0)
(-0.007502674228 -0.08385440447 0)
(-0.0073803787 -0.07867302609 0)
(-0.007502568067 -0.08350789871 0)
(-0.02123487101 -0.04192730267 0)
(-0.02403495914 -0.0416166236 3.576583474e-13)
(-0.01396915791 -0.04354519262 0)
(-0.01364374777 -0.03378419861 0)
(-0.01369668309 -0.03519655921 0)
(-0.012375888 -0.03942812644 0)
(-0.01091543183 -0.03947276659 0)
(-0.01086892217 -0.03807649552 0)
(-0.01232950337 -0.03803174859 0)
(-0.007243216146 -0.03888510167 0)
(-0.007266839255 -0.03958270513 0)
(-0.007053912223 -0.03394433901 0)
(-0.007085829097 -0.03465820323 0)
(-0.01122421506 -0.04917601293 0)
(-0.01268281866 -0.04912968528 0)
(-0.007603412806 -0.04998331835 0)
(-0.007447970299 -0.04514097131 0)
(-0.007470134622 -0.04583314941 0)
(-0.007425905453 -0.04444789083 0)
(-0.007289761406 -0.04027848134 0)
(-0.01242039125 -0.04081591964 0)
(-0.01096034931 -0.04086145852 0)
(-0.003722574964 -0.04247793742 0)
(-0.003758032794 -0.04282446399 0)
(-0.003434831711 -0.04283445788 0)
(-0.003396166737 -0.04248726356 0)
(-0.003373358474 -0.03398943382 0)
(-0.003396759055 -0.03435710797 0)
(-0.003027188235 -0.03435938776 0)
(-0.003001115845 -0.03398671578 0)
(-0.003501291617 -0.03688456277 0)
(-0.003134325258 -0.03689154326 0)
(-0.003119607656 -0.03653664971 0)
(-0.003491913005 -0.03653012078 0)
(-0.005928649368 -0.02820221333 0)
(-0.006086144055 -0.02967366356 0)
(-0.005337963018 -0.0296771441 0)
(-0.004566095979 -0.02966126271 0)
(-0.004486314304 -0.02893192937 0)
(-0.004408486482 -0.02821383738 0)
(-0.005549384386 -0.03325282515 0)
(-0.006292421683 -0.03325757295 0)
(-0.007871478729 -0.08107466218 0)
(-0.008226892854 -0.08106395495 0)
(-0.008239391867 -0.08140916354 0)
(-0.007886219279 -0.08141967033 0)
(-0.01074591248 -0.08098607807 0)
(-0.01076634267 -0.08167625656 0)
(-0.01004443299 -0.08169860495 0)
(-0.01002374822 -0.08100849886 0)
(-0.01082749665 -0.08374653953 0)
(-0.01010584363 -0.08376887967 0)
(-0.01008539078 -0.0830779954 0)
(-0.01080717419 -0.08305571529 0)
(-0.003591833601 -0.03969636289 0)
(-0.003551394366 -0.04005411962 0)
(-0.003098252583 -0.04015367089 0)
(-0.003259468951 -0.03970261113 0)
(-0.003355659567 -0.04214250483 0)
(-0.003685070795 -0.04213288957 0)
(-0.006629785728 -0.04238740151 0)
(-0.005901136785 -0.04241009478 0)
(-0.005889149997 -0.0420622364 0)
(-0.00587735658 -0.04171539946 0)
(-0.006606696643 -0.04169242709 0)
(-0.004051893567 -0.0421212379 0)
(-0.004082696494 -0.04246701478 0)
(-0.003955508245 -0.0396852812 0)
(-0.003938859762 -0.04003926162 0)
(-0.003665781962 -0.04527245174 0)
(-0.003638071056 -0.04494635774 0)
(-0.004025878133 -0.04491013943 0)
(-0.004022422618 -0.04525733762 0)
(-0.004111568807 -0.04281407399 0)
(-0.006652636711 -0.04308296163 0)
(-0.005924519371 -0.04310640856 0)
(-0.005913049997 -0.04275866202 0)
(-0.006438857354 -0.03680105484 0)
(-0.00570864542 -0.03682187789 0)
(-0.005680229232 -0.03611002205 0)
(-0.006410412119 -0.03608969449 0)
(-0.003862625393 -0.03651998844 0)
(-0.003872556151 -0.03687482376 0)
(-0.00374927065 -0.03399981843 0)
(-0.003766742782 -0.03435628573 0)
(-0.003606585755 -0.0393427324 0)
(-0.003961724665 -0.03933305522 0)
(-0.003878483776 -0.03722880495 0)
(-0.003502337599 -0.03723853374 0)
(-0.006464849973 -0.0375066428 0)
(-0.005734569876 -0.03752794332 0)
(-0.003133170178 -0.03724777508 0)
(-0.003269795541 -0.03934957235 0)
(-0.006983723822 -0.05346073178 0)
(-0.006616898754 -0.05347251197 0)
(-0.006607393796 -0.05312733569 0)
(-0.006973091679 -0.05311565593 0)
(-0.004085375395 -0.05078443333 0)
(-0.004407703879 -0.05077446747 0)
(-0.00443060008 -0.05111863566 0)
(-0.004109516332 -0.05112856155 0)
(-0.006993975116 -0.05380594832 0)
(-0.006626797159 -0.05381773985 0)
(-0.006808194032 -0.04793288387 0)
(-0.006078643826 -0.04795631258 0)
(-0.006066357955 -0.04760994105 0)
(-0.006054807649 -0.04726367436 0)
(-0.006785446073 -0.04724053183 0)
(-0.003887265165 -0.04802764976 0)
(-0.003861906799 -0.04768221186 0)
(-0.004194381772 -0.04767159901 0)
(-0.00421881415 -0.04801700242 0)
(-0.004040373077 -0.0456024996 0)
(-0.003695201866 -0.04561416245 0)
(-0.00406139074 -0.05044017165 0)
(-0.004384793019 -0.05043004284 0)
(-0.00424279351 -0.04836209924 0)
(-0.003912390958 -0.04837264553 0)
(-0.006830848982 -0.0486243397 0)
(-0.006102271974 -0.04864767294 0)
(-0.006090260824 -0.048302256 0)
(-0.007333923714 -0.06450585763 0)
(-0.006966621789 -0.0645175889 0)
(-0.006953748344 -0.0641725208 0)
(-0.00732158075 -0.06416070826 0)
(-0.007345361764 -0.06485122874 0)
(-0.00697941365 -0.06486291654 0)
(-0.00716200959 -0.05898039848 0)
(-0.006799622683 -0.05899177924 0)
(-0.006787904148 -0.05864667404 0)
(-0.00715073171 -0.05863521491 0)
(-0.007173353692 -0.05932564416 0)
(-0.006811300427 -0.0593370142 0)
(-0.00769227232 -0.07555232748 0)
(-0.007337570389 -0.07556301184 0)
(-0.007328942855 -0.07521735779 0)
(-0.007682906926 -0.07520669712 0)
(-0.007698189936 -0.07589819701 0)
(-0.007339126839 -0.07590927834 0)
(-0.007498185646 -0.07003143405 0)
(-0.007117361859 -0.07004430608 0)
(-0.00711170295 -0.06969849246 0)
(-0.007489585837 -0.06968584334 0)
(-0.007508423873 -0.0703768437 0)
(-0.007126996967 -0.07038973509 0)
(-0.01084787916 -0.08443723338 0)
(-0.01012648278 -0.08445956528 0)
(-0.007518920033 -0.08108508503 0)
(-0.007499480555 -0.08074035625 0)
(-0.007856118107 -0.08072954549 0)
(-0.007537450712 -0.08142971455 0)
(-0.003116037203 -0.03105306893 0)
(-0.003201009006 -0.03179181839 0)
(-0.002429300642 -0.031777878 0)
(-0.0023192145 -0.03103428944 0)
(-0.002971350573 -0.03361305061 0)
(-0.003344818641 -0.03361592776 0)
(-0.007869380358 -0.07001932085 0)
(-0.007879958642 -0.07036471958 0)
(-0.01041151289 -0.06993916026 0)
(-0.01043273362 -0.07062995565 0)
(-0.009707433685 -0.07065273405 0)
(-0.009686086693 -0.06996200694 0)
(-0.01049606882 -0.07270215962 0)
(-0.009771346336 -0.07272491948 0)
(-0.009750065567 -0.07203425448 0)
(-0.01047498054 -0.07201148844 0)
(-0.01032659467 -0.06717687904 0)
(-0.01034786719 -0.06786728739 0)
(-0.009622056021 -0.06789014644 0)
(-0.00960065517 -0.0671997422 0)
(-0.009664803863 -0.06927127778 0)
(-0.01039035839 -0.06924842697 0)
(-0.007859251206 -0.06967390771 0)
(-0.0106629709 -0.078223348 0)
(-0.01068372395 -0.07891358036 0)
(-0.009960471006 -0.07893610034 0)
(-0.009939399205 -0.07824594244 0)
(-0.01000271792 -0.08031763313 0)
(-0.01072526715 -0.08029519998 0)
(-0.008214004751 -0.0807186304 0)
(-0.008061668212 -0.06448300072 0)
(-0.008084050032 -0.0651739515 0)
(-0.007357558747 -0.06519683239 0)
(-0.01024108662 -0.06441423139 0)
(-0.01026257017 -0.06510521102 0)
(-0.009536183608 -0.06512815277 0)
(-0.009514571728 -0.06443717726 0)
(-0.00957920046 -0.06650966084 0)
(-0.01030526622 -0.06648672939 0)
(-0.006010688945 -0.06731085527 0)
(-0.00598875929 -0.0669667845 0)
(-0.006342235732 -0.0669561395 0)
(-0.006360005417 -0.06730047231 0)
(-0.005922979269 -0.06593425077 0)
(-0.006288324263 -0.06592258234 0)
(-0.006306307272 -0.0662673579 0)
(-0.005944874314 -0.06627864379 0)
(-0.007381140155 -0.06588793733 0)
(-0.007392869228 -0.06623317065 0)
(-0.007030649142 -0.06624454604 0)
(-0.007017895543 -0.06589940986 0)
(-0.008050693801 -0.07554126675 0)
(-0.008059289254 -0.07588692184 0)
(-0.01057982625 -0.07546229438 0)
(-0.01060039712 -0.07615285372 0)
(-0.009876703279 -0.07617564477 0)
(-0.009855873701 -0.07548502951 0)
(-0.009918397748 -0.07755597498 0)
(-0.01064222609 -0.07753337229 0)
(-0.01051707646 -0.07339231957 0)
(-0.00979254646 -0.07341507325 0)
(-0.009834785417 -0.07479435832 0)
(-0.01055893251 -0.07477168117 0)
(-0.00804062675 -0.07519578739 0)
(-0.007646480684 -0.07417161503 0)
(-0.007287124504 -0.07418276999 0)
(-0.007272111006 -0.07383886249 0)
(-0.007633749282 -0.07382757 0)
(-0.006216300517 -0.0742154242 0)
(-0.006189080472 -0.0738726152 0)
(-0.006548834455 -0.07386144745 0)
(-0.006572007725 -0.07420464332 0)
(-0.00611087917 -0.07284189337 0)
(-0.006481139183 -0.07282987441 0)
(-0.00650359679 -0.07317418514 0)
(-0.006136855132 -0.07318596265 0)
(-0.006251028262 -0.07836721651 0)
(-0.006220729161 -0.07802392834 0)
(-0.006557154667 -0.07801293171 0)
(-0.006585146009 -0.07835635822 0)
(-0.00613182807 -0.07701442417 0)
(-0.00651535945 -0.07697866432 0)
(-0.006512638847 -0.07732474703 0)
(-0.006160438648 -0.07733933318 0)
(-0.00770323077 -0.07693576426 0)
(-0.007709163984 -0.07728111947 0)
(-0.007317224397 -0.07729505497 0)
(-0.007315307938 -0.07694937808 0)
(-0.007468692482 -0.06864904209 0)
(-0.007106970796 -0.06866033725 0)
(-0.007101311652 -0.06831471633 0)
(-0.007460513845 -0.06830356631 0)
(-0.006058242966 -0.0686914469 0)
(-0.006062608638 -0.06834499022 0)
(-0.006399703669 -0.06833564202 0)
(-0.006395926223 -0.06868201558 0)
(-0.006376921282 -0.06764521792 0)
(-0.006031882567 -0.06765520659 0)
(-0.006084901149 -0.07249775993 0)
(-0.006458703119 -0.07248543454 0)
(-0.006006873136 -0.07146523416 0)
(-0.006391476279 -0.07145204808 0)
(-0.006413828932 -0.07179649063 0)
(-0.006032889654 -0.07180936636 0)
(-0.007544716732 -0.07141257235 0)
(-0.007557397457 -0.07175783933 0)
(-0.007182671559 -0.07177019439 0)
(-0.007167871203 -0.07142512394 0)
(-0.007809064867 -0.07969454776 0)
(-0.007439946933 -0.07970653004 0)
(-0.007420009053 -0.07936188149 0)
(-0.007793310563 -0.07934957217 0)
(-0.006376525559 -0.0797402953 0)
(-0.006345151072 -0.07939672053 0)
(-0.006673241274 -0.07938656963 0)
(-0.006702750717 -0.07973026853 0)
(-0.00661426477 -0.07869949162 0)
(-0.006282361071 -0.07870989343 0)
(-0.006626440333 -0.0824810282 0)
(-0.006911179289 -0.08247875649 0)
(-0.006879711913 -0.08282768921 0)
(-0.006657083036 -0.08279681582 0)
(-0.007911244045 -0.08245332019 0)
(-0.007906504175 -0.08279972466 0)
(-0.007545991024 -0.08281085256 0)
(-0.007563211277 -0.08246327656 0)
(-0.003828857174 -0.04386107477 0)
(-0.003537966705 -0.04386399362 0)
(-0.003503635199 -0.04352333983 0)
(-0.003816588256 -0.04351483115 0)
(-0.003796279044 -0.04421241959 0)
(-0.003569378591 -0.04418213297 0)
(-0.003452502675 -0.03544591673 0)
(-0.003085890915 -0.03545393916 0)
(-0.00306685222 -0.03508849045 0)
(-0.003434400391 -0.03508142705 0)
(-0.002326601582 -0.03509591681 0)
(-0.002357010824 -0.03545623467 0)
(-0.002249915909 -0.03396799035 0)
(-0.002283179002 -0.03435057471 0)
(-0.002385911941 -0.03581599079 0)
(-0.002119278729 -0.03577925996 0)
(-0.003468515824 -0.03581155252 0)
(-0.003100124365 -0.03581775666 0)
(-0.003570783199 -0.04110127132 0)
(-0.003229994231 -0.04111279344 0)
(-0.003185042848 -0.04077164574 0)
(-0.003538816181 -0.04075604565 0)
(-0.003608446417 -0.04144567179 0)
(-0.003273049558 -0.0414566996 0)
(-0.003960347448 -0.04108676982 0)
(-0.003989384103 -0.04143234651 0)
(-0.005115922315 -0.04104458579 0)
(-0.005129656597 -0.04139225959 0)
(-0.004755050075 -0.04140493195 0)
(-0.004738502983 -0.04105766962 0)
(-0.005172601038 -0.04243291287 0)
(-0.004808494599 -0.04244434884 0)
(-0.004790683522 -0.0420971271 0)
(-0.005158244389 -0.04208525905 0)
(-0.005074112393 -0.03965106047 0)
(-0.005082999967 -0.03999901195 0)
(-0.004708170408 -0.04001113912 0)
(-0.004703223001 -0.0396614811 0)
(-0.004724476323 -0.04070949139 0)
(-0.005103296675 -0.04069623411 0)
(-0.003937740965 -0.04074002322 0)
(-0.004154296742 -0.04385338543 0)
(-0.004121021311 -0.04420481687 0)
(-0.005216290675 -0.0438221709 0)
(-0.005219570961 -0.04417011619 0)
(-0.00484827153 -0.04418216852 0)
(-0.00485336069 -0.04383344063 0)
(-0.005229646034 -0.04521304536 0)
(-0.004834303584 -0.04522721859 0)
(-0.004832324372 -0.04488038762 0)
(-0.005223466059 -0.0448666062 0)
(-0.005186509678 -0.04278141603 0)
(-0.004825395467 -0.04279262746 0)
(-0.004850282487 -0.04348638804 0)
(-0.005209452365 -0.04347543174 0)
(-0.004153742389 -0.04350612333 0)
(-0.003523258204 -0.03829738352 0)
(-0.003907646815 -0.0382835171 0)
(-0.003930345316 -0.03863372905 0)
(-0.003556830688 -0.03864560204 0)
(-0.005028162957 -0.03825083425 0)
(-0.005040877994 -0.03860216965 0)
(-0.004673817234 -0.03861361058 0)
(-0.004659796212 -0.03826220793 0)
(-0.004696720736 -0.0393124061 0)
(-0.005064100307 -0.03930189266 0)
(-0.003137074691 -0.03831295825 0)
(-0.003105861593 -0.03796540901 0)
(-0.003501229989 -0.03794784371 0)
(-0.003186522025 -0.03865770605 0)
(-0.004183905023 -0.05216056191 0)
(-0.004493122045 -0.0521519163 0)
(-0.004495843002 -0.05249904459 0)
(-0.004208158739 -0.05250340194 0)
(-0.005502421124 -0.05212322896 0)
(-0.005502723422 -0.05247024225 0)
(-0.005151635854 -0.05248087476 0)
(-0.005157037763 -0.05213348561 0)
(-0.005474342392 -0.05351068117 0)
(-0.005072981813 -0.05352485499 0)
(-0.005096776107 -0.05317738901 0)
(-0.005482974581 -0.05316428016 0)
(-0.005456312567 -0.05074284783 0)
(-0.005470225666 -0.05108768986 0)