/*--------------------------------*- C++ -*----------------------------------*\
| =========                 |                                                 |
| \\      /  F ield         | OpenFOAM: The Open Source CFD Toolbox           |
|  \\    /   O peration     | Version:  v2012                                 |
|   \\  /    A nd           | Website:  www.openfoam.com                      |
|    \\/     M anipulation  |                                                 |
\*---------------------------------------------------------------------------*/
FoamFile
{
    version     2.0;
    format      ascii;
    class       volVectorField;
    location    "2";
    object      U;
}
// * * * * * * * * * * * * * * * * * * * * * * * * * * * * * * * * * * * * * //

dimensions      [0 1 -1 0 0 0 0];


internalField   nonuniform List<vector> 
3019
(
(99.99834265 0.004001226941 -4.479378024e-21)
(99.99784834 0.01334065189 3.164388541e-25)
(99.9964704 0.02776167196 -4.469331614e-21)
(99.99418082 0.05057733409 -4.438089529e-21)
(99.99976688 0.0393848611 4.27849398e-21)
(99.99712995 0.06405540868 0)
(99.99566038 0.1019434744 0)
(99.99527302 0.153330658 -7.434274966e-21)
(99.9940867 0.2198637973 8.624336291e-22)
(99.99343605 0.2983137385 -5.555194078e-21)
(99.99403267 0.3780139935 7.436512051e-22)
(99.9950545 0.4411887975 0)
(99.98510391 0.01070727708 1.795045442e-20)
(99.97936505 0.03618920047 4.481593461e-21)
(99.96646285 0.07607060764 3.129006233e-20)
(99.94446834 0.1395140356 -1.340094949e-20)
(99.94838197 0.1870243298 4.311532415e-21)
(99.91507971 0.3074365739 -5.532192896e-23)
(99.87244452 0.4895828072 0)
(99.85084408 0.6507214037 -7.521300974e-21)
(99.80708747 0.9439724691 -6.923028231e-21)
(99.77793225 1.300680746 -1.191362799e-20)
(99.78348516 1.674548023 -4.84959971e-21)
(99.83681889 1.980354249 -5.780347698e-21)
(99.96007349 0.01375909805 -1.791045873e-20)
(99.94381972 0.04767330642 -3.597463283e-20)
(99.90850705 0.1031908134 -8.06064424e-20)
(99.84968315 0.1940152895 1.072348445e-19)
(99.82136104 0.2953710038 -8.862518861e-21)
(99.72128491 0.5005154395 -8.598167002e-21)
(99.58899336 0.8142621342 -1.491125502e-20)
(99.51931953 1.151390626 0)
(99.37808694 1.714858456 2.871512101e-20)
(99.2853017 2.416481015 -1.208755485e-20)
(99.31800638 3.172738015 1.20153408e-19)
(99.52192629 3.842519868 1.349724026e-20)
(99.93119403 0.01085863909 -9.032837327e-21)
(99.89995237 0.04058232199 6.322410582e-20)
(99.83311314 0.09742663888 -1.80911792e-20)
(99.72400113 0.1949322192 0)
(99.63850986 0.3375466818 0)
(99.44166912 0.6021546949 -6.968274111e-20)
(99.17050715 1.021688217 -1.393469313e-19)
(98.96297648 1.525460388 3.273347439e-20)
(98.63663202 2.347286292 0)
(98.4047787 3.416435621 2.020532039e-19)
(98.40333961 4.70257206 0)
(98.83659962 5.963609844 0)
(99.9128058 0.0005261968339 0)
(99.86404064 0.009981003797 0)
(99.76065059 0.05014860734 9.143364311e-21)
(99.59078921 0.1312713232 1.380440965e-20)
(99.4342008 0.295006731 2.284773839e-20)
(99.109081 0.5791315049 0)
(98.65711285 1.036121855 0)
(98.23384213 1.667787794 -6.970413722e-20)
(97.6391209 2.688220227 5.644445736e-19)
(97.08639913 4.166149026 5.528955106e-19)
(96.83569326 6.176833851 -1.265577149e-19)
(97.45263315 8.513376366 3.617994177e-19)
(99.92105449 -0.01776693434 0)
(99.85427756 -0.04587117279 0)
(99.71444302 -0.0440873161 -1.831171731e-20)
(99.48050406 -0.002114487111 3.734948228e-20)
(99.24195002 0.1527736022 0)
(98.77607051 0.4023155708 0)
(98.11180603 0.8275886276 2.929334175e-20)
(97.44863836 1.481617872 1.563684575e-19)
(96.45601855 2.570628348 1.326961153e-18)
(95.3099438 4.314526438 1.464296383e-20)
(94.23638831 7.164860949 -1.251252462e-18)
(94.39938867 11.56687298 -1.056525234e-18)
(99.97159203 -0.04360139775 4.476956549e-21)
(99.88852996 -0.1251196304 -4.511508893e-21)
(99.71708639 -0.182149196 9.213001881e-21)
(99.42655535 -0.2053205606 -3.370295747e-20)
(99.09814586 -0.09128085788 7.700865728e-23)
(98.50471102 0.06857485141 2.893067625e-20)
(97.65503971 0.3750401731 -5.9997816e-20)
(96.73445334 0.9316748383 0)
(95.29302316 1.883889768 1.534666829e-18)
(93.32624833 3.503727894 -1.646911005e-18)
(90.50343127 6.483665494 1.621661483e-18)
(87.03904506 13.61003838 -9.075885428e-19)
(100.0779246 -0.07547851173 -4.477425589e-21)
(99.98242743 -0.2229285365 4.513124344e-21)
(99.78790375 -0.3545518967 -5.732390814e-21)
(99.4561787 -0.4629413399 -3.861898505e-21)
(99.05136424 -0.4207430544 1.648521388e-20)
(98.36071298 -0.3954177373 9.842105016e-21)
(97.39250363 -0.2891683008 -2.487214032e-21)
(96.25199701 0.0555253567 -8.265935233e-20)
(94.4693552 0.6269031446 -1.22530368e-18)
(91.85783605 1.554301495 0)
(87.45188306 2.953789944 0)
(78.7164017 5.617495358 -5.101174004e-18)
(100.249923 -0.1110686056 -2.158035122e-21)
(100.1473339 -0.3320716689 -1.621781137e-21)
(99.94090803 -0.5475356528 -5.563503006e-22)
(99.58816245 -0.7529428256 1.686111436e-21)
(99.12773073 -0.8044514681 -3.295262086e-23)
(98.390867 -0.9413745372 0)
(97.38276417 -1.073581643 9.200563734e-20)
(96.12283465 -1.010015777 0)
(94.22510318 -0.9202526052 8.721397532e-19)
(91.55330857 -0.8503120339 0)
(87.48792251 -1.294093036 -3.055625029e-18)
(81.98563794 -3.426693622 -1.189390212e-18)
(100.4924107 -0.1475702049 4.250953594e-21)
(100.3886812 -0.4439097477 6.623704669e-23)
(100.1825716 -0.7448387497 0)
(99.83071627 -1.049918631 2.179687845e-22)
(99.34135485 -1.205377914 -2.261247204e-21)
(98.61313396 -1.50883671 2.415753279e-21)
(97.63983961 -1.872004383 7.771406267e-20)
(96.38092747 -2.081726442 1.584577791e-18)
(94.58586588 -2.405423742 1.287969939e-18)
(92.20428252 -2.92312077 9.368488112e-19)
(89.00663941 -4.086824084 0)
(85.61150226 -6.136979152 2.962333349e-18)
(100.8046511 -0.1822714549 -2.092733403e-21)
(100.705346 -0.5499245167 2.11149925e-21)
(100.5106037 -0.9306354611 2.058088288e-21)
(100.1816192 -1.32962479 -1.929497784e-21)
(99.68703424 -1.587717786 -2.228305744e-21)
(99.01433512 -2.039058011 0)
(98.13185773 -2.600157735 -2.474470808e-21)
(96.9544645 -3.037388478 -2.700593854e-18)
(95.35738541 -3.651521232 2.476234261e-18)
(93.32807941 -4.495613964 0)
(90.72476251 -5.885376054 1.674607241e-18)
(88.0552796 -7.632431461 -1.681873199e-18)
(101.1806391 -0.2128152702 7.659490372e-21)
(101.0905902 -0.6426151664 0)
(100.9155396 -1.089426589 -2.054045823e-21)
(100.6242774 -1.57832963 0)
(100.1408149 -1.922783902 0)
(99.56318231 -2.488656721 -6.61638701e-21)
(98.80904792 -3.201580571 -2.282463341e-21)
(97.76257645 -3.807656852 -1.528384267e-18)
(96.39720409 -4.610032446 -7.785686741e-19)
(94.69132697 -5.648432989 2.425146577e-20)
(92.47036318 -7.195560558 1.470065327e-18)
(90.01561941 -8.944935064 0)
(81.37885934 -2.840850095 1.221392e-18)
(85.25056064 -5.893988839 1.034235148e-18)
(87.78976061 -7.474518358 0)
(89.76905189 -8.771404819 -1.92448469e-19)
(79.2500651 7.27578723 5.034520469e-18)
(88.58686892 -3.509435252 0)
(85.65020866 -5.514719633 -3.012580766e-18)
(82.72329474 -2.87348005 1.138502539e-18)
(90.29490301 -5.49509988 1.772176509e-18)
(88.09416802 -7.189878288 -1.732674963e-18)
(85.99488124 -5.771387753 -2.921470714e-18)
(86.61612894 -6.776202563 -4.342980887e-19)
(85.69446176 -7.947695451 -2.108622468e-19)
(84.35267815 -7.328171586 0)
(92.0246813 -6.90020631 1.572759103e-18)
(90.04653012 -8.522948657 7.279020622e-19)
(88.35404335 -7.359455071 0)
(88.80655363 -8.103514774 0)
(87.7888522 -8.931344876 -1.772879702e-18)
(87.04306106 -8.46301735 -1.610370522e-18)
(90.2906067 -8.691889152 -2.239879202e-18)
(90.91869876 -9.450085814 -5.838064019e-19)
(89.39355988 -10.42467486 5.362887126e-19)
(88.63774617 -9.696846879 -4.017353224e-21)
(73.57938287 -4.475645965 0)
(79.30658023 -6.455633594 0)
(67.15703125 8.340180409 1.620200559e-18)
(72.47382971 -3.747313468 0)
(84.16184831 -7.223248149 1.807534319e-18)
(82.72311082 -6.608618518 0)
(84.03688972 -5.042057035 -1.059212823e-18)
(82.53161737 -6.865379218 0)
(84.03279716 -7.389150408 0)
(79.84531023 -6.533435723 -1.091697902e-18)
(82.28795227 -6.811008483 -9.991127748e-19)
(86.91347682 -8.404243852 2.412479332e-18)
(85.86976402 -8.011273358 -1.661432625e-18)
(86.92784179 -6.964158066 2.871587191e-20)
(85.68025721 -8.13065023 -1.300291731e-18)
(86.78461962 -8.506674766 1.291292686e-18)
(84.12676304 -7.450714841 0)
(85.59257728 -8.093748275 1.954919973e-18)
(88.58124023 -9.649031885 0)
(87.83491799 -8.970791008 3.288315376e-22)
(89.04673587 -8.265226119 -1.583940633e-18)
(87.68487767 -9.009625856 1.225959895e-18)
(88.36400674 -9.698615972 4.818658182e-22)
(86.84710163 -8.541731697 -4.694497642e-21)
(87.64302047 -8.971640477 0)
(89.44495329 -10.48165868 -1.62102033e-18)
(91.05389889 -9.545542343 0)
(89.09119882 -10.51736233 -5.540241193e-19)
(88.41925151 -9.745440562 1.161665269e-18)
(89.05059391 -10.46256372 8.220862274e-19)
(87.2492679 -0.359638299 0)
(82.22702741 -2.269009234 0)
(80.48548749 5.275950416 2.524955619e-18)
(79.01926557 0.9477867519 2.605926017e-18)
(73.47270158 -2.707089533 0)
(69.51082945 7.979048253 1.536835412e-18)
(83.58063082 -4.71322939 0)
(82.47462177 -6.54135419 -9.666668126e-19)
(79.98413929 -5.987201236 2.210834156e-18)
(79.46855186 -5.855395228 -3.422753579e-18)
(74.3856997 -3.463019826 0)
(79.52586492 -0.2668556052 -3.91365766e-18)
(76.49098538 -9.278778193 1.858756371e-20)
(51.88670131 12.11981997 0)
(59.1852941 -5.968440205 -1.685391722e-18)
(77.88959198 20.81077612 5.379645853e-18)
(67.74548176 10.76242062 2.284151567e-18)
(89.06532328 -10.05063855 5.860348962e-19)
(89.92528682 -9.714430427 2.632677197e-18)
(90.31499433 -10.00505065 1.292730311e-18)
(71.56620021 -10.4821174 3.015330906e-18)
(75.98427215 -9.455551783 1.966998089e-20)
(76.48445476 -5.82832921 6.423874001e-19)
(76.18450388 -9.048575699 0)
(71.69457487 -9.389177636 -2.324646627e-18)
(78.81736105 -8.283179205 4.029300677e-18)
(76.65525007 -8.922088953 -2.154174392e-18)
(77.2956372 -6.060335749 -4.29088889e-18)
(68.14113596 1.599583831 3.24897137e-18)
(60.63116985 -4.316739633 -3.37485425e-18)
(54.82961441 11.49883219 -3.451975353e-18)
(70.77423761 -9.208061613 -6.490887004e-19)
(62.04650073 -5.553641602 0)
(69.10561845 -0.1887233798 0)
(60.90186274 -7.218960532 1.663674766e-18)
(70.66133126 -10.17020141 -1.659342376e-18)
(83.27799077 -7.018031458 2.801221613e-18)
(81.35833528 -7.488678812 0)
(83.37574639 -7.063257707 6.967480639e-19)
(81.10694188 -6.651737978 2.569915622e-19)
(80.34878054 -7.674021441 0)
(79.01354669 -8.19308353 -2.088599177e-18)
(81.2778176 -7.477054079 0)
(80.48545772 -7.606829564 1.046048994e-18)
(81.44056304 -6.683493001 -2.016233907e-18)
(86.24451175 -8.300886587 1.290922309e-18)
(86.31745433 -8.332499703 -1.290042971e-18)
(84.82211852 -7.798295021 -2.701474652e-21)
(84.92129401 -7.850506292 -6.741696242e-19)
(88.01479198 -9.320764525 -6.253706591e-19)
(88.06167514 -9.363272201 6.185632732e-19)
(87.25835627 -8.730495049 0)
(87.31002703 -8.760357131 5.959475298e-19)
(90.45097206 -10.1051936 1.270406608e-18)
(88.78292107 -10.03512808 3.467909731e-21)
(88.82505437 -10.08118147 6.15094683e-19)
(65.51289277 29.52619175 0)
(52.58208501 15.29654324 -4.400483511e-18)
(87.43533526 -8.710758775 3.919608276e-21)
(88.01834401 -8.344742403 1.447402246e-18)
(88.37286888 -8.569170978 -1.415089645e-18)
(87.51052303 -8.062648906 7.36235578e-19)
(87.89575693 -8.272868299 -2.171732809e-18)
(87.37995297 -8.682467133 -1.17133389e-18)
(89.43047855 -9.343961941 6.771024133e-19)
(89.80028305 -9.619784812 -3.308150519e-18)
(89.01722745 -10.00215432 -5.097413854e-22)
(86.50187767 -8.236489106 0)
(86.95098512 -7.783139073 0)
(87.3759665 -7.992653807 0)
(86.24409483 -8.658734793 -1.465813462e-18)
(86.08282355 -8.582091451 1.429184523e-18)
(86.59307063 -8.430875382 -1.293688122e-18)
(88.23343687 -9.320083842 0)
(88.95249231 -8.985982992 -1.387553325e-18)
(89.30918195 -9.253022128 -1.364009804e-18)
(88.48826199 -8.648674944 7.098295448e-19)
(88.83535933 -8.899059674 1.385068364e-18)
(88.18265328 -9.275545534 0)
(87.81500239 -9.13999582 -1.246852083e-18)
(86.80827121 -9.192062635 1.412621139e-18)
(86.74043407 -9.035487859 -1.380990435e-18)
(86.50453336 -9.683352484 -7.470107196e-19)
(86.40580602 -9.544254379 -5.234539516e-21)
(88.21293737 -9.547405972 0)
(87.03278505 -8.619849816 1.281182267e-18)
(86.46298789 -8.77007335 3.707527992e-19)
(86.30198441 -8.687724103 1.475948494e-18)
(86.72169579 -9.001888447 -1.370565534e-18)
(86.64194637 -8.935331924 1.339253315e-18)
(87.51074968 -8.873545402 -1.206814444e-18)
(88.58856491 -9.874575626 -1.189233805e-18)
(86.77186238 -9.860026312 -3.635214671e-21)
(86.55421984 -9.742585014 -7.473680196e-19)
(86.98207709 -10.26012171 1.383995689e-18)
(88.98193075 -10.30783466 2.973345664e-19)
(77.5947173 -8.809854407 2.527065561e-18)
(77.92758276 -8.711245941 0)
(52.96458992 2.472704073 -1.901770659e-18)
(54.22359217 -0.1754233747 1.843622118e-18)
(73.72878602 -10.09860301 -7.480986251e-18)
(74.35405419 -9.907242213 0)
(74.58821053 -9.35935215 -2.132069742e-18)
(74.77287792 -7.357750616 2.134249803e-18)
(76.37963282 -7.544625075 0)
(72.17553656 -6.665099926 -2.401561205e-18)
(74.17375633 -7.245558783 0)
(73.96459798 -9.443359425 2.133655524e-18)
(78.12550212 -8.504540017 1.072738562e-18)
(78.38043384 -7.545773602 1.77135124e-18)
(79.22986786 -7.472098283 -1.662285243e-18)
(76.85265624 -7.569294245 1.993170551e-18)
(78.05153215 -7.561923126 -1.855027498e-18)
(77.78746232 -8.567822663 -3.305687274e-18)
(67.44533168 -8.478956269 0)
(68.93862061 -5.192025751 0)
(71.39711159 -6.380921476 0)
(65.58506257 -9.517623913 -2.844560616e-18)
(67.06626569 -9.818270486 0)
(81.78154493 -7.528177089 0)
(82.50797174 -7.316502247 0)
(82.73848479 -7.389270631 1.600196986e-18)
(82.07864827 -7.24608097 0)
(82.40725165 -7.297829008 8.513081167e-19)
(81.67727682 -7.540396411 -1.049563872e-18)
(83.1077867 -7.58552021 0)
(83.33835507 -7.755277462 0)
(82.80440333 -7.426467927 0)
(83.03256214 -7.541145588 -1.498686604e-18)
(79.85011724 -7.855331727 1.056227277e-18)
(80.34378915 -7.326354258 3.293273521e-18)
(80.87614659 -7.257776392 0)
(79.47523934 -7.443309717 0)
(80.14496851 -7.354890881 6.521269567e-21)
(79.67060751 -7.933875353 -2.120993956e-18)
(80.94439474 -7.545734091 0)
(81.59393975 -7.221132807 -3.361292254e-18)
(81.96537532 -7.233809361 -1.696039539e-18)
(81.03433515 -7.240252207 1.658979109e-18)
(81.46028327 -7.219869852 -8.669996567e-21)
(80.80916184 -7.551211183 2.09672806e-18)
(85.20637507 -8.496338784 -4.301167132e-18)
(85.40777564 -8.556642954 0)
(84.91762124 -8.487248287 -1.035795243e-18)
(85.14585398 -8.487662673 -1.428826499e-18)
(85.71855479 -8.602387311 1.495777535e-18)
(85.86155906 -8.681751542 -7.603398701e-19)
(85.48245673 -8.571025887 1.041979081e-21)
(85.67174434 -8.589725006 -2.968249477e-18)
(83.84733962 -8.063209619 -1.573353343e-18)
(84.17394537 -8.198090137 0)
(83.42532633 -7.823557075 0)
(83.73800436 -8.011640321 3.122273978e-18)
(84.69040126 -8.376319325 4.034989644e-19)
(84.85961982 -8.463913749 4.165547072e-18)
(84.28168535 -8.237160605 -8.000992834e-19)
(84.59600758 -8.343067697 8.148180696e-19)
(87.01392994 -9.386146826 1.464301141e-18)
(86.85316069 -9.256134223 0)
(87.86286657 -9.186796528 0)
(85.97732536 -9.217051177 -1.61127213e-18)
(86.17215023 -9.333845934 0)
(85.89760914 -8.960131258 0)
(85.92640784 -9.13885208 8.041550487e-19)
(86.18115546 -9.360777459 8.513853856e-19)
(88.17658022 -9.495692335 -1.884683882e-18)
(86.49247157 -9.502517387 3.814322477e-18)
(87.0239635 -9.424216426 1.116003026e-18)
(86.45719594 -8.865136703 -5.355915251e-22)
(86.50563809 -8.807590377 0)
(87.09091248 -8.653969574 0)
(86.10375897 -8.826130094 -7.784576744e-19)
(85.66508345 -8.847667019 1.829261409e-18)
(85.91849994 -8.712785124 1.533319689e-18)
(86.06151985 -8.794621892 -3.963636507e-19)
(85.82664414 -8.883847429 0)
(85.89047145 -8.931105743 0)
(85.68396285 -8.850432668 0)
(85.7944683 -8.872766568 1.573820624e-18)
(87.46311667 -8.844417877 -1.204817693e-18)
(86.60776401 -8.918884251 0)
(86.48849637 -8.882894085 6.424810719e-19)
(86.94320213 -9.945976047 1.50370455e-18)
(86.83012955 -9.881215618 -1.49327931e-18)
(88.64188626 -9.913581545 1.193907364e-18)
(88.94520588 -10.24517371 0)
(86.9530131 -10.18535069 -1.212559493e-18)
(86.95936935 -9.975201272 0)
(85.13231776 -7.720037745 -2.160229801e-18)
(85.63723574 -7.145312652 8.004668934e-19)
(86.16019058 -7.406845643 -1.57086303e-18)
(84.90123648 -6.742728562 -1.670906938e-18)
(85.45626532 -7.049570036 -1.630357025e-18)
(84.9375869 -7.6303778 -1.973645429e-18)
(86.32768208 -7.486593755 -7.768657028e-19)
(86.80174031 -7.711285277 -7.683004972e-19)
(86.35349239 -8.181921836 1.64861515e-18)
(85.93521399 -8.201243991 2.580635315e-18)
(85.47586286 -8.438543154 3.517907707e-21)
(85.22994436 -8.398928995 6.654512598e-19)
(85.15220336 -8.372652531 1.35495597e-18)
(84.90463539 -8.285532955 0)
(85.31403552 -8.00576872 0)
(76.92638041 -9.077262635 4.867905128e-18)
(72.36769202 -10.45851529 0)
(71.1196077 -10.80105038 -2.492373392e-18)
(75.45828711 -9.597080432 -1.234094582e-18)
(75.68459163 -9.155453824 4.332555307e-18)
(75.80684335 -8.622595419 -6.183474779e-18)
(76.29823546 -8.554972753 2.078968437e-18)
(78.62948637 -8.390306229 -5.562132348e-18)
(78.78323248 -8.085222372 1.77468282e-18)
(79.02258019 -8.025785833 2.190635492e-18)
(76.75727037 -8.471285904 2.056046462e-18)
(77.17757193 -8.379121245 -2.06098035e-18)
(77.07932075 -8.781723851 7.955662221e-21)
(65.41757635 -2.196309083 3.056897392e-18)
(68.07193275 -4.502592167 0)
(66.14917382 -8.029816115 0)
(62.53584972 -8.257778966 -2.984004739e-18)
(61.8614737 -10.68172112 0)
(59.82431804 -8.910929609 -1.785000212e-18)
(70.32057522 -10.85662431 8.818327112e-18)
(69.32473532 -11.0005715 -3.160875482e-18)
(69.62371191 -10.0692373 2.780563432e-18)
(81.75121904 -7.494097047 2.245000512e-17)
(82.10423093 -7.498453268 -7.992948745e-18)
(82.08358115 -7.522672951 -1.644018132e-18)
(81.70657656 -7.437881715 -2.801449068e-18)
(81.80935924 -7.452934213 9.360413167e-19)
(81.45184475 -7.507915734 -2.089533452e-18)
(82.41333276 -7.763209232 -2.854534617e-18)
(82.46224226 -7.842060855 1.91529655e-18)
(82.0902715 -7.546536023 -1.772959593e-18)
(82.14131783 -7.568010512 4.811145631e-21)
(80.18237788 -7.744645704 -2.106006951e-18)
(80.44402433 -7.630067508 -1.802709895e-18)
(80.60699813 -7.58083041 1.814604296e-18)
(79.25323905 -7.971008557 -1.755808158e-18)
(79.48148775 -7.916422726 1.495864456e-20)
(79.23383851 -8.112194833 -3.174731701e-18)
(81.19376544 -7.486935029 -2.081384319e-18)
(81.50666233 -7.437681461 -3.702215936e-18)
(81.60887779 -7.430544665 9.269484417e-19)
(80.75310989 -7.532630797 0)
(80.88107026 -7.498694064 1.825761064e-18)
(80.591727 -7.566406299 -3.149278064e-18)
(85.76078258 -8.509692105 5.741672282e-21)
(85.54739856 -8.452577812 -1.357518472e-18)
(86.01466375 -8.233459374 -1.292497339e-18)
(86.52757107 -8.398770638 -3.271334569e-21)
(86.02804132 -8.565018469 0)
(85.8332955 -8.525998956 4.180432264e-18)
(84.39102566 -8.102532808 -1.517916636e-18)
(84.07189343 -7.964054956 0)
(84.51979802 -7.663161367 2.047227611e-18)
(83.22276053 -8.304170231 9.472612915e-19)
(83.33171985 -8.340986508 -1.884822744e-18)
(82.53041352 -7.945531796 3.934259422e-21)
(82.63461552 -8.042186352 5.449535728e-21)
(83.74541261 -8.520775886 3.364581159e-17)
(83.43895129 -8.374474654 -9.396076437e-19)
(83.5439293 -8.404685012 -9.40219417e-19)
(85.21851308 -7.961624601 0)
(84.80740255 -8.252795162 -7.668282215e-19)
(84.49682399 -8.143305975 5.501529238e-21)
(86.77895061 -9.129943656 0)
(87.26396734 -9.142938039 0)
(87.29984264 -9.195994101 -4.599813414e-21)
(86.46072756 -9.634799355 -1.478174908e-18)
(87.45364855 -9.699207046 0)
(87.50039243 -9.742741373 1.249727049e-18)
(87.39001565 -9.602338004 0)
(87.41017242 -9.65531316 0)
(86.41505737 -9.589908889 -2.02591884e-21)
(87.39210662 -10.44945383 -1.35531965e-18)
(87.4259717 -10.47816838 1.384835168e-18)
(86.69978577 -9.834010389 7.43789977e-19)
(87.67094625 -9.877692703 -1.277151526e-18)
(87.73185735 -9.908956629 1.291909599e-18)
(87.5499062 -9.790877002 -1.266407133e-18)
(87.60745838 -9.838426897 0)
(86.62131207 -9.796677979 0)
(87.45848895 -10.40966765 -1.186760392e-18)
(87.38249694 -10.42700663 0)
(87.99787317 -10.35064234 -3.749834304e-21)
(87.59033693 -10.3795083 0)
(86.66294907 -10.29344503 -1.370535147e-18)
(77.27578992 -8.916318119 1.239362069e-18)
(78.15647662 -8.562422602 3.32379756e-17)
(44.21256277 4.283200994 0)
(46.01212187 0.1799059808 0)
(53.89529155 -9.333872734 0)
(56.33062599 -10.24373686 0)
(48.5917254 -3.433340261 0)
(51.25210753 -7.543302035 0)
(48.44686058 -8.382873977 0)
(73.06046324 -10.29698132 0)
(74.92484205 -9.736471263 -5.020842852e-18)
(78.23131572 -8.192833283 0)
(78.52314579 -8.144695036 -5.517499172e-18)
(78.38789027 -8.48107187 -1.06864155e-17)
(77.4492193 -8.657915506 -2.179513468e-18)
(77.55585704 -8.297251713 -1.028236407e-18)
(77.90253309 -8.234140331 2.055254275e-18)
(65.21731401 -11.42764834 6.050523543e-18)
(63.65246375 -11.29885556 -5.617127863e-18)
(64.06838074 -9.013586793 4.287785694e-18)
(58.73712653 -10.8254473 0)
(60.79459383 -11.45565999 0)
(68.43060265 -9.980015472 0)
(68.14454312 -11.18070027 0)
(66.74898401 -11.35384454 0)
(82.12589506 -7.488340679 -9.645053568e-19)
(82.21248427 -7.49200037 -9.453130292e-19)
(81.8584863 -7.50195125 -2.527719766e-18)
(81.55888777 -7.530343825 1.049925353e-18)
(81.91784875 -7.469961516 -9.467072719e-19)
(82.0287829 -7.482903723 1.902954675e-18)
(82.31671803 -7.6579034 1.899924368e-18)
(82.36626265 -7.70309928 -9.52512167e-19)
(82.20453719 -7.592165128 3.768972945e-18)
(82.26303921 -7.621912807 -2.840537026e-18)
(80.09996773 -7.727827172 1.797381431e-18)
(80.27465166 -7.675884115 1.801985276e-18)
(80.01393426 -7.797270498 -2.113490112e-18)
(79.46176587 -8.024513517 4.865059849e-21)
(79.70396765 -7.855267111 5.623298342e-21)
(79.91155848 -7.789576344 1.79617564e-18)
(81.25869312 -7.468602435 -1.84335644e-18)
(81.38915079 -7.454736949 3.679418866e-18)
(81.08177563 -7.51817367 0)
(80.69325873 -7.551007234 -2.099022338e-18)
(81.0023823 -7.481481747 3.662302113e-18)
(81.12740132 -7.474624117 -5.222384016e-21)
(85.26788938 -8.513970503 3.478245894e-21)
(84.60892163 -8.515583743 0)
(84.55920812 -8.497646056 -1.205591839e-21)
(84.74852973 -8.56268747 -8.524668518e-19)
(84.6720978 -8.541347513 8.492477828e-19)
(85.33503416 -8.536058618 0)
(84.99728034 -8.493645596 -6.932302494e-19)
(84.38442746 -8.531415693 0)
(84.31161098 -8.550187521 -3.966664272e-19)
(84.51477968 -8.492939049 1.693004412e-18)
(84.45979211 -8.506684247 0)
(85.07751118 -8.489337131 1.410961412e-18)
(85.76314535 -8.623138272 0)
(85.0832868 -8.592860962 1.707946511e-18)
(85.0517772 -8.57292912 -8.52654201e-19)
(85.16582135 -8.658876409 -2.571875393e-18)
(85.11950056 -8.622398606 -2.567341412e-18)
(85.80995098 -8.650310861 1.515056904e-18)
(85.55345846 -8.579408996 -1.465300809e-18)
(84.90703215 -8.574095326 8.470917521e-19)
(84.83017889 -8.572591615 -1.698755547e-18)
(85.01776054 -8.564399943 -2.400528915e-21)
(84.97073941 -8.567685677 -1.70078053e-18)
(85.61718145 -8.583866658 4.42609871e-18)
(82.99986619 -8.218984754 1.897092579e-18)
(83.11179729 -8.264201771 -2.833552611e-18)
(83.9563719 -8.111458984 -1.569722007e-18)
(83.6370415 -8.200800064 3.683027365e-21)
(83.52538752 -8.154586502 0)
(83.85922005 -8.282367068 1.666448628e-18)
(83.74863562 -8.24310791 0)
(84.0654014 -8.1563568 1.590659045e-18)
(82.76238887 -8.111674171 9.542090173e-19)
(82.88572289 -8.167583444 0)
(83.82663832 -8.487542958 -9.903460286e-19)
(83.90509951 -8.501765413 -2.281533731e-18)
(84.78251015 -8.418008351 3.867172839e-19)
(84.46739897 -8.4915846 1.703921697e-18)
(84.37005357 -8.4534334 -4.323013438e-19)
(84.2886589 -8.554258188 -1.466253736e-18)
(84.29899949 -8.532455527 -1.039431273e-17)
(84.81803936 -8.437139623 -1.450789209e-18)
(84.38822327 -8.273767245 -8.061916572e-19)
(84.07612948 -8.353198564 1.679151523e-18)
(83.96852528 -8.319069832 0)
(84.28399165 -8.418943143 -1.711394516e-18)
(84.1810879 -8.38637413 2.725596384e-21)
(84.49322416 -8.308734216 8.147874966e-19)
(83.64518526 -8.434754255 -9.446140257e-19)
(83.74531074 -8.461720046 1.895564158e-18)
(86.96734361 -9.350200789 0)
(87.44659869 -9.344010249 6.959641574e-19)
(87.49299788 -9.385303466 -2.093015763e-18)
(87.34388942 -9.250548871 -1.369882161e-18)
(87.39491552 -9.300370768 -6.877116445e-19)
(86.91104414 -9.309128179 0)
(86.05159693 -9.27092382 8.077882265e-19)
(86.12052256 -9.306647214 0)
(85.90164504 -9.001851057 0)
(85.90613963 -9.058945977 0)
(86.18014649 -9.375053558 0)
(85.83975865 -9.393997979 0)
(86.64574808 -9.466641685 -5.039807053e-18)
(87.47713305 -9.495118917 -6.290649219e-19)
(87.41813288 -9.540782283 1.507315235e-18)
(87.52208927 -9.425489156 1.389256539e-18)
(87.5457282 -9.477912003 6.661490698e-19)
(87.04091235 -9.466102208 -3.454157917e-21)
(85.80607641 -8.828977629 5.970511364e-19)
(85.12293993 -8.777407535 0)
(85.38715951 -8.772230294 0)
(85.71277037 -8.843557584 0)
(85.97641902 -8.740531147 -3.868304083e-18)
(85.282728 -8.716492113 1.717786757e-18)
(85.22318942 -8.691400779 0)
(85.36251132 -8.760571715 1.80787026e-18)
(85.33696757 -8.737239573 0)
(86.03133354 -8.76622884 -1.564251617e-18)
(85.85506073 -8.896030894 0)
(85.87669044 -8.910697612 1.584016439e-18)
(85.72389847 -8.855270157 0)
(85.76079005 -8.862982479 -8.670423256e-22)
(86.91455668 -9.923085442 0)
(87.87012502 -9.993488092 6.591992874e-19)
(87.90351698 -10.02654429 2.017982967e-21)
(87.78504826 -9.936538132 1.147497274e-21)
(87.83070166 -9.964036949 3.882405347e-21)
(86.87663513 -9.901751936 7.492066084e-19)
(86.96214797 -10.08839986 -1.548727817e-18)
(87.96824653 -10.18156631 -6.91209571e-19)
(87.9659055 -10.26315933 -7.050886262e-19)
(87.93028212 -10.06587785 6.732378503e-19)
(87.94989597 -10.1168667 1.365017293e-18)
(86.96275213 -10.02210556 -1.518071692e-18)
(99.62616474 1.034278867 -1.516878254e-20)
(99.54797685 1.393647531 7.140014641e-21)
(99.84813791 0.853855219 7.141670664e-21)
(99.5177027 1.529723882 -2.137263271e-20)
(99.46386189 1.982530831 -6.552631395e-21)
(99.82498286 1.195499006 -3.884379258e-22)
(99.44686872 2.14401278 -6.465495159e-21)
(99.46538412 2.633956432 0)
(99.83186136 1.571396547 4.847614122e-21)
(99.47534828 2.794489564 -1.172102316e-19)
(99.59096152 3.23567495 0)
(99.88668938 1.903114349 -1.775383658e-21)
(99.63255828 3.358792769 -1.119315375e-19)
(99.12081694 1.448629083 -1.623176743e-20)
(98.91273591 2.000566335 -1.574467738e-20)
(99.41434964 1.55958568 0)
(98.84698572 2.211879242 -3.853314821e-21)
(98.69623899 2.92047323 -5.717950135e-20)
(99.3024862 2.233061878 2.642310955e-20)
(98.66321957 3.182502156 -1.724572352e-19)
(98.65077303 4.027868573 -1.988945444e-19)
(99.30071574 2.984559071 0)
(98.68134104 4.318888619 4.489402531e-20)
(98.92223208 5.155718802 1.86290486e-20)
(99.45977157 3.695664396 0)
(99.05315292 5.399877704 -7.129604899e-21)
(98.42738026 1.660870105 5.35671783e-19)
(98.03842361 2.36183734 0)
(98.71346721 2.120529244 1.570865957e-20)
(97.91064523 2.639613854 -4.97304542e-19)
(97.55768012 3.629467596 -2.002828764e-20)
(98.4485933 3.124926226 2.448654295e-19)
(97.46061588 4.015091884 -2.15754654e-20)
(97.29772694 5.338256925 5.444504593e-19)
(98.37198276 4.369533525 9.863555682e-20)
(97.3080697 5.826779061 -2.363606388e-19)
(97.65397975 7.345817082 0)
(98.67899489 5.675126159 1.523855943e-19)
(97.90073154 7.827051909 2.906546292e-19)
(97.64351295 1.562711566 0)
(96.99465701 2.326531582 3.450740712e-19)
(97.79065864 2.392207163 5.613481851e-19)
(96.76348051 2.644362818 2.86058445e-19)
(96.03505122 3.853296952 1.228342706e-18)
(97.21033951 3.748757505 1.145838291e-18)
(95.79039654 4.35972848 6.408060653e-19)
(95.14923579 6.246833308 -1.089755201e-18)
(96.84548279 5.625753688 -1.657032589e-20)
(95.0038006 7.015232738 -2.876642623e-19)
(95.0943695 9.762126968 5.3005188e-19)
(97.17624265 7.938611249 -3.637335029e-19)
(95.41860497 10.77213711 -1.273141586e-18)
(96.89714935 1.102921316 -1.681953745e-19)
(95.93296251 1.810255723 -1.450209815e-18)
(96.72086259 2.248215344 3.342785735e-20)
(95.56680028 2.113680803 7.418762564e-19)
(94.29646559 3.30174867 0)
(95.60609853 3.793632393 -6.767468214e-19)
(93.80543546 3.817690113 -3.846459343e-19)
(92.11540735 5.917943307 0)
(94.46212065 6.316667548 -8.297301137e-20)
(91.49592599 6.890164958 -8.15469219e-19)
(89.78241686 11.33897979 0)
(94.10081288 10.32884823 5.315230064e-19)
(89.52758816 13.61427168 -8.065772246e-19)
(96.34319482 0.2995303196 1.247890242e-18)
(95.11184195 0.775122632 -7.659928267e-19)
(95.69341429 1.596777999 -2.888209938e-20)
(94.62806284 0.9825167661 8.27601133e-19)
(92.86080754 1.782966043 0)
(93.88322747 3.010935518 0)
(92.12956375 2.123568293 0)
(89.25232478 3.469756746 3.690377392e-20)
(91.30315396 5.529458584 -1.711464807e-18)
(87.95381371 4.067094693 0)
(80.94499965 6.638040333 -2.462235167e-18)
(87.84377405 11.10697655 1.717715032e-18)
(83.833314 11.93070229 0)
(81.67272826 18.16140442 -4.038710095e-19)
(88.00046832 17.63473445 -1.41586354e-19)
(96.11900862 -0.7323968107 -1.2891462e-18)
(94.75687258 -0.5921601518 -1.396876541e-20)
(94.97307575 0.4532492432 -4.029101348e-19)
(94.22487692 -0.5277985547 4.21759194e-19)
(92.30147884 -0.322695417 -9.086823063e-19)
(92.62397087 1.284118722 0)
(91.51565013 -0.2631129034 0)
(88.52148637 -0.2419534384 0)
(88.82648519 2.548517035 9.536150531e-19)
(87.18638673 1.798233 -1.012173093e-18)
(85.5441299 1.996493669 -1.067887835e-18)
(85.81180168 3.388061078 -2.686277471e-18)
(78.53504277 3.952820046 0)
(76.52867565 3.976679851 3.524353856e-18)
(76.66024038 5.968903655 0)
(96.28474053 -1.820240199 -1.38866214e-18)
(94.96033684 -1.990960469 1.668278785e-18)
(94.75651344 -0.9507186795 3.330251548e-18)
(94.4527984 -2.052458233 -1.734878202e-18)
(92.67673337 -2.316502273 0)
(92.32149009 -0.847809499 9.131236172e-19)
(91.98297511 -2.453161067 5.867945163e-20)
(89.52990271 -3.139601376 -1.921236071e-18)
(88.67585373 -1.072671728 1.02800816e-18)
(87.80968633 -2.12504922 3.041971076e-18)
(86.63946234 -2.513016712 2.402325898e-18)
(86.19014721 -1.606206461 4.259140889e-20)
(82.55624701 -3.919834192 -1.139426126e-18)