/*--------------------------------*- C++ -*----------------------------------*\
| =========                 |                                                 |
| \\      /  F ield         | OpenFOAM: The Open Source CFD Toolbox           |
|  \\    /   O peration     | Version:  v2012                                 |
|   \\  /    A nd           | Website:  www.openfoam.com                      |
|    \\/     M anipulation  |                                                 |
\*---------------------------------------------------------------------------*/
FoamFile
{
    version     2.0;
    format      ascii;
    class       surfaceVectorField;
    location    "2";
    object      Uf;
}
// * * * * * * * * * * * * * * * * * * * * * * * * * * * * * * * * * * * * * //

dimensions      [0 1 -1 0 0 0 0];


internalField   nonuniform List<vector> 
5999
(
(99.99809525 0.008112739758 -2.267242794e-21)
(99.99240225 0.007350076236 6.721081949e-21)
(99.99715868 0.01932236965 -2.234646625e-21)
(99.98950668 0.02475747918 2.280740644e-21)
(99.99532472 0.03752966173 -4.453710132e-21)
(99.98295961 0.05190810514 1.347285504e-20)
(99.99790459 0.04239971624 1.373056302e-21)
(99.97140104 0.09503034935 -8.822400341e-21)
(99.98784833 0.09379130377 -1.479282588e-21)
(99.9968851 0.0766835321 2.139414703e-21)
(99.99893303 0.04572312365 1.053034748e-21)
(99.98587732 0.1266254087 2.122636579e-21)
(99.99678089 0.07163948432 1.034226977e-21)
(99.99761378 0.05653578273 -1.073751885e-21)
(99.99604592 0.09044070281 1.034184736e-21)
(99.97847882 0.2030230713 2.055112562e-21)
(99.99571853 0.1134537975 0)
(99.9955245 0.1385202847 -3.717251801e-21)
(99.97246968 0.3054341484 -3.717232455e-21)
(99.99496541 0.1679658144 -9.626933748e-22)
(99.99437228 0.2013149597 3.237748616e-21)
(99.96551435 0.4387997421 3.503298714e-21)
(99.9938707 0.2382338999 4.312053824e-22)
(99.99354561 0.2778305945 -2.777705278e-21)
(99.96172488 0.5967026186 3.985596655e-22)
(99.99348261 0.3187815789 -2.765480012e-21)
(99.99378131 0.3591988616 4.11962799e-22)
(99.96485937 0.7575965392 -1.817366807e-21)
(99.99417139 0.3967847248 2.512008085e-21)
(99.99468301 0.4293073083 2.074038175e-21)
(99.97703874 0.8842105342 -9.007472183e-22)
(99.996037 0.4539293644 0)
(99.98223378 0.02269632194 1.121664261e-20)
(99.97106995 0.01222823691 3.33363988e-22)
(99.97291071 0.05452659635 1.788614916e-20)
(99.95966691 0.04191479409 -1.570213429e-20)
(99.9554649 0.1058400891 9.334416481e-21)
(99.93493527 0.08959712748 -2.428356714e-20)
(99.94707659 0.1674232055 -1.588445517e-21)
(99.89309651 0.1666928833 4.676597484e-20)
(99.91001602 0.2117453899 -1.028909632e-20)
(99.9216845 0.2148338975 -2.210337421e-21)
(99.94033604 0.2118110858 4.337706908e-21)
(99.96322462 0.1505026136 2.155678975e-21)
(99.9427173 0.248315722 2.095400247e-21)
(99.92368561 0.2726449781 2.138795744e-21)
(99.87194558 0.3601248921 -4.329249282e-21)
(99.90525138 0.3482974446 -2.64393988e-23)
(99.91317324 0.3968424914 2.055435087e-21)
(99.88393489 0.4408450919 -2.27620064e-23)
(99.81010977 0.5762568377 0)
(99.87320283 0.5132172181 0)
(99.83927936 0.5888574733 -2.556313207e-21)
(99.8835137 0.5863038696 -5.013031958e-21)
(99.86762384 0.6197483492 -7.409385494e-23)
(99.83065315 0.7163093977 -1.127486001e-20)
(99.85793918 0.6761805082 -3.87571058e-21)
(99.82761293 0.9020714955 3.071748234e-23)
(99.85240837 0.8485169737 -2.52497196e-21)
(99.78195069 1.042892841 -1.376164852e-20)
(99.82058935 0.9772972656 -3.357465202e-21)
(99.80145743 1.250926491 -6.151502182e-21)
(99.83528773 1.165403805 -5.821704864e-21)
(99.75257162 1.441334816 7.164468651e-22)
(99.80065872 1.339216045 -7.369707302e-21)
(99.8076718 1.623608516 -1.702782216e-23)
(99.84862455 1.495349014 -4.692329684e-21)
(99.76591719 1.859559388 -4.928362111e-21)
(99.81833605 1.711843707 -3.509820379e-21)
(99.86175004 1.938156265 -3.777992486e-21)
(99.90376614 1.762518733 -5.878498914e-21)
(99.83709328 2.205344428 6.720789282e-21)
(99.88395885 2.009160495 -6.399667791e-22)
(99.95194702 0.02998726686 -2.694077304e-20)
(99.94275626 0.01230051179 -1.346515796e-20)
(99.92615914 0.07386111821 -5.828730467e-20)
(99.9183351 0.04411675773 1.236514617e-20)
(99.87911737 0.146831406 1.185310585e-20)
(99.86642596 0.1002995976 -4.933716418e-20)
(99.83074287 0.2534842957 2.976670255e-20)
(99.78171133 0.1944708936 5.360878187e-20)
(99.7728646 0.2783814808 -4.715964421e-20)
(99.8559933 0.2689937147 -8.849792014e-21)
(99.77775084 0.3069380559 -6.557063867e-20)
(99.79806713 0.3371715104 -4.43087602e-21)
(99.7755049 0.4566467431 -8.624354771e-21)
(99.74805534 0.4420794512 -4.297166792e-21)
(99.65548308 0.5327323183 3.016762777e-20)
(99.69028736 0.5706093692 8.457969979e-21)
(99.66874405 0.7385914296 -7.454243489e-21)
(99.624155 0.727387106 5.51759773e-21)
(99.49111595 0.875508064 -4.248244307e-20)
(99.58672813 0.8843058247 2.973699669e-21)
(99.51895849 0.950365337 -1.848387254e-20)
(99.57261407 1.092831281 -7.584820069e-21)
(99.53758264 1.093079267 0)
(99.45945008 1.205818469 7.870861683e-21)
(99.50238562 1.214023735 -7.547055205e-21)
(99.44780547 1.622287067 3.66589755e-21)
(99.39621751 1.637550591 1.435831766e-20)
(99.29899848 1.803386128 7.109075084e-21)
(99.3641197 1.796611277 1.782488593e-20)
(99.36594641 2.280465856 -9.281456896e-21)
(99.2938941 2.325241532 7.168446377e-21)
(99.19395667 2.549180451 -5.945801098e-20)
(99.28479037 2.509357281 1.997096846e-20)
(99.39666388 2.98426466 1.926338942e-21)
(99.30935001 3.079561472 6.0078411e-20)
(99.22707028 3.363484349 1.854882588e-20)
(99.33745655 3.264058672 2.064956675e-20)
(99.57749569 3.60103244 -4.908820907e-20)
(99.49082239 3.770645415 6.749247603e-21)
(99.45707663 4.092654293 3.302634141e-20)
(99.56652392 3.905625719 4.933841318e-20)
(99.91557491 0.02531695891 2.705170467e-20)
(99.91889904 0.005687211022 -4.515738412e-21)
(99.86653924 0.06792035021 2.278741103e-20)
(99.87819677 0.02527068014 3.16011188e-20)
(99.77858719 0.1469472117 -9.050305615e-21)
(99.79199773 0.07376733894 -4.466302737e-21)
(99.66702147 0.2866581862 0)
(99.65204617 0.1630662202 6.908810192e-21)
(99.59862575 0.2833509823 2.100137897e-20)
(99.6855934 0.32808658 -6.126629523e-20)
(99.58553306 0.3288939255 1.57896647e-20)
(99.59364947 0.3931444733 0)
(99.51537872 0.5835973612 2.546846467e-22)
(99.49531371 0.5270132277 -3.476909157e-20)
(99.35909302 0.6054019419 -3.474570143e-20)
(99.37912389 0.6940738182 7.045675897e-20)
(99.28107733 0.9791168534 -1.045989979e-19)
(99.24369608 0.9001547175 3.896823915e-20)
(99.04618812 1.038081323 -6.999909581e-20)
(99.13760235 1.142641986 -3.484448204e-20)
(99.0426562 1.164966003 -5.723177144e-20)
(99.04183764 1.487040873 8.245370243e-21)
(99.00316637 1.441795023 1.637245459e-20)
(98.87827257 1.556959363 4.145759666e-20)
(98.92157161 1.616649804 8.176875696e-21)
(98.74159233 2.279775477 -1.921186235e-21)
(98.67503057 2.233588894 7.850438216e-21)
(98.52313859 2.406238645 -1.326134918e-19)
(98.60155906 2.46825449 0)
(98.53377441 3.299872688 1.559537136e-20)
(98.42667933 3.270425657 2.234833028e-19)
(98.26166211 3.526354846 -3.274533521e-20)
(98.39035306 3.569168516 1.051127064e-19)
(98.54281829 4.511056471 2.240920278e-20)
(98.38765892 4.535784228 4.932343313e-20)
(98.24502559 4.893581207 5.303939868e-20)
(98.43367658 4.868900926 2.169896546e-20)
(98.94589061 5.681800229 -3.56384398e-21)
(98.75777421 5.820001277 7.622036418e-20)
(98.70915384 6.258910134 0)
(98.93388673 6.092171356 -5.358957188e-20)
(99.88842493 0.005265921174 0)
(99.91395437 -0.00862331978 0)
(99.81234902 0.02936102078 4.571355326e-21)
(99.85554638 -0.01794480682 0)
(99.67572088 0.09224478243 1.162474238e-20)
(99.73282173 0.003041385643 -3.701149598e-21)
(99.48647797 0.2457490696 1.929818293e-20)
(99.5281293 0.06460266758 2.557002464e-20)
(99.4205676 0.20235885 -7.706687346e-21)
(99.48532522 0.3076370573 2.718916713e-20)
(99.38206322 0.2626207085 2.190202668e-21)
(99.36042303 0.3559477945 -1.106650769e-20)
(99.19266476 0.5938595358 0)
(99.19785778 0.4984721113 -2.282990223e-20)
(99.02261273 0.5451342938 -1.876911374e-20)
(99.00449476 0.6800796885 4.659084644e-21)
(98.78847857 1.04532131 0)
(98.77849264 0.9105506059 4.658585827e-21)
(98.51819357 0.9986589929 -4.819256893e-21)
(98.56392088 1.204121513 2.325798609e-20)
(98.45557329 1.193561262 6.023471216e-21)
(98.33025691 1.664343022 2.317819342e-19)
(98.30611608 1.567995518 -3.478396063e-20)
(98.13488854 1.661556106 1.376480715e-21)
(98.16211127 1.775446454 -4.446206881e-19)
(97.77507343 2.663876911 3.267752216e-20)
(97.71428524 2.540874776 5.629083865e-19)
(97.49836156 2.694847444 2.839809458e-19)
(97.56437678 2.849619488 5.747556023e-19)
(97.27332788 4.090691589 2.659262554e-19)
(97.14830997 3.956799531 8.49172983e-19)
(96.88420885 4.224841194 5.737349936e-19)
(97.03304716 4.391239129 2.764907933e-19)
(97.0727449 6.00170364 -1.814894257e-19)
(96.84052793 5.899476784 -7.151112311e-20)
(96.56797399 6.339265338 4.020170211e-19)
(96.85742912 6.463031311 4.806371255e-20)
(97.67952422 8.169825483 3.261980118e-19)
(97.31425704 8.225204765 -2.1271224e-21)
(97.18374445 8.87336621 3.756361824e-19)
(97.6385781 8.779844927 3.039484581e-20)
(99.88767066 -0.03156868866 0)
(99.94375779 -0.03068677599 2.238728248e-21)
(99.78436971 -0.04487155662 -9.154629248e-21)
(99.86818738 -0.08550944647 -2.256446531e-21)
(99.59749022 -0.02244120314 9.515004598e-21)
(99.71185251 -0.113145152 -4.544751686e-21)
(99.32145355 0.09659712623 1.24478915e-20)
(99.4482582 -0.1036925524 3.795552509e-21)
(99.2665134 0.02897760831 -3.560423024e-23)
(99.29267272 0.191514066 -9.236023133e-21)
(99.19257304 0.09637135351 -9.350648484e-21)
(99.13599288 0.2030068667 0)
(98.85621991 0.4567436543 -1.876865041e-20)
(98.90309978 0.3309997095 0)
(98.70082821 0.3285281879 -1.272708471e-22)
(98.62355139 0.4970073114 -8.996304205e-23)
(98.24471404 0.8944458027 9.70385909e-21)
(98.29141151 0.7129436802 1.455725507e-20)
(97.98445744 0.7299101143 1.965112318e-20)
(97.95557967 1.025533338 -2.858253206e-20)
(97.85479502 0.9560054718 9.108405123e-21)
(97.54556501 1.522090307 7.830901856e-20)
(97.55777249 1.383202826 7.851013159e-20)
(97.35243191 1.430006196 3.856218065e-20)
(97.33306721 1.594527882 -8.226010848e-20)
(96.60591423 2.607180071 7.975863709e-19)
(96.58813473 2.409019805 6.81588343e-19)
(96.30319005 2.514146756 6.633969766e-19)
(96.3191471 2.751411397 1.003316296e-18)
(95.54810079 4.336980812 3.274712903e-19)
(95.46020462 4.078444684 -2.91396921e-19)
(95.0643093 4.266104183 3.662608354e-19)
(95.16536005 4.618258861 7.376095733e-21)
(94.62088159 7.089660842 -7.667421711e-19)
(94.34886738 6.737123024 -6.672522301e-19)
(93.81379754 7.189405926 -1.30166106e-18)
(94.15509433 7.632351788 5.820982563e-19)
(94.91963215 11.16787888 -1.165133106e-18)
(94.2493552 10.93844541 -2.320290744e-19)
(93.7773819 11.9529034 5.858779851e-19)
(94.68632634 12.18653023 -1.398882076e-18)
(99.93006353 -0.0838110436 -1.700472815e-23)
(100.0228332 -0.05954123095 8.89749842e-23)
(99.80281803 -0.1525660185 2.34997238e-21)
(99.93311519 -0.1740331294 -1.084387654e-22)
(99.57185549 -0.1923647101 -1.230709227e-20)
(99.74956726 -0.2683855757 1.873822024e-21)
(99.20769148 -0.1298146899 -1.114247156e-20)
(99.43749136 -0.3342740169 -1.867567338e-20)
(99.18238058 -0.231353747 -1.594557317e-20)
(99.13569994 -0.02559494028 -8.70551745e-21)
(99.07026685 -0.1685312027 -3.483979939e-21)
(98.96358861 -0.06029080478 3.85098149e-23)
(98.56551713 0.1617945721 1.418922893e-20)
(98.66687878 0.02215259369 1.446332394e-20)
(98.45770105 -0.04071520276 7.141779766e-21)
(98.30950134 0.1365039767 2.465598962e-20)
(97.75805282 0.5038270078 -2.479510699e-20)
(97.88464614 0.289881735 -1.997765281e-20)
(97.57356125 0.2197880927 -2.474066898e-20)
(97.42711553 0.54121749 5.99350424e-20)
(97.35040578 0.4348819988 -4.708356051e-20)
(96.81546675 1.017251959 -8.406876085e-20)
(96.88333925 0.8497133742 -4.067667919e-20)
(96.6598288 0.8363529419 0)
(96.57244325 1.028308115 0)
(95.42883264 1.998602444 1.138625428e-18)
(95.49275566 1.740384027 7.546595901e-19)
(95.16706431 1.750447784 1.171380777e-18)
(95.07747661 2.048310244 -3.993800081e-19)
(93.56537928 3.661106003 -1.014103512e-18)
(93.60554239 3.256040009 -8.209724176e-19)
(93.09942595 3.309538953 -4.157983575e-19)
(93.02156524 3.784657539 -8.966796073e-21)
(90.98996199 6.686888593 3.917548846e-19)
(90.90592787 6.000801935 -6.423006189e-20)
(90.0101949 6.180184755 3.360072414e-19)
(90.07164556 7.069678872 1.22438074e-18)
(88.28003893 13.61305366 -8.834484124e-19)
(87.44429065 12.34271306 4.319763712e-19)
(85.50359964 13.91329962 -6.198757218e-19)
(85.74272607 13.02239624 -2.980937008e-19)
(87.38347481 15.24241619 -2.942524967e-19)
(86.31280562 15.30270288 -2.972253118e-19)
(100.0301764 -0.1485027756 1.78158169e-23)
(100.162922 -0.09327388564 -3.317722999e-21)
(99.88516697 -0.2869089984 -6.095607269e-22)
(100.0637023 -0.2775017764 1.445591695e-21)
(99.62203895 -0.4070844004 -4.776686977e-21)
(99.86301003 -0.4510498445 -3.144215783e-21)
(99.18631837 -0.4313856893 9.870491117e-21)
(99.52044225 -0.6079537554 -1.087676402e-21)
(99.20040451 -0.5584188788 1.032799457e-21)
(99.06412394 -0.3332189527 4.834275071e-21)
(99.05244345 -0.5105065353 1.000042342e-20)
(98.89476861 -0.4188680224 7.059263412e-21)
(98.38613781 -0.2726104128 -2.409073709e-21)
(98.54944151 -0.4050785524 3.741354236e-21)
(98.35576813 -0.5283769038 2.471365594e-21)
(98.13737872 -0.3726854353 7.490574462e-21)
(97.44249826 -0.1125424274 3.997941633e-21)
(97.65320899 -0.3206771994 1.300684493e-21)
(97.37244084 -0.48114021 -4.590117653e-20)
(97.09591023 -0.1705827182 -7.750027843e-21)
(97.0630423 -0.317242449 -5.109038281e-19)
(96.2974496 0.1775638424 5.833826242e-19)
(96.43186893 0.009399830315 -8.482250689e-20)
(96.21744189 -0.0721678835 -1.501357764e-18)
(96.05456422 0.1126032462 5.190511655e-20)
(94.5483722 0.8049575911 -1.957210518e-19)
(94.72071053 0.5403755187 -8.148394893e-19)
(94.40839207 0.4386930063 -6.104082643e-19)
(94.19283267 0.7251358341 -1.884141081e-19)
(91.99263353 1.839093928 0)
(92.24289887 1.420242158 0)
(91.75995131 1.254589449 4.54960721e-19)
(91.42610337 1.704981671 0)
(87.69791929 3.509294886 0)
(88.1452603 2.756171313 4.80714633e-19)
(87.32334613 2.375641043 -5.061912654e-19)
(86.6354196 3.178003577 -1.338127714e-18)
(78.97635742 6.446819518 -2.460421587e-20)
(79.60102495 5.446986287 -1.288269906e-18)
(78.63333835 4.780136768 -2.536654468e-18)
(77.69136808 5.833804231 -2.551084506e-18)
(100.1986279 -0.2208202858 -1.889905106e-21)
(100.371224 -0.1293196631 1.047791687e-21)
(100.0441214 -0.4375510415 -1.102913656e-21)
(100.2681777 -0.387992298 -7.738832509e-22)
(99.76453273 -0.6485767761 5.648965441e-22)
(100.0621214 -0.646191855 -2.781618247e-22)
(99.28122727 -0.778629714 6.464705922e-22)
(99.71010516 -0.9014438186 9.367799503e-22)
(99.34090412 -0.9204918396 5.620961303e-22)
(99.10891805 -0.7023419167 1.639955574e-21)
(99.16367297 -0.8976019298 -1.647411076e-23)
(98.95996343 -0.8365508398 -1.647645389e-23)
(98.37132472 -0.8013263575 -2.463942571e-21)
(98.59153123 -0.9060371207 0)
(98.43472825 -1.083814678 -1.207971038e-21)
(98.15870504 -0.973073151 -1.285370824e-21)
(97.36797492 -0.8733562667 1.309490435e-21)
(97.65426476 -1.04054855 4.479655969e-20)
(97.43156167 -1.275442262 4.528544903e-21)
(97.04049466 -1.021855632 4.892178824e-19)
(97.06094007 -1.189297736 -1.270208952e-20)
(96.12528497 -0.8709543363 -6.441879056e-19)
(96.31641068 -1.010829359 3.520215977e-19)
(96.14218777 -1.146599045 0)
(95.91032979 -1.002689592 1.974126591e-19)
(94.23658781 -0.7232135348 6.471150486e-19)
(94.4903078 -0.9329923376 2.098542547e-18)
(94.2562014 -1.113255222 6.489091195e-19)
(93.93624983 -0.9023788146 8.865100086e-19)
(91.53816049 -0.5569043416 0)
(91.94019695 -0.8467183173 4.597382372e-19)
(91.6043218 -1.132381335 -1.547451642e-20)
(91.12931153 -0.8634423137 6.071487552e-19)
(87.37699825 -0.8276168519 -1.528578627e-18)
(88.08781836 -1.180543887 -9.965654991e-19)
(87.65546637 -1.710211735 1.451504049e-20)
(86.84002134 -1.452678642 -1.509294227e-18)
(81.68492276 -3.134160798 1.503991766e-20)
(82.3540755 -3.155121818 -2.567789128e-20)
(82.27173895 -3.673442354 -1.164394214e-18)
(81.6553956 -3.765133554 1.067425712e-18)
(100.4405458 -0.2950560698 2.158587221e-21)
(100.6495568 -0.1649201545 1.055300495e-21)
(100.2856261 -0.5920711768 3.311841116e-23)
(100.5483656 -0.496912132 1.120464196e-21)
(100.006637 -0.8957989062 1.08988756e-22)
(100.3486595 -0.8377245537 1.028909934e-21)
(99.50449619 -1.1402612 -1.598196074e-21)
(100.0084196 -1.189761543 -9.082108966e-22)
(99.60949649 -1.283702642 7.339851963e-22)
(99.28803717 -1.098056166 -1.130689289e-21)
(99.41251512 -1.292689569 -5.712502346e-22)
(99.17402176 -1.272129608 -1.130618131e-21)
(98.54607162 -1.367531118 5.388015101e-24)
(98.80990507 -1.426947441 1.207915562e-21)
(98.70366952 -1.645198497 1.207926267e-21)
(98.38919458 -1.593923241 1.207903874e-21)
(97.56044629 -1.674605297 -2.216874062e-21)
(97.9018499 -1.776942268 3.895943418e-20)
(97.75078834 -2.060538475 4.141575759e-20)
(97.28263223 -1.893064658 4.002987025e-20)
(97.35248757 -2.056937578 2.537298022e-20)
(96.33315539 -1.951129564 1.006958931e-19)
(96.56728292 -2.04111752 8.457804307e-19)
(96.43965245 -2.208236874 7.458932013e-19)
(96.17654418 -2.120875589 -9.220149516e-20)
(94.51977066 -2.229216063 -2.208629628e-19)
(94.83287039 -2.361811465 1.78354568e-20)
(94.66714654 -2.574085327 -2.236055537e-19)
(94.32058035 -2.454063827 6.478278667e-19)
(92.09478802 -2.688361974 4.981843756e-19)
(92.5394364 -2.838474842 2.353259592e-19)
(92.33040295 -3.141985237 6.148768255e-21)
(91.84954067 -3.025666301 1.651404748e-20)
(88.79841903 -3.79823137 0)
(89.45040613 -3.892264971 -4.583361948e-19)
(89.22128547 -4.345167239 0)
(88.56282558 -4.319942588 1.239537884e-19)
(85.430349 -6.015448664 1.997316818e-18)
(85.80325387 -5.952101564 2.325673266e-20)
(85.78444289 -6.250465071 1.360453812e-18)
(85.36916734 -6.278246093 1.552974916e-18)
(85.49012234 -6.358544369 -1.248657891e-19)
(100.755 -0.3655988345 9.321594132e-24)
(100.9944564 -0.1975398454 2.782329979e-21)
(100.6079748 -0.7384123826 2.084793726e-21)
(100.9001137 -0.596240957 1.056400271e-21)
(100.3461037 -1.127667149 6.419929906e-23)
(100.7159763 -1.009953881 -6.790922481e-23)
(99.85191139 -1.484929625 -2.128696086e-21)
(100.409413 -1.453883962 -9.654438998e-22)
(99.99613328 -1.620264523 -5.112896367e-22)
(99.60085865 -1.483862683 -5.548424858e-22)
(99.78960826 -1.661812033 -1.106529995e-21)
(99.53070724 -1.684959772 9.749740105e-23)
(98.90431076 -1.910325268 0)
(99.19436038 -1.91657353 1.113371983e-21)
(99.1442916 -2.157558822 2.208620604e-21)
(98.81139175 -2.170918242 1.203110727e-21)
(97.99686041 -2.424647282 1.324712932e-21)
(98.36923229 -2.452571768 -4.916500879e-23)
(98.29250586 -2.759611267 3.66010686e-21)
(97.78415244 -2.687297488 1.355457422e-20)
(97.89390393 -2.83377897 -6.85146565e-20)
(96.87044289 -2.925574364 9.890653431e-20)
(97.12326529 -2.965051424 -7.841605048e-19)
(97.04626004 -3.143328429 2.556629395e-19)
(96.76976524 -3.111216471 -2.090082052e-18)
(95.24639437 -3.509023614 3.824591617e-19)
(95.57421785 -3.569652955 1.032115665e-18)
(95.4773048 -3.785389079 4.032057669e-19)
(95.12728172 -3.740376413 2.088957463e-18)
(93.17420315 -4.320602125 -4.597134734e-19)
(93.60957751 -4.369769418 0)
(93.48959031 -4.657936672 -3.2715156e-21)
(93.03503898 -4.636170488 2.148160578e-19)
(90.50966057 -5.690219193 1.723393977e-18)
(91.08023174 -5.676486713 8.277230906e-19)
(90.93942417 -6.066148555 2.018002626e-21)
(90.37118943 -6.112333491 8.373870001e-19)
(87.92226967 -7.553457682 -8.409217106e-19)
(88.20479704 -7.492496119 -8.414110225e-19)
(88.18355932 -7.710464625 -1.569959891e-21)
(87.87371243 -7.73311111 3.848193832e-19)
(87.96123161 -7.787520954 -1.973371125e-18)
(101.1356208 -0.4273290099 3.830275935e-21)
(101.003076 -0.8659841368 -1.026892429e-21)
(100.7698849 -1.326853387 -1.026858946e-21)
(100.3019625 -1.789056885 0)
(100.0287896 -1.829346093 7.671715347e-24)
(100.0065635 -2.040222762 2.097533202e-21)
(99.41858942 -2.382365311 -1.115680457e-21)
(99.71776073 -2.334650796 -1.210506974e-21)
(99.38996238 -2.65724161 1.189720136e-21)
(98.63089972 -3.060248768 3.753579414e-21)
(99.01174344 -3.014101239 3.305203006e-21)
(98.48737782 -3.343644074 -4.235151798e-19)
(98.62553151 -3.464037821 -7.354066871e-22)
(97.65242763 -3.72136688 -7.662048857e-19)
(97.9079466 -3.713787067 -2.240346518e-19)
(97.87672066 -3.888706568 -1.328029409e-19)
(97.60318757 -3.904798717 -3.742245717e-19)
(96.25746154 -4.504249643 3.301408755e-21)
(96.58127536 -4.50406891 -1.932619499e-19)
(96.54210949 -4.706777755 -7.777380187e-19)
(96.20315373 -4.723211605 -3.904471937e-19)
(94.51204627 -5.522052053 1.968957157e-20)
(94.92809188 -5.497901868 -1.926591591e-19)
(94.87566133 -5.763431744 3.863993397e-19)
(94.44563614 -5.810715641 2.095537009e-19)
(92.24694449 -7.047823101 1.521421196e-18)
(92.7784279 -6.970704516 3.553419368e-19)
(92.69989201 -7.333986728 9.271501152e-20)
(92.15513816 -7.431602784 1.604514719e-18)
(89.89219026 -8.858148937 -9.623858581e-20)
(90.15305047 -8.817431846 -1.118878793e-18)
(90.14123116 -9.032575657 3.677790777e-19)
(89.83482603 -9.03891488 1.289758109e-18)
(89.91728224 -9.1087485 -8.579726635e-19)
(81.8025454 -2.559980357 6.108097444e-19)
(80.98594338 -3.199571386 -1.21813363e-18)
(81.06855195 -2.488917089 6.108999875e-19)
(85.45040798 -5.7028967 -9.872303252e-19)
(85.06048318 -5.763100633 -4.969245871e-19)
(84.99896304 -6.043358524 3.446386401e-19)
(85.12529483 -6.129098943 3.446077215e-19)
(87.9421253 -7.328423349 -8.658849481e-19)
(87.6519561 -7.39327725 8.82531552e-19)
(87.60472232 -7.579320705 1.9222411e-18)
(87.69573583 -7.632257781 -9.589858667e-19)
(89.90774166 -8.646046249 2.673091539e-19)
(89.64744844 -8.685587403 7.815983178e-19)
(89.58923234 -8.86348754 -5.022158676e-19)
(89.67016745 -8.932317258 -9.271075904e-19)
(80.09771636 6.961001576 1.292862281e-18)
(78.26467112 7.707504221 1.12210295e-18)
(79.66462805 8.040131382 3.708865726e-18)
(89.06339993 -3.324208949 -9.710507187e-19)
(88.1047345 -3.738507921 0)
(88.38788413 -3.184798422 -9.948205684e-19)
(85.82232509 -5.643045372 -2.967023512e-18)
(85.47037037 -5.376707298 -4.997109446e-19)
(85.87065141 -5.339334546 -1.506732615e-18)
(82.47770719 -2.571631293 5.696964497e-19)
(83.09874278 -2.650172001 -7.437179676e-22)
(82.96573421 -3.134404857 1.138059566e-18)
(90.66704094 -5.288765541 8.759196259e-19)
(89.92615975 -5.724408422 8.863595494e-19)
(90.07987997 -5.282652798 -5.04378293e-22)
(88.22398233 -7.2746581 -8.663454359e-19)
(87.95969312 -7.102785645 -4.34209298e-19)
(88.25903658 -7.057866734 -7.45916867e-21)
(86.20528449 -5.602918765 -5.023800761e-19)
(86.16078678 -5.89130225 -4.948045211e-19)
(86.7719501 -6.870159689 -2.028435003e-19)
(86.78713802 -6.60891581 -2.17236286e-19)
(86.45446777 -6.676486777 -1.624746285e-18)
(86.40257638 -6.904787844 -1.186711414e-18)
(86.51260873 -6.966966479 3.811763348e-19)
(85.78208421 -7.979459299 -9.355031954e-19)
(85.62703766 -8.040910116 1.22796935e-18)
(85.60358128 -7.9130747 -1.053621006e-19)
(85.77801643 -7.851500541 3.072399429e-19)
(85.566208 -8.025628178 -7.052944838e-20)
(84.2571166 -7.275704193 9.036952753e-19)
(84.20267266 -7.403725934 0)
(84.45381928 -7.228488563 0)
(84.44946392 -7.380475635 1.108738896e-19)
(84.2665013 -7.445490563 0)
(92.34312659 -6.680856126 1.166125561e-18)
(91.70047257 -7.129741626 -8.907829661e-19)
(91.80520254 -6.74222628 -2.992574093e-21)
(90.16841622 -8.607399927 -7.556031554e-19)
(89.92612198 -8.438881961 1.126201087e-18)
(90.19742896 -8.397246006 -1.060421059e-20)
(88.51590948 -7.230754905 8.320585085e-19)
(88.47983971 -7.442792617 0)
(88.92643131 -8.184396036 -7.923950932e-19)
(88.94966105 -7.978111619 4.004712917e-19)
(88.68414352 -8.024274724 1.028087199e-19)
(88.62947861 -8.1953954 0)
(88.70926392 -8.257483471 0)
(87.81181068 -8.95107517 -8.857265382e-19)
(87.71630479 -8.951667192 -8.911557527e-19)
(87.76548886 -8.913702661 -8.868970551e-19)
(87.84969055 -8.909127685 -2.983382381e-19)
(86.97823393 -8.433623617 4.014508192e-19)
(86.91247657 -8.511455175 -5.381348398e-19)
(87.12994269 -8.395049908 3.611424795e-19)
(87.10651755 -8.492523981 -8.05449092e-19)
(86.95444616 -8.529682411 -1.398793959e-18)
(90.43982278 -8.564136838 -7.524288915e-19)
(90.41486136 -8.776450477 -1.123626321e-18)
(90.99152086 -9.498153035 -2.918536004e-19)
(90.96493384 -9.368383603 -8.523145358e-19)
(90.85133213 -9.525318801 -7.95422418e-22)
(90.84083322 -9.414898284 -2.918464865e-19)
(89.4191318 -10.45315718 -5.422743038e-19)
(89.22404727 -10.44379092 6.774549475e-19)
(89.36968897 -10.39622267 -2.801876937e-19)
(89.5146269 -10.39824395 2.645834308e-19)
(88.60945945 -9.672958182 -2.010590895e-21)
(88.52980077 -9.720394464 5.722539387e-19)
(88.7216195 -9.669159957 -2.870920046e-19)
(88.66644933 -9.719301759 -4.35379627e-21)
(73.02686064 -4.112077336 0)
(73.98213356 -3.97759087 0)
(74.10947361 -4.770340461 -1.720660171e-19)
(73.03188747 -5.019893011 0)
(73.42619218 -5.197724777 0)
(79.57616882 -6.494561872 -5.461735119e-19)
(79.38773993 -6.154574725 -1.714535536e-18)
(79.00373847 -6.405832738 -1.453614995e-19)
(79.16904715 -6.746499589 -1.150226435e-18)
(79.35370372 -6.768284098 0)
(68.33702288 8.173042889 1.578445596e-18)
(67.4345104 9.549480661 1.951476737e-18)
(67.10869525 7.136353014 -5.977163634e-21)
(65.75404322 8.5966236 3.411819132e-18)
(72.97272331 -3.237357374 0)
(72.0355091 -4.389329187 -5.516715781e-19)
(71.9177423 -3.292148088 -1.53236541e-18)
(84.07563958 -7.338373962 6.043535148e-19)
(84.06688293 -7.172147679 4.743137992e-21)
(84.26331911 -7.123784062 4.644078794e-19)
(84.01378719 -7.297356041 1.463618872e-19)
(82.62737516 -6.734915875 0)
(82.59851877 -6.57497855 -4.830621465e-19)
(82.81506748 -6.488672831 0)
(82.83934392 -6.644418457 -9.427934858e-19)
(83.80808443 -4.877650734 -5.297859843e-19)
(84.27824455 -4.831941001 -5.410670067e-19)
(84.25015996 -5.194268437 5.238928086e-19)
(83.8333682 -5.291812207 -9.299113272e-19)
(82.40953235 -6.838195468 -4.990972893e-19)
(82.64599523 -6.894598918 0)
(82.38876439 -6.972056183 1.038910882e-18)
(82.46705996 -6.976409388 -1.040028757e-18)
(84.08212141 -7.420083448 0)
(83.96719883 -7.43996348 0)
(83.98340881 -7.366130185 -3.440645828e-19)
(79.9150446 -6.257165451 5.623080549e-19)
(80.08295669 -6.55952605 2.445065766e-19)
(79.70652833 -6.784493401 -3.673477448e-19)
(79.86345224 -6.79582928 -3.715849816e-19)
(82.38134191 -6.674196194 -9.820753144e-19)
(82.15719858 -6.786303547 -2.614351995e-19)
(82.14530348 -6.928575856 -1.374312959e-18)
(82.22863219 -6.931623859 -3.317230393e-19)
(86.82746744 -8.472081353 1.663790648e-18)
(86.84705433 -8.375434731 1.813207119e-18)
(86.99910821 -8.33419416 8.144694296e-19)
(86.78534835 -8.454035427 8.029461448e-19)
(85.74422625 -8.086166606 -1.421713689e-18)
(85.95199529 -7.918045611 -1.164886658e-20)
(85.95404883 -8.040786672 -1.016971562e-19)
(85.80241406 -8.09924282 -1.305141134e-19)
(87.09282778 -6.802219462 1.436398256e-20)
(87.07772505 -7.053203449 1.40577756e-19)
(86.72364414 -7.088501774 1.035851188e-18)
(86.82910029 -7.145005008 -4.955688646e-19)
(85.63954287 -8.112382794 3.280749899e-19)
(85.72081376 -8.140185735 -3.273215484e-19)
(85.62402563 -8.168295034 -6.586711342e-19)
(86.81806687 -8.524343379 6.424357303e-19)
(86.71848827 -8.537058373 6.456642895e-19)
(86.75057771 -8.495634683 6.458144899e-19)
(84.17281404 -7.47388502 0)
(84.06138359 -7.494564857 -2.507738632e-21)
(85.5358834 -8.140271981 3.376551549e-19)
(85.54367259 -8.082456119 9.762236374e-19)
(88.47408066 -9.673637968 2.376759974e-22)
(88.55356479 -9.625749223 -2.839741583e-19)
(88.66480194 -9.622745254 0)
(87.76020683 -8.989897536 6.108456796e-19)
(87.89730924 -8.947704355 1.640238267e-22)
(87.85802076 -8.990651151 1.817664879e-21)
(89.18878322 -8.141872453 -7.925540188e-19)
(89.16601615 -8.347973829 -1.17185901e-18)
(88.86939014 -8.3558243 -5.275883125e-19)
(88.94831074 -8.419873371 -5.27515293e-19)
(87.66385569 -8.990647803 6.136976102e-19)
(87.70575045 -9.030075662 -2.908977612e-21)
(87.58725267 -9.024620799 6.15702492e-19)
(88.39150021 -9.722055804 5.820474671e-19)
(88.20550287 -9.716769584 1.176167053e-18)
(88.33714869 -9.67474236 5.936851923e-22)
(86.876552 -8.552587479 -6.483807163e-19)
(86.78062253 -8.565346269 6.69667509e-19)
(87.54842227 -8.987166215 6.273024257e-19)
(87.62165132 -8.954177954 6.089493154e-19)
(89.26980313 -10.50036067 -1.093139499e-18)
(89.56862712 -10.45494819 -7.99680418e-19)
(89.47356814 -10.50905202 -2.661336764e-19)
(90.98869917 -9.610421681 0)
(89.07178565 -10.49004841 1.333849864e-19)
(89.11775879 -10.54315401 -1.388997851e-18)
(88.79065329 -10.52266537 8.758547983e-19)
(88.4473492 -9.768216704 5.800443862e-19)
(88.25937111 -9.763527893 -1.245853143e-20)
(88.76013562 -10.47214967 2.710604382e-19)
(89.03581378 -10.43357951 4.100415319e-19)
(87.89168594 -0.2954599105 0)
(86.53356933 -0.4579993405 -1.08234963e-18)
(87.20107619 0.157864273 5.067303981e-19)
(81.982396 -1.916554483 5.912323059e-19)
(82.64719344 -2.04851841 0)
(80.72228994 5.956161776 3.282577117e-20)
(81.2171641 5.07685199 1.262170852e-18)
(80.38950076 4.572578487 1.254107085e-18)
(79.28706691 0.3378123001 -6.839905416e-19)
(79.75549723 1.132757705 -1.198879776e-18)
(78.20608834 0.6990758106 5.940563918e-19)
(78.85828906 1.655948445 7.665845041e-21)
(73.93526709 -3.085920174 0)
(73.0223486 -2.245968143 -1.482651375e-18)
(73.94982986 -2.291748924 0)
(69.77050907 8.986921171 -7.965110625e-19)
(70.52334511 7.765803148 2.960151734e-18)
(69.4233389 6.980220469 -1.548081436e-18)
(83.84250385 -4.486986781 5.35498665e-19)
(83.35762605 -4.980193359 2.77990946e-19)
(83.33385975 -4.528157212 5.569610995e-19)
(82.34199769 -6.508916246 -4.835738051e-19)
(82.56505913 -6.411585898 -1.913142724e-18)
(79.72583322 -5.921294685 -6.042979331e-19)
(80.08121303 -5.739839323 1.664669401e-18)
(80.21865904 -6.043113419 5.673722036e-19)
(79.18567197 -5.775282866 -5.595004984e-19)
(79.58127909 -5.588340946 -3.405759383e-18)
(74.78422236 -3.048173504 6.712912417e-19)
(74.82850674 -3.766997422 0)
(80.17517948 -0.02638218773 -1.338046352e-18)