/*--------------------------------*- C++ -*----------------------------------*\
| =========                 |                                                 |
| \\      /  F ield         | OpenFOAM: The Open Source CFD Toolbox           |
|  \\    /   O peration     | Version:  v2012                                 |
|   \\  /    A nd           | Website:  www.openfoam.com                      |
|    \\/     M anipulation  |                                                 |
\*---------------------------------------------------------------------------*/
FoamFile
{
    version     2.0;
    format      ascii;
    class       surfaceScalarField;
    location    "2.36";
    object      meshPhi;
}
// * * * * * * * * * * * * * * * * * * * * * * * * * * * * * * * * * * * * * //

dimensions      [0 3 -1 0 0 0 0];
oriented        oriented;


internalField   nonuniform List<scalar> 
6464
(
0
0
0
0
0
0
0
0
0
0
0
0
0
0
0
0
0
0
0
0
0
0
0
0
0
0
0
0
0
0
0
0
4.189845317e-07
0
7.491933056e-09
-3.561791445e-07
0
0
0
0
0
0
0
0
0
0
0
0
0
0
0
0
0
0
0
0
0
0
0
0
0
0
0
0
0
0
0
0
0
0
0
0
0
-1.72290441e-06
0.0001272891565
3.702915073e-06
-0.0001258932043
-8.928662949e-06
0.0001010324942
1.650387267e-05
-8.711669107e-05
-4.147868127e-06
3.904689968e-05
1.134198489e-05
-2.440109099e-05
0
7.294634589e-07
2.60513219e-07
0
0
0
0
0
0
0
0
0
0
0
0
0
0
0
0
0
0
0
0
0
0
0
0
0
0
-1.821543973e-05
0.0005027196746
2.63916883e-05
-0.0005011940139
-5.339504367e-05
0.0004512824517
7.000455352e-05
-0.0004203345649
-5.158632428e-05
0.0002943120187
7.015397375e-05
-0.0002454058014
-1.992549836e-05
0.0001030854393
3.314877748e-05
-6.420272961e-05
0
1.612997315e-06
7.269076313e-07
0
0
0
0
0
0
0
0
0
0
0
0
0
0
0
0
0
0
0
0
0
0
-5.764438674e-05
0.0009701702671
6.826252944e-05
-0.0009690116879
-0.0001271345863
0.0009125445087
0.0001464153782
-0.0008748014391
-0.0001352961789
0.0007028821232
0.0001584290852
-0.0006279149105
-9.518060412e-05
0.0003903393362
0.0001177554827
-0.0003074872935
-2.047202631e-05
9.254457746e-05
3.184289134e-05
-4.607261917e-05
0
0
0
0
0
0
0
0
0
0
0
0
0
0
0
0
0
0
0
0
0
-9.020960753e-05
0.00127886064
9.22308926e-05
-0.001278577202
-0.0001992292275
0.001263484457
0.0002099763388
-0.001241877918
-0.0002586065651
0.001130954276
0.0002742665551
-0.001047517569
-0.0001714582972
0.0007289228156
0.0001912122222
-0.0006148382916
-7.203393391e-05
0.0002811316682
8.585981277e-05
-0.0001876781592
1.28933039e-05
-2.126421345e-06
3.716644057e-06
-1.978098996e-07
0
0
0
0
0
0
0
0
0
0
0
0
0
0
0
0
0
0.0006912374498
-4.237258639e-05
4.255696063e-05
-0.0006914218241
0.0007136161192
-0.0002540756638
-0.001439639486
0.000732364855
0.0001199224843
0.0001278116914
0.001358888383
-0.0002912460495
0.000302657633
-0.001305325619
-0.0002445761428
0.001023374473
0.0002578398192
-0.000896267156
-0.0001226865967
0.0004789827351
0.0001342332588
-0.0003522495535
7.071588981e-05
-1.637775426e-05
2.115142091e-05
-2.247649551e-05
0
0
0
0
0
0
0
0
0
0
0
0
0
0
0
0
0
0.0007619729237
-0.0001082311988
0.0001070659043
-0.0007608076292
0.00151084995
-0.0003210883514
0.000324490085
-0.001479688154
-0.0002847899463
0.001217439947
0.0002896489879
-0.001085873845
-0.0001593427545
0.0006323834084
0.0001639743884
-0.0004833300139
0.0001313815339
-3.215076865e-05
3.695571382e-05
-5.761431787e-05
0
0
0
0
0
0
0
0
0
0
0
0
0
0
0
0
0
0.0008110457985
-0.0001046868502
0.0001042644378
-0.0008106233861
0.0016244566
-0.0003266255153
0.0003267181828
-0.001604475995
-0.0003042059234
0.001357985364
0.000306989161
-0.001224246479
-0.0001777418326
0.0007443889936
0.0001807797296
-0.0005805745
0.0001728434683
-4.293970963e-05
4.489162756e-05
-8.405020795e-05
0
0
0
0
0
0
0
0
0
0
0
0
0
0
0
0
0
0.0008610519682
-0.0001029641975
0.0001026456324
-0.0008607334032
0.001723703696
-0.000324749526
0.0003236751044
-0.00170052508
-0.000304531646
0.00143377517
0.000302930807
-0.00129102249
-0.0001785107916
0.0007816957977
0.0001773154836
-0.0006090614281
0.0001803712232
-4.351935589e-05
4.290503192e-05
-8.724845089e-05
0
0
0
0
0
0
0
0
0
0
0
0
0
0
0
0
0
0.0009126597747
-0.000101607628
0.0001012775522
-0.0009123296988
0.001821375938
-0.0003173579338
0.0003143573695
-0.001779308605
-0.0002890145814
0.001451246986
0.0002845609949
-0.001298514626
-0.0001628548185
0.000755440865
0.0001585483101
-0.0005771694306
0.0001509265782
-3.417776474e-05
3.217093812e-05
-6.483344533e-05
0
0
0
0
0
0
0
0
0
0
0
0
0
0
0
0
0
0.0009621523427
-0.0001000407069
9.992826166e-05
-0.0009620398974
0.001892598712
-0.0003043124391
0.0002997248178
-0.001820697377
-0.0002633526919
0.001422768507
0.0002536564703
-0.001247330716
-0.0001382361986
0.0006732587857
0.0001281380623
-0.0004949457057
0.0001031023773
-2.169201291e-05
1.856722863e-05
-3.359344876e-05
0
0
0
0
0
0
0
0
0
0
9.834714224e-05
-0.0008031052087
-9.879122152e-05
0.0004033084189
0.0004002408691
-0.0001054648285
0.0007652323942
0.000102205358
9.516723171e-05
-0.0008554391606
-9.560347968e-05
0.000428706796
0.0004271686126
9.697800973e-05
0.0004071002001
0.0004053147309
9.419853585e-05
-0.0009052980192
-9.362774607e-05
0.0004530123005
0.0004517149289
9.485161279e-05
0.0004309606511
0.000430406936
9.181874895e-05
-0.0009551619139
-9.247144305e-05
0.000955814608
0.0009131060669
9.375224363e-05
0.0009624124885
9.155860309e-05
-3.424894815e-05
3.403806788e-05
-0.0007590158663
-0.0001041640657
0.0007577151034
-0.0001101715347
0.0007077536983
0.0001160339557
1.762319475e-05
-0.0001971075611
-1.770637563e-05
0.0001971907419
-0.0003858503825
-4.013179723e-05
0.0003869001741
3.908200565e-05
-0.0008027826196
-0.0001050094393
0.00030508129
-0.001595116645
-0.0003072310921
0.001597715506
-0.0003104233597
0.00152072048
0.000306587511
1.956271034e-05
-0.0002080703891
-1.941759775e-05
0.0002079252765
-1.739875871e-05
-0.000202508364
0.0002024429291
1.746419363e-05
-0.0008552096139
-0.0001031937443
0.0003023270572
-0.001700918874
-0.0003030797718
0.001701757426
0.001625494635
0.0003042036561
1.694416086e-05
-0.0002211341112
-1.703985327e-05
0.0002212298037
-1.824349803e-05
-0.0002147607882
0.0002142908612
1.871342502e-05
-0.0009053418436
-0.0001015638036
0.0002978898716
-0.001796504348
-0.0002996647134
0.001801658244
0.001724800582
0.0003015187707
3.214243162e-05
-0.0004660227856
-3.232542474e-05
0.0004662057787
-3.305974213e-05
-0.0004557173561
3.20745874e-05
0.0002287906874
0.0002279118234
0.0002480215005
9.060260388e-06
-0.0002472850883
-9.796672659e-06
3.104721143e-05
-0.0004916121065
-3.091995369e-05
0.0004914848488
-3.173563868e-05
-0.0004804774561
0.000480484808
3.172828676e-05
-0.0002021974727
-1.731923194e-05
0.0002021179459
-0.0001969538781
0.0001971284686
1.744860422e-05
-0.0001001535672
-0.0007865444951
9.930996671e-05
0.0003952581693
0.0003921299263
-3.830609653e-05
0.0001968463962
3.760105532e-05
-0.000393095233
1.796167568e-05
-0.0002022386882
-1.792046011e-05
-0.0002139750713
-1.773129196e-05
0.0002134628652
-0.0002091365888
0.0002088505152
1.984878392e-05
-4.911980633e-05
-0.0004179899406
0.0004180778549
4.903189206e-05
-1.973433081e-05
1.980671906e-05
-0.000209208977
1.832433374e-05
-0.0002142786562
-1.802074878e-05
1.797759669e-05
-0.000202524285
-0.000208210748
-1.95939719e-05
-0.0004157531637
-4.912583069e-05
0.000415759188
-0.000453484807
-3.296973742e-05
0.0002269029792
0.0002264918231
-0.0002214466304
0.0002213947191
1.699607207e-05
-9.371942599e-05
-0.0008858210742
9.381863376e-05
0.000443336146
0.0004423857204
-3.530824229e-05
0.0002212155091
3.495559973e-05
-0.0004423094969
3.480422235e-05
-0.0004534210601
-3.486796924e-05
1.862269553e-05
-0.00021505915
0.0002203956953
-0.0004410882768
-1.75262125e-05
-1.822355958e-05
-0.0008796562301
-9.44949132e-05
0.0004409508309
0.0004394808864
-0.0004791545593
-3.178406165e-05
0.0004792029823
-0.00046799085
0.0004679952481
3.213803345e-05
-7.103987768e-06
-0.0002466663873
0.0002458324641
-8.498458586e-06
0.0002494159714
0.0004926560633
-0.0002466593251
3.471178019e-05
-0.0001916141985
-2.567354067e-06
0.0001594697724
-0.0001980713902
-1.865696383e-05
0.0002008127479
1.591560617e-05
7.347688199e-05
-0.0002324166246
-3.178056172e-05
0.0001907203043
-0.0009548590483
-0.0001003435725
0.000291995951
-0.00187889903
-0.0002942721137
0.001904053112
0.001828061372
0.0002974732839
7.206724458e-05
-0.0002438540987
-2.819819385e-05
0.000199985048
2.369871288e-05
-0.000485314506
-2.401353628e-05
0.0002429913653
0.000242637964
-1.234720553e-05
-0.0002401012136
0.0002400612661
1.238715306e-05
-4.432567084e-05
4.113309692e-05
-0.0003826578086
0.0001960111606
-0.0003922941047
-3.913071349e-05
-0.0007794638452
-9.867297976e-05
0.0003900295528
0.0003879537049
-0.0002401142828
-1.254070957e-05
0.0002403077869
-1.505746589e-05
-0.000237455442
0.0002381573092
1.43555986e-05
-9.323793844e-05
-0.0009360864667
0.0009364297712
9.28946339e-05
-3.431497998e-05
3.413941628e-05
-0.0004678152863
3.375850404e-05
-0.0004790274777
-3.388558574e-05
3.44975245e-05
-0.0004554106582
-0.0004660242986
-3.431346697e-05
-0.0009308919163
-9.336080043e-05
0.0009310147783
-0.0003580860451
-1.635483756e-05
0.0003580870137
1.635386894e-05
-0.000383326291
-4.066603258e-05
0.0003838605263
-0.000755399814
-9.286271853e-05
0.0003793782107
0.0003629462433
4.712801455e-05
5.881006392e-05
-2.559233946e-05
2.611022119e-05
-0.0003586039268
-0.0002436203786
0.0002783321588
-3.709727712e-05
-0.000389869454
3.631861535e-05
0.00019537819
0.0001952699258
-1.841199633e-05
-2.823238537e-05
-0.0001969759969
-1.693584393e-05
1.557008296e-05
-0.0001967056292
-0.0001962100951
-1.381609975e-05
-0.0003868720356
-3.591082794e-05
0.0001933279218
0.0001923576647
-1.719509019e-05
-0.0002054335843
0.0002054615397
1.716713481e-05
-0.0002053546805
-1.726122913e-05
0.0002054208195
-1.668582152e-05
-0.0002187144777
0.0002186255246
1.677477462e-05
-0.0002189706782
-1.700160562e-05
0.0002192864623
-0.0002328894841
1.505959016e-05
-1.338951479e-05
0.0002312194087
-0.0002363971265
0.0003004607287
9.413279747e-06
-3.260945385e-05
-0.0004610023211
0.0004609987598
3.261301514e-05
-1.756562897e-05
1.429164876e-05
-0.0002331231463
1.540951059e-05
-0.0002333537181
-1.494527656e-05
-1.57506958e-05
3.152450262e-05
-0.0002252546604
0.0002094808536
-0.0002311091365
-1.887311704e-05
-0.0004597323799
-3.266481347e-05
0.0002300245608
0.0002297631787
2.283326502e-05
-0.0004914052598
-2.299052041e-05
0.0004915625152
-0.0004867682905
2.335431735e-05
0.0002438352212
0.0002432774649
0.0003146009848
5.816320873e-06
-0.0002483500611
-1.795908296e-05
-0.0001999612501
0.0001995229052
1.839742789e-05
-0.0001990531143
-1.800633431e-05
0.0001991003656
-1.59199386e-05
-0.0002122207693
0.0002121400214
1.600068655e-05
-0.0002119477829
-1.599211657e-05
0.0002120199609
1.695190456e-05
-0.000211829546
-1.707014144e-05
4.146549784e-05
-0.0004222824367
-4.156444186e-05
0.0004223813807
-4.173333333e-05
-0.0004182919343
0.0004183391597
4.168610794e-05
4.12889391e-05
-0.0004288410303
-4.133059164e-05
0.0004288826828
-0.0004242510209
0.0004243012422
4.141527649e-05
1.69428521e-05
-0.0002122117169
1.777263705e-05
-0.0002052745766
-1.785274097e-05
4.190061287e-05
-0.0004098344151
-4.194452695e-05
0.0004098783291
-4.212226949e-05
-0.0004055478578
0.0004055925056
4.207762169e-05
-0.0004158904524
-4.177649403e-05
0.0004159336131
-0.0004113104185
0.0004113407445
4.187028688e-05
1.779842342e-05
-0.0002054593707
-1.709543282e-05
-0.0002245066505
0.0002245825112
1.701957212e-05
-0.0002218625943
-1.1799824e-05
0.0002179117225
-0.0002240559385
-1.726455689e-05
0.0002242250625
0.0002335444029
1.594269346e-05
-0.0002340775857
0.0002376497062
1.439075894e-05
-0.000237174823
-1.486564211e-05
3.188957637e-05
-0.000472924295
-3.213370432e-05
0.0004731684229
-1.577324021e-05
0.0002383654805
0.0002321047469
1.649924612e-05
-2.614791635e-05
0.0003407489011
-0.0004923985854
0.0004922261508
-0.0002311687971
-1.42258892e-05
0.0002453946863
1.495212679e-05
-0.0002414300227
-1.483417343e-05
0.0002413120693
-9.655267286e-06
-0.0002399417113
0.0002393486958
1.024828276e-05
0.0002164959359
2.095294612e-05
3.825160744e-05
-0.0002757004895
-0.0002412515436
-1.187415496e-05
0.0002434704313
-6.671201465e-06
-0.000240179131
0.0002377404109
9.109921618e-06
-0.0003642889105
-9.440614777e-06
0.000367564269
7.529533014e-06
-1.364276715e-06
-0.0001988534261
-2.028019692e-05
0.0002004766592
-0.000387762098
-4.557574503e-05
0.0003790262323
5.431161077e-05
-2.977062891e-05
-0.000369346874
1.897721276e-05
1.585137968e-05
-1.84132486e-05
-0.0002063978653
0.0002058393929
1.897172101e-05
-1.47755534e-05
1.474401203e-05
-0.0002022192072
0.0002022507486
1.464208384e-05
-0.0002040198155
-1.479594337e-05
0.000204173675
1.751872757e-05
-0.0002039531067
-1.752134002e-05
0.0002039557192
-1.774126512e-05
-0.0002197568515
0.00021956081
1.793730658e-05
-1.899386965e-05
0.0002185777301
1.960539686e-05
-0.0002191892573
1.380459343e-05
0.0002240298294
-0.0002228661151
-1.496830776e-05
-1.456957169e-05
1.439896167e-05
-0.0002131022851
0.0002132728951
3.194168806e-05
-0.0002160400046
-1.779755544e-05
0.000201895872
1.934384774e-05
-0.0002159491669
-1.950438753e-05
0.0002161097067
-1.795240399e-05
-0.0002002808236
0.0002007604016
1.747282591e-05
-1.735124839e-05
0.000247646434
-2.84279422e-05
-0.0002018672434
-0.0002016283516
-1.308671244e-05
0.0001999395106
1.812876308e-05
-0.0001989236451
-1.825823224e-05
4.229989514e-05
-0.0003963663557
-4.248739377e-05
0.0003965538543
-4.250752554e-05
-0.0003932829304
0.0003932009801
4.258947586e-05
-0.0004035352902
-4.219989049e-05
0.0004036129112
-0.0003993431018
0.0003993773874
4.226560954e-05
1.826773723e-05
-0.0002001002243
-1.662935799e-05
-0.0002129263818
0.000212613078
1.694266182e-05
-1.356283748e-05
1.412994902e-05
-0.000211803699
0.0002112365875
-0.0002123444872
-1.397885164e-05
0.0002117537671
1.8631812e-05
-0.0002111185892
-1.94571524e-05
0.0002119439296
0.0002197260444
1.489761587e-05
-0.0002208190668
0.000219354802
1.946121849e-05
-0.0002207972804
-1.801874011e-05
1.758939916e-05
-0.0002220789205
-1.743380508e-05
0.0002219233264
3.472790357e-05
0.0002232053145
-0.0004469248154
-3.506434114e-05
-0.0004464605648
4.036842721e-05
-4.063086543e-05
0.000446723003
-4.079065407e-05
-0.0004423260897
0.0004423351261
4.078161767e-05
1.680965294e-05
-0.0002184306201
-1.734971103e-05
4.12806493e-05
-0.0004351298808
-4.122818006e-05
0.0004350774115
-0.000430586309
0.0004306646554
4.121059275e-05
-0.0004412230925
-4.077036979e-05
0.0004412028082
-0.0004368256868
0.0004372699553
4.083638084e-05
1.664196061e-05
-0.0002185467854
-0.0004740810968
0.0004741244745
3.184619867e-05
1.397675476e-05
-0.0002370414378
2.550893771e-05
0.0002398718483
-0.0004794146077
-2.608046111e-05
-7.221504794e-05
-0.0002511424611
0.0003173876232
5.969885795e-06
-1.532067933e-05
-0.0001996715579
0.000197649909
1.73423282e-05
-2.917909321e-05
1.147356552e-06
-0.0002031370605
-0.0001982905762
-1.367427296e-05
0.0001966441698
-5.299848806e-06
-0.0002229940251
1.106173775e-05
0.0002172321362
-0.0002285177466
2.041832165e-05
0.0002027995761
1.350522776e-05
-0.0002434105847
-1.376092039e-05
0.0002436662773
-0.0002426441529
0.0002437114014
1.388487824e-05
-2.528542772e-05
-0.000312386016
0.0003376714437
1.337666563e-05
-5.059375706e-05
-0.0001592013719
1.377987052e-05
-4.357148698e-06
-0.00016333517
0.0002367674844
-8.607236039e-06
1.105785677e-05
-0.0002392181051
0.0002432252008
1.146562543e-05
-0.0002406933626
-1.39974637e-05
1.325841372e-05
-0.0002386027691
-1.373986652e-05
0.0002390842219
-7.180617514e-05
0.0003083601745
2.286634513e-05
7.228317065e-06
0.0002066728222
-0.0002463851943
-3.402142745e-05
0.0002804066218
1.47385145e-05
-0.0001963320395
-1.503814136e-05
0.0001966316664
-1.511077622e-05
-0.000195139422
0.000195456808
1.47933903e-05
1.428560568e-05
-0.0001970530373
-1.618082265e-05
0.0001989482543
-0.0001957493935
0.0001960190689
1.446883915e-05
-0.0001940053854
-1.654884585e-05
0.0001954434551
-1.641095988e-05
-0.0001926844067
0.0001932292844
1.58660822e-05
-1.8084661e-05
1.553688829e-05
-0.0001971237852
-1.461202589e-05
1.410053271e-05
-0.0002061066527
0.0002066181459
-0.000249755753
-3.025167887e-05
0.0002800074319
-0.0002062694371
-1.777338643e-05
0.0002056295749
-0.0002039664394
0.0002040267728
1.74583942e-05
1.476912132e-05
-0.0002041373167
0.0002040102792
-0.0002056753222
-1.459486092e-05
0.0002056581572
0.000215576016
-1.321291573e-05
1.471123205e-05
-0.0002170743324
0.0002156626088
-0.0002171920091
-1.746446938e-05
-0.0002188331515
-1.762406977e-05
0.0002187159561
1.742740137e-05
-1.435755596e-05
0.0002125927634
-1.162855106e-05
1.258640333e-05
0.0002146181638
1.121589803e-05
-1.079622211e-05
0.0002236101535
3.210916636e-05
0.0002038959651
-0.0002178282054
-8.366449763e-06
0.0002145661041
-0.0002169086289
0.0002176123934
1.864008327e-05
7.215476962e-05
-0.0002201602809
0.0001799471993
-0.0002189846392
-1.205648193e-05
-1.735085284e-05
-0.0002333851741
0.0002341867422
1.654928477e-05
-0.0002310124833
-1.463422907e-05
0.0002282958596
1.657243303e-05
-0.000232599733
-1.498518335e-05
1.516711006e-05
-0.0002329518778
-1.53336095e-05
0.0002331183772
-1.629281648e-05
-0.0002302955882
0.000230813687
1.577471765e-05
1.036646579e-05
-0.00022979329
-9.090922373e-06
1.568836324e-05
-0.0002287817453
-1.582666137e-05
0.0002289200434
-1.59113717e-05
-0.0002279229186
0.0002277371544
1.609713584e-05
-0.0002300907711
-1.647317894e-05
0.0002302711335
-0.0002286289532
0.0002284549414
1.586237509e-05
1.360001354e-05
-0.0002262275729
0.0002455773721
1.374733738e-05
-0.0002457412981
-1.358341137e-05
1.181556689e-05
-0.0002448636025
-1.214354191e-05
0.0002451915775
-0.0002441093738
0.0002446969619
1.291763968e-05
0.0001977036105
-1.544291369e-05
1.63083867e-05
-0.0001985690835
0.0002003990018
-0.0002005740414
-1.717620881e-05
-0.0001994879305
-1.83640468e-05
0.0001998995733
3.387537712e-05
-1.68555052e-05
0.0001833791299
-1.254588298e-05
1.48975271e-05
0.0001953519664
0.0002815218111
1.792199955e-05
-0.0001958528288
-1.642647405e-05
0.0001943573033
-0.0001969798516
0.000197553855
1.371160225e-05
-0.0001981073147
-1.686109757e-06
0.0001872475415
-0.0001984417946
0.0001981052437
1.825855042e-05
-1.775467465e-05
-0.0001988793144
0.0001987286403
1.790534876e-05
-1.816527188e-05
1.769712465e-05
-0.0001979736474
-0.0001984555516
-1.50946768e-05
-1.375682517e-05
1.330880827e-05
-0.0002120489828
0.0002124969997
-0.0002122161535
-1.382625024e-05
0.0002124795663
-0.0002129998639
-1.633343284e-05
0.0002127039388
-0.000211632095
0.0002128596977
1.740420927e-05
-1.08369297e-05
-0.0002718708251
0.0002827077548
-0.0002115018672
-1.341475877e-05
0.0002111598008
1.728201384e-05
-0.0002264256086
-1.826822591e-05
0.0002274118207
-1.482180567e-05
-0.0002242021318
0.0002228924877
1.61314497e-05
-0.0002266246137
-1.553319518e-05
0.0002262464372
-0.000227189551
0.0002289299988
1.554156603e-05
-1.940276424e-05
-0.0002951669951
0.0003145697593
1.938739583e-05
-1.739272631e-05
0.0002173601325
0.0002174841295
1.345781296e-05
-0.0002260007182
-1.569908399e-05
0.0002268779966
-0.0002216140871
0.0002206347399
2.036674311e-05
-0.000307029128
0.0003298954731
-1.484295341e-05
-0.0002351399401
0.0002345746256
1.540826784e-05
-4.446678281e-06
1.340013508e-05
-0.000228788014
0.0002198345572
-0.0002422797162
-7.335664787e-05
-0.0002336696541
2.262159943e-05
0.0002066013764
-0.000235326118
-1.521961861e-05
0.0002357027832
-2.793398615e-05
0.0002012963103
-0.0007598593479
-0.0001073877172
-0.001488299076
-0.0003130152893
0.001503284646
-0.000286545241
0.001392040653
0.0002931785834
-2.074335669e-06
1.164747005e-05
-0.0002314492361
0.0002218761017
2.53389561e-05
-0.0002369384565
0.0002095251647
0.001926222287
0.0002891821218
-0.0003092990167
0.0003346379728
3.370729512e-05
-0.0004804262472
-0.0009807142796
-6.92147164e-05
0.0004896830173
-0.0009804132537
-9.15149212e-05
0.0009803813172
-0.0001830780599
-6.88338299e-06
0.0001875025685
2.458874384e-06
1.713609391e-05
0.00019298072
-1.943604285e-05
-0.0001906807711
0.0002095109672
-0.0002027651353
1.420711422e-05
-0.0002025622455
-3.447832836e-05
0.0002228146847
-0.0001933345955
-2.484239552e-05
0.0001899459882
2.823100286e-05
-1.789462214e-05
2.01852672e-05
-0.000185368705
-0.0001132372289
-0.000731523714
0.0007378551648
0.0001069057781
-0.0001030706208
9.677211355e-05
-0.0007491013067
-0.0003840729797
-4.357898208e-05
-0.0001943797999
-1.817954688e-05
0.0001941251627
1.843418404e-05
-1.498996378e-05
1.469910704e-05
-0.0001954585368
1.587873349e-05
-0.0001972783787
-1.565339205e-05
9.993458776e-06
-0.0002459914618
-1.022185178e-05
0.0002462198548
-0.0002453030862
0.0002459104526
1.120820049e-05
1.087421889e-05
-0.0002482693426
0.0002404627688
2.549983415e-05
-0.0004805548789
2.546470996e-05
-0.0004851276
-2.565161593e-05
3.133869995e-05
-0.0004847318941
-3.142587814e-05
0.0004848190723
1.598023097e-05
-0.0001970813491
-0.0001967046804
-1.731342024e-05
-0.0001980175397
-1.761604464e-05
0.0001978789096
-2.227247642e-06
0.0002423707277
0.0002477943049
-8.144571784e-06
-0.0002481481917
6.796683897e-05
-1.98287757e-05
0.0001996562416
0.0003151555627
-0.0002461067426
0.0002461238629
3.108029888e-05
-0.0001915755571
0.0001579279042
-1.570391546e-05
-0.0002258286954
0.0002097520492
-1.39484034e-05
1.391200797e-05
-0.0002438177033
0.0002373942079
-9.944472532e-06
-0.0002413981387
-5.546770253e-06
0.0002147427843
-1.153654361e-05
1.177623916e-05
-0.0002401814069
1.40309423e-05
-0.0002415660756
-1.389488939e-05
1.216516836e-05
-0.0002414614092
-1.207502339e-05
0.0002413712643
-0.0003914407024
-4.26835333e-05
0.0003916167101
-4.368950818e-05
-0.0003869565009
0.000386428355
4.421765404e-05
-3.930256249e-05
3.809394648e-05
-0.000388660838
-0.0002385787774
0.000239061464
1.277572711e-05
1.13407066e-05
-0.0002400542122
-0.00024080885
-1.197923717e-05
-4.886593705e-05
-0.0003749017652
0.0003814090644
4.235863791e-05
-4.975191488e-05
4.666715264e-05
-0.0003846773358
-0.0001959934046
-1.979586547e-05
-0.0001944491531
4.290812494e-06
0.0001619259553
-1.486950755e-05
1.577644278e-05
-0.0001953560884
-1.528964553e-05
-0.0001965558589
-3.589727271e-05
-0.0002461779213
0.000282075194
-0.0001941445883
-1.535911149e-05
0.0001736064271
0.0002341083167
-1.360055798e-05
-0.0002338972735
1.038969649e-05
-8.582616533e-06
0.0002323012367
0.0002271801806
1.442892461e-05
-2.068897841e-05
0.0003211497072
-0.0002320477545
5.27537754e-06
0.0002060833985
1.085604503e-05
-0.0002334905197
-0.0002333440034
1.48297269e-05
-1.488081909e-05
0.0002333950956
-0.0002328621514
0.0002329482906
1.508097087e-05
1.645978732e-05
-0.0002332725284
-0.0002310828548
7.254235876e-05
0.0001900649986
-1.818187378e-05
1.679869857e-05
-0.0002296996796
-1.650344239e-05
-0.0002269330918
-0.0002446169481
0.0002412838706
9.149398448e-06
-1.130518631e-05
1.210457171e-05
-0.0002454163335
-0.0002457432394
-1.205841581e-05
1.647996536e-05
-0.0002192374401
0.0002148158905
-6.416627195e-06
-0.0002200200056
0.0002143782169
-1.373918107e-05
-0.0002246268556
0.0002216001897
-1.075132368e-05
-0.0002245880471
-5.841255673e-06
0.0002156416214
1.806931036e-05
-0.0002259118912
0.0002014259537
-0.0002924836143
0.0003105529247
-0.000222681117
0.0002227381279
1.753238823e-05
2.000878852e-05
-0.0002221616572
1.618949632e-05
-0.0002250274129
-1.71628017e-05
4.930305518e-06
0.0002102056487
-2.964051205e-05
7.278432475e-05
-0.0002417899956
0.0001986461829
-0.0002340328585
0.0002160398165
7.167853976e-06
-4.75761464e-06
-0.0002364000621
1.21186799e-05
1.274662571e-05
-0.000238898405
-1.175477574e-05
0.0002028984366
-0.0001528920534
-9.631869561e-06
-0.0002660686199
0.0002569418998
-0.0002686966755
0.0002410437353
-1.229073928e-05
-0.000240627151
7.058620008e-05
-2.772849739e-05
0.0001981860326
6.222624714e-06
2.389501981e-05
0.0002076227663
-0.0002355595712
0.0002140536985
-0.0002387403889
-2.538118292e-05
-0.0001930707843
0.0001958001772
2.265179009e-05
-3.329096415e-05
3.580985111e-05
-0.0001958534825
-0.0002009218364
-3.081950232e-05
-3.64797693e-06
1.410285262e-05
-0.0002060680285
0.0001956131528
2.960183378e-05
-0.0002051668775
0.0001719170668
-1.569582247e-05
1.523880684e-05
-0.0002079680376
0.0002084250533
-0.0002067636406
0.0002051706708
-0.0002027732309
1.493566986e-05
0.0002025815731
-1.656590895e-05
1.671685394e-05
-0.0002029241759
-1.645473055e-05
-0.0002023303856
-1.668256698e-05
1.666309225e-05
-0.0002040003407
0.0002036509958
-0.0002036167089
0.0002037907223
-0.000213093214
1.498827039e-05
0.0002125039053
-1.757799298e-05
1.857104272e-05
-0.0002140862637
-1.708231349e-05
-0.0002135979646
-1.946935378e-05
1.967729513e-05
-0.0002162479459
0.0002136314775
-0.0002145297885
0.0002108221924
-0.0002023292436
2.356972902e-06
0.0001715443285
-1.620961298e-05
1.580333856e-05
-0.0002019229692
-1.690749332e-05
-0.0002011693631
-1.615312564e-05
-0.0002019299565
0.0002016103622
-0.0002019601493
0.0001908806226
-0.0002125738049
1.399145058e-05
0.0002127123034
-1.575904814e-05
1.605601261e-05
-0.0002128707694
-1.537802343e-05
-0.0002121847237
-1.652737911e-05
-0.0002128994216
0.0002125528255
-0.000213024192
0.0002125654245
-1.599784161e-05
1.766112978e-05
-0.0002096754215
0.0002080121333
-0.000208272743
0.0002075137082
-3.080705395e-05
7.10067247e-05
-0.0002127889803
0.0001725893095
-0.0002109879191
0.000197841995
2.80057328e-05
0.000211188694
-2.380877221e-05
0.0003411963955
-0.0002471457811
0.0002035082332
-0.0002493204671
0.0003431612955
2.330054327e-05
2.561979177e-05
0.000148729574
-0.000246238122
0.0002695386653
-0.0001978154949
-0.000256449121
0.0002575964775
-2.295125144e-05
-2.748988156e-05
-0.000206007988
-0.0002041820429
-2.190626902e-05
-2.336170148e-05
-0.0002392184851
0.0002625801866
-0.000192406692
0.0001415551089
-0.0002224619545
0.0002178197768
-0.0002970341976
0.0003174525193
-0.0002400300214
0.0002091978235
-6.912543821e-06
-0.0002430619502
-0.0002465142351
5.041098496e-06
-2.878171741e-05
-0.0002398235569
0.0001967990992
0.0003322551943
-0.0002342621289
0.0002127087285
-1.717286867e-05
-3.044427504e-05
-0.0001987680506
0.0001942539743
-0.0001956504001
0.0001645233593
0.0001955574314
-1.533528026e-05
-0.0001964029737
1.757702677e-05
-1.616418369e-05
-2.965264024e-05
-2.627633153e-07
-0.0001923496378
0.0001772532896
-0.0001960333646
0.0001653263263
-0.0002055343971
1.571125127e-05
0.0002039236785
-1.577914943e-05
1.543882514e-05
-0.0002051940728
-1.624109567e-05
-0.0002056447065
-1.535912576e-05
-0.0002047947935
0.000204707121
-0.0002046274216
0.0001901666934
-0.0002046667013
1.48843355e-05
0.0002045514871
-1.661438266e-05
1.656835003e-05
-0.0002046206687
-0.0002040886071
-1.633666775e-05
-0.0002055797501
0.0002054626882
-0.0002052310059
0.0002057521628
-0.0002156870527
0.0002142847357
1.611354909e-05
-1.568082388e-05
-0.0002169006232
1.68943944e-05
-1.462610155e-05
-0.0002181290547
-1.368325125e-05
-0.0002145923114
0.0002139180067
0.0002131878878
0.0002888429208
-7.27119092e-05
-0.0002269272337
-1.693982389e-05
0.0003057827447
6.529780817e-06
0.0002001405488
-0.0002235546638
0.0001829519209
1.50413207e-05
-0.0002208809012
0.0001974731308
-0.0002831724266
0.0002982137473
-0.0002228354858
1.181782884e-05
-1.821060764e-05
1.547232816e-05
-0.0002200972063
-0.0002186935934
-1.426722211e-05
-0.0002193435186
0.0002211195543
-0.0002199144483
7.294957151e-05
-3.090683018e-05
0.0001921440008
-0.0002376421269
0.0003020090819
-0.0002346934001
-2.185158152e-05
0.0003238606634
-4.825272218e-06
1.366900576e-05
0.000218336447
0.000205624383
0.0002268490248
-0.0002306272088
1.386637539e-05
0.0002182580269
0.0002112554048
-1.381907853e-05
-0.0002293328743
1.335866284e-05
0.0002335827612
-0.0002306031412
-0.0001996875766
1.690348127e-05
0.000199092482
-1.705038883e-05
1.717564448e-05
-0.0001998128322
-0.0001991106266
-1.650884574e-05
-1.717352906e-05
-0.0002003080056
0.0002004122685
-0.0002004101531
0.000200139541
-1.506543715e-05
0.0001983494729
0.000198924572
0.0001935420936
-1.486276379e-05
-0.0001951058038
1.447001386e-05
-1.180771347e-05
0.0001908797932
1.817028913e-05
0.000190657028
4.402311678e-07
0.0001674609836
-0.0001946387666
0.0001832712843
-0.0001957899281
2.898422833e-05
-0.0002000500997
0.0001693797616
3.547826502e-05
0.0001807972679
-0.0002486713941
0.0002841496591
-0.0002014286153
-0.0002114097682
1.385087803e-05
0.0002108676984
-1.462790669e-05
1.496198916e-05
-0.0002117438507
-1.463046485e-05
-0.0002120464246
-1.518803714e-05
-0.0002124061398
0.0002120025282
-0.0002122285762
0.000212027156
-0.0002141534485
9.722761736e-06
0.000193593757
-1.388962056e-05
1.364026804e-05
-0.000213904096
-0.000214753721
-1.419157192e-05
-0.0002119407601
0.0002116392766
-0.0002121905805
0.0002079472796
-3.203729317e-05
7.274934322e-05
-0.0002290300324
0.0001883179823
-0.0002226715426
0.0002071142148
-0.0002269728114
0.0002017287915
-9.582587128e-06
-0.0002281415479
-0.000232000239
0.0002163532284
-1.551571737e-05
-0.0002182302373
1.397798286e-05
-1.315685552e-05
0.000215532101
1.740557999e-05
0.0002139325354
1.164428812e-05
0.0002123696222
-0.000215907266
0.0002143946986
-0.0002179651704
0.0002299442889
-1.880594745e-05
-0.0002268374254
1.096061025e-05
-7.349993569e-05
1.192671557e-05
3.252258191e-05
0.0002055177379
-0.0002263113419
0.0001853339881
-0.0002247505463
-0.0002311248066
3.086949561e-05
0.000213655446
-1.438922762e-05
1.740072875e-05
-0.0002341363077
-1.02908353e-05
-0.0002328864063
-1.675132564e-05
-0.0002394051582
1.387676765e-05
0.0002381903834
-0.0002375409803
0.0001957032312
-3.074818683e-05
7.29689114e-05
-0.0002358311422
0.0001936104176
-0.0002293758906
0.0002122967095
-8.248986617e-06
-0.0002357115028
0.0003041423075
-0.0002394223827
0.0003267639069
-0.0002384890417
0.0002154853611
-6.998751114e-05
-1.100963001e-06
7.319337457e-07
-1.545274609e-08
-6.887279636e-05
-6.565623616e-07
-5.125860738e-05
8.247517705e-06
-3.626176696e-06
5.92119011e-05
0
3.981689428e-08
3.858594891e-09
-4.185631209e-05
-3.693060964e-06
-1.278288904e-05
6.218658388e-06
-1.443586232e-06
2.17342425e-05
0
0
0
-5.885770184e-06
-5.122038899e-07
0
2.266081056e-08
0
6.716613081e-08
0
0
0
0
0
0
0
0
0
0
0
0
0
0
0
0
0
0
0
0
0
-0.0003914603702
5.956204179e-06
-2.215971126e-06
-1.00155409e-06
-0.0003898434624