/*--------------------------------*- C++ -*----------------------------------*\
| =========                 |                                                 |
| \\      /  F ield         | OpenFOAM: The Open Source CFD Toolbox           |
|  \\    /   O peration     | Version:  v2012                                 |
|   \\  /    A nd           | Website:  www.openfoam.com                      |
|    \\/     M anipulation  |                                                 |
\*---------------------------------------------------------------------------*/
FoamFile
{
    version     2.0;
    format      ascii;
    class       volScalarField;
    location    "2.36";
    object      omega;
}
// * * * * * * * * * * * * * * * * * * * * * * * * * * * * * * * * * * * * * //

dimensions      [0 0 -1 0 0 0 0];


internalField   nonuniform List<scalar> 
3259
(
31.9958045
31.9932281
31.98725924
31.98049363
31.97497746
31.97080648
31.96910467
31.96761431
31.93376679
31.93265795
31.93162828
31.93068085
31.98734516
31.98028586
31.95373292
31.92190106
31.89436372
31.87537152
31.84818677
31.84070323
31.80376598
31.80013855
31.79695844
31.79413015
32.02514708
32.00953808
31.95469307
31.88482409
31.82378156
31.77934765
31.73504375
31.71853619
31.676564
31.67048023
31.66491261
31.66018896
32.21943619
32.18242771
32.06097589
31.91953466
31.79566417
31.70869445
31.63627403
31.60476279
31.5539585
31.54373713
31.535361
31.52852746
32.91479647
32.80773665
32.4602713
32.11834224
31.84454575
31.67822019
31.5595616
31.50191828
31.43571662
31.420099
31.40823782
31.39902483
35.65736439
35.06201417
33.65115962
32.67522406
32.04259768
31.70343934
31.5076139
31.41286593
31.32369436
31.29887135
31.2825242
31.27061186
48.68608057
45.33215243
36.95509824
33.90613725
32.4709578
31.81552894
31.48357747
31.33962795
31.21772009
31.18080765
31.15850943
31.14344097
77.79998892
44.54580767
36.13304215
33.18365492
32.02406638
31.49190705
31.28050655
31.11878089
31.06606396
31.03623694
31.01761413
150.3844905
55.53964986
39.18417849
34.14212976
32.31404155
31.52764954
31.23365837
31.02730017
30.9561225
30.9171961
30.89440387
187.845335
65.01461973
42.23123681
35.14584427
32.6372393
31.58502987
31.19744708
30.9437465
30.85207362
30.80293756
30.77566417
187.1497027
70.33429741
44.43811926
35.98141103
32.94220399
31.64878241
31.16945705
30.86802352
30.75566847
30.69552507
30.66300381
172.5116133
71.93262676
45.59703456
36.54475377
33.18817449
31.70538323
31.14583705
30.79989341
30.6663822
30.59547878
30.5578426
178.0656915
88.19813998
226.8771801
184.9009953
222.4530475
228.5230158
199.8376667
219.6293803
196.6928043
48.22929186
80.36975917
44.97323925
558.2689566
188.5079798
142.1526647
61.08112979
49.0520365
1904.92342
1352.627444
185.7127957
75.18726299
65.07308199
1048.926686
1465.014595
188.5154026
82.85252767
77.74631971
579.3235896
776.0550895
2282.607201
373.0441325
434.3962618
1316.7007
589.5853948
139.3485706
471.7982184
917.0259046
1483.290067
1905.785874
208.687963
1318.188889
1132.152308
948.0411705
1314.994215
205.9722217
812.5139873
1025.270524
227.7704337
774.3781954
605.0416943
1119.353588
803.6265462
228.9612128
447.4986136
557.2654514
3261.955236
3679.401657
366.6922253
1993.043586
3413.704643
598.082181
5990.458633
174.815689
85.00271984
83.83636432
5963.95188
832.8844919
926.4760909
157.1589518
417.2503643
128.5172188
946.1798719
1212.096743
208.1709194
460.4686839
391.4921353
584.5507468
473.3755279
211.3685646
80.46645116
164.5185741
76.07034395
82.01900294
4742.571713
390.6175722
3349.23841
441.6557644
2448.841137
351.5723564
1549.816356
1529.613376
1218.348264
1247.442933
2333.970745
5078.412333
653.2349063
2823.677213
1528.619906
5709.249112
3329.779954
682.0102735
699.7559686
794.0317398
5370.216424
923.7372695
874.3795075
1582.021898
1599.539524
1208.425713
405.7238756
395.9134895
407.1846553
407.2900936
1198.807311
1118.692329
361.2364626
330.9643274
390.8029951
370.1307503
1138.795876
864.6161687
5906.8517
880.9770334
1442.942968
1052.504042
502.6734307
1285.566397
2158.822655
6139.934171
671.334077
4165.051287
2170.349988
2944.719497
1243.200573
3364.348019
4594.458299
158.2128939
470.3647042
145.7445755
171.9818331
1793.938694
4501.008477
4661.892787
1442.715035
1123.252042
3161.791433
2295.060333
5344.570973
5246.214876
1395.084607
1142.876976
4102.887532
4495.984181
633.7046658
265.6160851
222.5172665
318.6292308
280.2881954
663.634557
1528.551575
5283.852662
5354.33477
1808.067377
2166.352534
1984.414602
963.1544364
696.389188
361.9029745
376.7152064
994.1058434
398.175542
405.7557302
381.9146403
394.3021373
974.585902
486.3002308
1013.380667
820.2604915
5224.512709
2076.776424
2524.358844
1878.457825
5950.677128
6032.3826
1462.430698
1923.828413
6179.139605
1525.998907
602.2204108
1511.133058
4586.430434
3238.182227
1068.984307
5298.295383
6128.730374
4853.468092
1380.179571
841.7652756
2258.638352
1521.341169
756.7576058
473.3129324
1384.284282
4829.408576
6124.586221
1705.755647
1463.35181
4712.535817
4840.211516
3482.392498
3275.215724
1151.171375
5591.056844
5493.302795
4078.695103
5433.190844
5452.62813
1356.549051
5384.1595
3581.660785
3437.642587
3864.062606
2104.721481
983.5676798
1063.92029
4385.321619
1245.535065
1412.449981
1096.654105
1196.289527
4111.036347
4010.642479
1132.6918
1343.186751
2927.444168
3047.575795
1083.283148
4363.013098
4423.900836
5586.906624
3008.233225
2507.847304
4286.637514
2970.520833
733.2610886
2094.235834
2797.008448
5162.693176
5233.236212
1542.860483
1733.831531
5453.524802
5141.670581
1854.883478
2179.335031
1472.773755
1723.748431
6144.716973
3475.156304
3825.856919
2333.839377
3353.339775
6199.23856
1532.207688
6105.172391
5266.530852
6083.768116
1644.193459
6076.79549
71.73453355
45.58065816
38.19428544
6120.658791
6095.376621
84.95485978
6365.196148
381.5606657
317.6229608
189.00066
388.0107265
261.6864129
620.2316646
2254.605441
376.7245496
418.2984467
58.57307716
69.81614344
142.3628551
486.9741235
978.2824926
1448.834302
969.0334495
1080.463885
3509.17033
782.9740791
687.9305826
406.0688886
1576.158328
2014.439542
689.3544462
4856.842944
4179.242645
6032.829477
5444.014172
945.0493378
3660.538759
5805.289243
3967.654519
4394.595358
5898.741478
1766.554999
1416.157931
844.4299454
207.3394776
163.3239986
298.0281296
1032.67406
2795.850653
1958.599937
106.5494565
138.3814975
367.8272627
3848.717161
2515.203816
1937.386327
5061.456506
3905.000692
2567.882136
4536.019045
4149.5335
6321.305691
5999.454701
4462.206506
891.8949022
961.1105399
1931.242535
5862.472099
3281.135922
3629.046224
4731.422836
2979.907069
3442.127084
5844.228685
5782.33288
3811.801544
4022.757097
5866.040936
5830.613569
6036.872583
943.6775643
1910.426296
1591.872375
6096.156138
6001.564961
5919.021695
4691.803013
4379.535186
2659.891362
1461.362221
2107.745161
1680.714207
3846.607141
6060.148977
5229.369133
6136.266649
5881.221699
4313.85665
238.5288112
343.7564103
1188.447061
4636.035968
4540.730327
4719.875269
4710.283215
4588.852289
2967.270971
2947.037751
2983.484064
2969.610918
4585.442878
5381.715262
3024.436404
3048.83578
2897.731309
2984.373542
5469.774664
4273.887349
2700.935796
2432.833733
2927.224287
2852.201308
4378.542145
5262.905375
3110.547943
3133.856576
3076.774378
3090.101605
5310.239149
4815.76787
4734.781088
4911.946925
4688.699423
6135.86095
6364.332337
5980.841989
4678.590893
6175.738678
3063.178554
4446.864539
3106.38361
4081.385931
3073.87603
1260.182216
4181.054292
3129.371963
6009.492933
6226.911466
6124.628729
4713.496039
5356.362555
1397.806693
5953.843669
6218.780256
5865.634722
3634.801938
2600.019473
3633.754505
1914.601009
2795.281545
3768.77265
4135.151303
3804.386148
4992.850121
3157.786552
3000.336847
4297.124282
3113.078188
4608.270117
4748.008017
2998.809247
2987.266732
3021.339261
2994.726325
4775.156039
3408.820726
2019.887186
2056.553517
5529.116937
5521.098542
4752.88059
5883.826257
5688.734596
5563.756602
5533.931506
5766.972798
4500.890515
2420.47692
2702.040828
2112.263789
2219.134056
3853.476172
6025.428515
5107.075712
2950.335037
6352.72319
6080.628926
6060.480466
4066.822714
6022.109306
5825.61734
2469.986337
2793.960868
5074.617102
2925.507045
1987.040583
1956.82126
2183.772587
2112.8466
3089.723896
4634.197718
4335.883636
2815.263751
4202.449281
4408.666602
3939.080647
4154.518181
2767.966141
4191.323692
4103.747038
5349.49104
3921.916375
5205.638788
3194.955048
3215.370847
3149.390989
3168.64402
5188.597824
5184.849226
3540.892787
4097.780335
3257.504612
3339.07069
5165.521208
5777.988431
5644.255486
5948.947166
4305.151723
4988.079038
3602.592542
5689.817679
5757.838281
5675.410962
5687.522561
3672.881097
2609.298975
4911.392679
4206.689625
5581.79007
5720.844841
3027.708792
5871.176783
3977.916345
4215.130741
3051.502721
3572.631828
5972.428867
6063.707827
5871.267674
4577.031734
5155.503205
6387.155441
5885.670583
32.00162484
31.98464795
32.0049257
32.00177049
31.98494527
31.9954558
31.96144939
31.96243345
31.94897804
31.90264336
31.93084293
31.88999022
31.84936501
31.90122932
31.83827852
31.80856715
31.87973222
32.12625163
32.02090047
32.13377704
32.13676839
32.01633428
32.11985017
32.04768222
31.96982009
32.02188777
31.92812005
31.90253578
31.89923836
31.82057451
31.83717436
31.79634081
31.73920034
31.78796076
32.59353711
32.20793075
32.61004631
32.62925425
32.19388315
32.56912279
32.39931845
32.0986768
32.33220685
32.10714692
31.95471759
32.03883342
31.86672268
31.82325938
31.82028875
31.71117857
31.72706047
34.3570998
32.86320634
34.41073937
34.40051571
32.82423588
34.08753063
33.49101311
32.55250247
33.25587675
32.63920843
32.20159063
32.4698084
32.07431656
31.90266015
31.97371845
31.747251
31.71309598
45.58177319
35.42048954
45.61047148
42.78864596
35.18322714
40.29504645
36.7608982
33.94686451
35.83964328
33.92254278
32.8877277
33.48174738
32.55098487
32.16985574
32.33579295
31.88075324
31.76975647
68.24664903
65.74904657
48.63400671
52.10366358
45.40940695
42.28196675
42.18384744
36.50076639
34.45843573
35.42320547
33.40226138
32.73566225
32.97847122
32.13830927
31.93399423
105.6880678
73.44353695
60.68312401
52.75227054
40.40098781
37.42622064
38.29512162
34.60357759
33.68489199
33.88143007
32.51185608
32.22371244
170.158262
103.2206388
92.57082745
63.01919152
44.54491365
41.54320723
41.39360756
35.94140924
34.96120882
34.89590451
32.9444951
32.6182301
190.6056245
119.0751414
114.9722084
69.4197709
47.74316697
45.55914524
43.89967765
37.09193611
36.28738058
35.79029763
33.35463377
33.04973841
182.5816579
121.5438346
121.7507967
71.8303859
49.47594483
48.36562028
45.35904395
37.89139384
37.36731511
36.42534341
33.68177971
33.44269986
166.8787474
124.497282
125.7089827
49.72432245
38.04335804
33.74743368
163.8719743
226.8934464
256.6551806
101.4229961
120.5738692
101.0187615
224.0536403
329.2203235
331.171881
265.9601826
289.9546566
197.5141893
224.174379
303.2444304
299.7909873
330.9227939
327.8594479
229.5297436
202.3474576
238.1636478
233.389939
272.2098523
266.2177888
217.1249731
228.312221
224.0432237
194.2651375
1911.682506
1617.037173
1745.253622
68.51989088
2504.343646
1903.529883
70.45740588
76.743826
90.14467741
47.20350002
63.17729153
55.24882509
531.6154158
617.208436
662.7714102
245.8261205
294.6067767
237.0111828
89.44106559
76.35351897
114.8225043
56.9673924
67.63040367
73.61540984
55.92316894
61.65846126
52.90771992
1892.360727
2927.677573
2932.246382
1952.28677
1988.309683
1387.814456
113.1840237
105.8409699
175.1403285
72.20848293
88.9038838
92.75232549
79.24831254
84.41198767
68.8081148
1073.570167
1320.894522
1279.591083
1975.738839
1956.024056
1446.851206
121.5101467
119.9703472
190.5006397
81.56360105
100.0453351
101.2804785
95.83961778
98.26762253
79.84975637
601.7225149
785.8554182
749.6180371
1141.16495
1053.776926
743.5768248
1475.557971
1607.485235
2612.231552
397.0115065
658.5938239
583.9345674
514.8312661
497.9926034
425.665403
1266.56733
1847.570092
1915.819957
730.4205678
779.4054568
618.1247077
182.8480648
215.7239722
154.765009
500.7752042
376.3806971
344.7151341
542.7727037
516.8571741
803.4095074
1498.539542
2010.522841
1996.605403
2918.840074
2899.652162
1894.719308
318.1201582
327.3185578
210.3916009
1288.387453
646.8743004
663.4553061
686.1692745
693.6303173
1164.386709
1031.125966
588.12666
564.9440182
662.8812655
661.5112437
1258.179896
199.0020869
296.7968656
313.8224292
849.0474607
1298.336148
1175.197408
1244.052726
1214.95647
1003.868011
315.9129612
307.2475743
226.5590416
748.3952062
563.5538128
577.1689898
340.7173407
355.9302536
670.6268367
1074.387178
667.6250522
678.2336925
591.1131702
605.1156784
905.0810865
229.4213413
325.7233955
319.0409141
458.342406
554.6499539
534.4995548
716.8768198
685.4946231
537.9650415
560.986681
1353.717283
830.2309448
1615.053547
964.2429699
127.4761075
121.2410519
180.4996666
84.87327294
102.3261922
102.1111538
102.0007859
102.3598711
84.45321472
871.9740026
1322.690476
1122.94298
1039.636865
1016.728034
899.271053
253.00848
148.9537862
113.1991164
315.7871107
287.1556616
386.3627418
112.8629389
138.1867792
170.6029063
974.2723091
1127.438483
1086.435774
1633.872871
1513.131481
1162.290918
249.2488842
243.8192472
205.5799386
427.78377
306.1693886
298.9434875
286.8518569
295.6034634
417.3304964
531.1641184
321.0808831
335.717002
302.1485818
316.7034461
514.7569939
213.9841172
260.5425693
254.5568344
122.0253668
137.498194
159.2234722
186.6342437
77.18943727
111.9074654
94.27364814
129.3860334
122.1647835
79.26325772
577.9668497
894.3520166
475.1451167
1121.700531
433.9643553
316.9099831
1666.512303
1422.357938
2362.711259
274.1943458
402.450455
529.2557425
2120.108805
2195.689437
1584.680828
1505.469971
2083.327807
2119.945045
1532.56527
1502.743092
1197.03806
1277.721487
1625.670176
1571.296252
862.8515536
822.8945748
627.2029255
2476.426192
1606.072439
1732.174144
1182.014082
1224.345391
1627.238362
1888.151488
2034.673632
3709.995704
710.159203
1022.203048
977.3980898
729.2500462
878.2077614
836.8650695
1066.966959
982.0677623
761.835342
1308.780222
1367.235204
974.2429336
823.9505941
1158.753691
1228.485535
2089.461242
2077.373482
1568.959972
1625.232972
2153.031136
2111.235664
703.6696642
705.3489348
1262.895504
403.3389723
518.9632989
521.0165571
510.8978434
515.9518428
400.0936386
407.8107307
519.5263704
516.9776426
521.3003747
520.7999672
408.0066732
1174.168219
698.6455493
701.9486028
627.9695339
607.355167
1054.418245
352.1844344
449.8527134
460.4907413
420.2579854
433.7386373
341.4764866
384.7340363
495.2287093
504.0453097
474.9449817
482.7250051
377.7680241
1224.143907
663.6798861
644.1603521
1515.980131
1354.2261
781.304555
903.162676
1074.916001
1051.048383
1227.302218
872.4257467
877.5817828
794.9245397
831.8274788
1173.653957
518.9612555
655.421126
627.7174073
1358.973414
1985.302037
1794.888313
3946.773781
3514.759951
1973.060529
797.3891459
2425.843538
4157.138498
3798.564967
150.6674035
231.6818539
290.2005635
192.9946818
133.2490843
436.355718
225.8644656
345.1589661
414.6861294
607.1938998
161.8462154
249.4290465
204.9064045
293.8827887
284.4123518
169.4554166
2738.405866
2877.101998
1858.429761
1413.621589
2007.327483
2037.03323
1408.597845
1365.770585
1099.516477
2888.425231
1803.366013
1889.974473
1613.114236
1700.750297
2532.588382
1422.958415
1923.226676
1877.044994
1627.278832
1754.310222
1210.035845
436.0679729
401.3649952
560.7006593
251.9696642
308.8956056
328.3718559
268.1066261
289.0480449
236.8052706
306.815992
386.3420376
402.4265506
348.8101334
366.9089956
293.10616
765.6098773
491.7471661
463.8037919
2040.178427
2026.879873
1514.482641
1866.471532
2832.025367
2678.732941
2094.456871
1505.14392
1549.103994
1430.389098
1465.371751
2038.041967
983.5732037
1186.924822
1161.626169
536.6715845
549.9118262
721.2757713
366.5554139
445.5124004
437.5962467
461.5457288
453.7686889
372.16288
643.2007529
656.5221183
1053.447961
401.0432847
503.6407551
497.6793681
513.4382539
508.9966148
403.9504969
386.0830572
476.9531884
469.5239941
491.102211
484.374291
390.7223234
930.7487806
617.5630345
631.1886832
601.4656384
577.5544863
472.8604601
954.2425208
725.6272163
758.5910286
663.8926242
694.060921
858.2293859
1192.88859
1897.356118
3232.860377
1575.536946
2513.580578
2234.692561
3278.315506
2858.148838
1732.017267
784.4779764
4225.916687
2330.643688
2618.444302
1870.391355
2087.713125
3773.443127
1104.631935
1409.076366
1318.475359
1138.838801
1717.929713
2141.652696
1237.430127
1559.397876
1029.374553
2381.784278
2791.042975
1795.063611
619.7484086
874.498943
1095.695824
611.2172863
747.6209839
557.3380782
1722.469732
1094.427912
933.4187366
1635.315852
2255.938346
2479.213012
2049.338032
2077.583523
1488.534192
1946.426148
1986.543359
3361.617966
1171.462105
1474.044237
1444.112703
1795.683173
1704.469485
1317.673915
1433.542115
1507.704931
2259.639832
1008.654915
1174.579449
1136.370608
1278.375964
1223.285682
1035.800063
1293.36822
1738.975168
1624.108809
2016.13094
1884.214454
1356.305542
1124.120051
1405.290749
1342.272673
1534.930718
1469.922614
1165.096463
3885.699505
2156.708628
2284.486216
2319.53963
2648.083883
4441.556461
1182.975156
1610.207422
1477.586171
1966.383219
1768.020425
1269.303959
1023.699585
1441.771241
1525.708382
995.2706462
1060.431183
771.8263895
2335.24771
1566.510988
1468.688367
1831.009204
1744.885345
2660.629445
1555.440453
2064.380905
2053.486824
2432.693844
2245.419496
1669.244336
1976.837802
3554.779617
3207.800947
3930.981118
3725.435316
2075.744928
1533.330347
2248.507219
2131.649407
2733.703802
2425.742283
1614.975665
2371.898672
2184.880705
1446.125939
1790.372069
3024.578333
2622.843177
58.35899634
51.92237128
54.75778706
42.59043346
45.87230096
50.76460622
39.7540555
42.69246903
40.20914832
101.6516342
101.0367243
84.76832437
367.0086981
269.8232423
277.3634696
254.875373
261.8766574
328.9548579
350.5683577
548.4635128
632.4476394
331.169503
418.2187173
349.3329267
1483.717835
584.0137414
529.44749
1000.772021
1762.798676
3548.039178
409.0870248
647.6112558
538.8459475
721.8748574
713.4209536
422.6144339
85.75415606
75.67029208
66.42883218
105.7122636
87.92332431
95.65371563
525.7366031
566.6358044
507.0027109
1150.364988
791.5073235
693.6068959
965.7659438
854.9734475
1244.646773
1004.166079
1194.459267
1134.348569
1364.793781
1271.169597
1040.201478
3031.775058
1792.417176
2023.98349
750.4877663
609.6104944
635.6918831
562.2055127
584.480452
717.7988463
1780.229559
1162.024968
1056.895514
1343.797973
1258.668563
1844.661357
655.4752308
856.3459841
907.0303406
1076.40779
1634.589728
1214.628408
1268.563065
1106.807715
1146.904489
1521.562123
885.0733044
969.488889
971.508888
192.5777943
227.6753932
248.5543263
329.855008
255.7728202
232.2535869
1242.779182
1182.719072
1001.017217
2474.015844
1563.155614
1691.479978
1358.061162
1445.633205
2190.285158
114.6795146
129.2896689
121.2423842
167.0292755
152.1488334
122.5306198
248.8884502
182.9056211
239.5803597
917.6178553
1029.713007
1010.680473
1096.321027
1066.594049
936.2621388
1769.27468
1292.020993
1355.528146
1132.920313
1106.588596
922.1559681
1810.320458
1341.513296
1386.539501
1248.074429
1288.197325
1689.46283
256.7732933
332.0809694
291.1866947
451.5589681
391.755941
294.7062134
832.0759582
525.3866587
690.2977091
31.98696133
31.98558684
31.99535013
31.98102672
31.97321669
31.99029876
31.96329698
31.95305699
31.98378275
31.94292486
31.93383365
31.97751657
31.92609312
31.91993188
31.9728288
31.91590496
31.91091518
31.97006266
31.90793878
31.90582961
31.9683421
31.98948118
31.98990211
31.98752922
31.98174802
31.97485535
31.97452876
31.94817969
31.93830928
31.94661073
31.90904409
31.899038
31.91513715
31.8739568
31.86658257
31.88944248
31.80221026
31.79768642
31.8531785
31.79009789
31.78414649
31.84409062
31.77996797
31.7778013
31.83804113
32.04706202
32.04926616
32.02601806
32.0355325
32.01818755
31.99904338
31.96773862
31.94622547
31.93698016
31.88553353
31.86425646
31.86742411
31.8118527
31.79613177
31.81015515
31.7244572
31.69954808
31.7467339
31.68294325
31.67058263
31.72585511
31.66170091
31.65643882
31.71306532
32.2991334
32.30795923
32.2202071
32.27913684
32.23683737
32.16693971
32.13200459
32.08445235
32.02519775
31.94568241
31.90381464
31.88483459
31.79801855
31.76854034
31.76875789
31.682151
31.62633598
31.66056533
31.59431438
31.57028832
31.61852732
31.55309364
31.5421983
31.59461765
33.2057216
33.25556766
32.89971574
33.09742311
32.98418967
32.75729898
32.67589711
32.54668733
32.37404893
32.20261435
32.10713566
32.03982285
31.87622959
31.81626294
31.79386145
31.69277409
31.58442001
31.60371259
31.52991276
31.48715535
31.52625478
31.45657991
31.43648434
31.48445763
37.14687147
37.39980618
35.5495058
36.06597865
35.55338905
34.75728146
34.23464634
33.82770244
33.3760492
32.88042776
32.64554315
32.48508202
32.12385632
31.99739294
31.93614008
31.78150318
31.5876577
31.58246033
31.49135195
31.42467777
31.45318135
31.37493701
31.34012764
31.38479055
53.04010889
53.13664594
49.65243632
38.38597868
36.98922539
35.94822591
34.31833438
33.75354077
33.44224209
32.62155615
32.37025898
32.255614
31.96448267
31.63071195
31.60175691
31.4853857
31.38285592
31.40116014
31.30882762
31.25483525
31.29494677
86.8427347
77.97086757
71.51832581
47.15298569
43.21640497
41.40958423
36.76587161
35.58324003
35.11699041
33.4016329
32.95422379
32.7878123
32.23584988
31.72928673
31.67468951
31.50629009
31.35917624
31.3681837
31.25625963
31.18056865
31.21632351
157.0709241
130.8103474
125.1996645
58.2347572
51.13090226
49.19200413
39.88144251
37.9078691
37.39058051
34.39119825
33.69739148
33.50635999
32.55770919
31.86474212
31.79475394
31.55482909
31.3522469
31.3525891
31.21566169
31.1163744
31.1481774
189.2402787
158.1126147
156.5125091
66.7676927
57.62236498
56.26796128
42.74533535
40.09690612
39.70153813
35.37451544
34.44645483
34.26588936
32.87399721
32.0115799
31.93923592
31.61729292
31.35721923
31.35339657
31.18510726
31.06142837
31.08964808
185.882394
159.2463578
159.8461253
71.03895101
61.24903224
60.64179346
44.72991848
41.67806986
41.45302655
36.15363297
35.05895214
34.91630331
33.13619714
32.14604881
32.08212791
31.6790664
31.36756587
31.36061052
31.16121457
31.0139226
31.03899408
170.791758
149.7232003
151.2286788
71.93167501
62.42141528
62.30978445
45.73752662
42.50640324
42.42584591
36.60354856
35.4313498
35.37652538
32.20321191
31.37026428
30.99364895
53.55266775
118.9746782
112.5611398
133.6872584
154.2852531
151.7450769
183.0669737
160.4820607
160.7874238
189.4391311
381.143134
429.8766195
420.5855553
718.289906
695.9686711
881.1232166
1316.882248
975.7657389
974.8076825
906.7934825
914.2793976
1143.327804
978.1801168
756.0982671
734.6594981
970.4867273
963.812833
1304.454726
486.9904446
498.4668686
626.2595093
1106.505661
890.4679007
899.1819789
409.167656
152.397891
153.7591866
176.5853798
186.9847155
155.1359171
141.9114935
449.165358
387.8515303
394.8865459
343.8509687
350.8630761
398.7845363
565.7781043
464.2725968
474.9177292
405.2598172
412.8830471
485.8714674
75.22881245
84.79774511
88.63995311
90.70680043
90.62391585
81.96559088
640.1859795
452.0865625
363.353313
948.9833418
952.1754281
1220.454704
1191.182189
941.6295351
944.5630407
858.0946797
840.8607593
1098.099429
1162.118827
888.8839348
872.2139423
1019.808624
1002.945783
842.1178508
1363.570476
1098.167385
1129.613185
927.3425018
952.6263344
1085.923387
580.4246558
567.05401
603.8409834
696.0369043
609.1488268
590.2324815
824.4391834
836.4176647
1011.32506
961.301911
801.9097123
813.8873577
992.8038417
883.0745092
908.8192943
66.30010609
60.9466927
64.23956641
376.0656765
330.4476131
337.984328
191.2764182
219.5664085
215.8111633
61.53816413
70.19406829
65.64128204
123.7620485
112.8853857
119.7100304
413.6564056
481.5326228
467.2590308
189.2424012
208.3318371
177.7236242
322.464934
269.3201895
289.6485815
31.9922279
31.98677128
32.00591129
31.99589855
31.99509269
31.99110701
31.99439017
32.00553
31.98624715
31.98868993
31.98647638
31.98436327
31.97753281
31.98600078
31.95806907
31.96900732
31.97436207
31.9671024
31.96711926
31.9575532
31.93345546
31.93292865
31.94712169
31.90945033
31.92201843
31.91927593
31.93764473
31.92888819
31.91844399
31.87534348
31.88564282
31.89833016
31.86406225
31.87544672
31.86281113
31.90712014
31.89028077
31.88147984
31.82679644
31.84559411
31.85514389
31.83039386
31.8381516
31.81762995
31.88384412
31.86038417
31.85446944
32.08460234
32.04205782
32.13817668
32.09214775
32.09128174
32.07603209
32.08613352
32.14216597
32.02297237
32.04993978
32.0458241
32.0931122
32.05470771
32.0669889
32.0111166
32.03628447
32.07002472
31.98654761
32.00282879
31.98553252
31.99078469
31.96120843
31.98630122
31.91274111
31.93772806
31.95969167
31.92080472
31.92618131
31.90523004
31.87147232
31.86583573
31.88961079
31.82092413
31.84352726
31.84576269
31.85291607
31.84527128
31.82796488
31.77603466
31.78455711
31.80289088
31.75301705
31.76837407
31.75672601
31.79886278
31.78245219
31.76985429
32.43704846
32.28825627
32.62941783
32.45781331
32.46030332
32.4142733
32.4346299
32.64860535
32.20868831
32.31888997
32.30940421
32.50155202
32.37579331
32.40070265
32.26207421
32.32850275
32.44574951
32.13885357
32.20165978
32.1717293
32.25561328
32.15051783
32.20411359
32.04376852
32.09768669
32.18002824
31.99061957
32.036608
31.98964071
31.97569829
31.93871272
31.99050109
31.84542585
31.89023642
31.91864583
31.85265483
31.86538728
31.83004483
31.77872837
31.77132088
31.80554965
31.71176541
31.74081101
31.74333832
31.74755171
31.74085167
31.71861402
33.687956
33.17834771
34.53583537
33.7567979
33.7984099
33.60674551
33.68088231
34.51583457
32.85574071
33.26891682
33.22900696
33.87365044
33.45244195
33.57447732
33.05916473
33.25618044
33.68902768
32.66522928
32.8883567
32.798619
33.03236234
32.74867373
32.90002203
32.4668801
32.60399422
32.82700921
32.28789885
32.42276991
32.30785903
32.32077065
32.213757
32.33483113
32.00610823
32.10525706
32.19038398
31.96848023
32.02173228
31.94413549
31.88659879
31.84682778
31.92018254
31.72989504
31.78403409
31.81127462
31.75013546
31.76381233
31.71862848
39.6525931
36.97466834
45.46416619
39.82820288
40.05609578
38.63215049
39.35747948
43.89923931
35.39855434
37.24570013
36.84633757
38.8468802
37.24335313
38.08037546
35.51113326
36.23452378
37.84109659
34.31332822
35.14702973
34.68922706
35.08295852
34.38605638
34.91295026
33.52790954
33.92420989
34.44770793
33.12118148
33.46733582
33.15503478
33.11201147
32.88480814
33.18205778
32.40760018
32.62886342
32.80699533
32.31812908
32.44454447
32.27175942
32.15642482
32.06951563
32.22194251
31.83613932
31.94261073
32.00595906
31.84643102
31.88964462
31.79945719
68.05796815
60.22117273
59.95006985
57.76370768
59.20987867
67.95772202
49.35831648
53.21842401
52.91511714
39.72501679
38.25966833
40.11325486
35.75444299
36.84508256
37.88748076
35.12915568
35.88819058
35.0190484
34.58383447
34.18844509
34.89025298
33.16259057
33.62137064
33.92728451
33.05689978
33.30068925
32.9286417
32.6374898
32.49566389
32.79225216
32.06370251
32.25689027
32.3613708
32.07916986
32.16349681
31.99417586
91.65737503
84.62558285
95.21330306
68.16283704
74.7800091
80.10429921
47.17450638
45.18848498
49.91564324
39.41644747
41.84027777
43.24271754
39.12001736
40.39145294
38.32370232
36.72024131
36.21751964
37.60844968
34.3039674
35.14107343
35.52659073
34.31702773
34.6760502
33.96512473
33.31331599
33.13612763
33.64871958
32.41226412
32.73206575
32.86538452
32.47421638
32.59839727
32.31394779
140.7397632
136.0275683
164.1401856
99.68957608
114.8135159
118.7541703
106.053288
110.6362187
96.75105605
54.69520044
53.0028009
60.73345187
43.65509397
47.56455899
48.80894816
44.74036469
46.13933978
42.53697871
39.05445805
38.58493491
40.77257398
35.63996046
36.91628736
37.2927344
36.01763424
36.42025974
35.27793943
34.07948017
33.8939088
34.65507204
32.83693477
33.30037998
33.44181818
33.00877997
33.15350745
32.72720079
160.2470371
159.4678511
190.226898
117.9425639
135.6170064
136.7425449
132.5473546
134.3007676
116.5993475
59.8111582
58.82274353
68.21152472
47.12783721
52.07514243
52.86440823
50.0538308
51.08549284
46.30485447
40.9877107
40.65159477
43.43789341
36.8672048
38.51669729
38.77652134
37.76773578
38.09699204
36.56104128
34.76984779
34.61168433
35.59274543
33.25579678
33.84926559
33.97394406
33.58206978
33.72262017
33.15907384
157.3199498
158.0949873
184.0707777
62.10100384
61.78896738
71.52089191
49.25320745
54.6255931
54.90251772
53.592369
54.08556918
48.74573582
42.21263375
42.01206021
45.15545766
37.7417487
39.6045923
39.7759269
39.15352703
39.33103302
37.53970197
35.27880134
35.1683972
36.29395599
33.60572498
34.29086551
34.38102509
34.08803251
34.20285362
33.53579233
55.1469316
55.33686268
49.92111387
39.96215878
40.02500546
38.1002493
34.46312129
34.51067272
33.79806222
236.927374
202.9044556
193.890329
217.0965004
209.2001961
247.2517821
330.3399116
275.8658724
274.1029238
278.0261999
277.0662368
331.1838199
274.4460944
230.2687446
223.2529779
241.9426024
236.1207576
282.6003691
300.923713
263.9823754
266.3501592
330.342516
278.7907486
278.5912825
278.4141858
278.6519953
329.0080308
58.4478742
51.83234769
50.73837959
46.806201
60.01186646
54.19617156
55.43084096
50.40260981
51.73775504
57.35891405
84.68107214
96.14740433
101.2350984
85.50853733
90.88673299
81.54894177
124.726021
105.6787657
98.72207062
110.9485434
128.0993224
130.5664593
122.1918588
125.4024232
108.7203311
179.5843124
148.5913364
144.9834589
121.202323
138.3183408
138.3517695
137.4624128
138.0222511
120.6718266
190.1663908
160.913131
160.8242714
1111.643879
962.2470812
985.7688566
916.8638777
940.8719621
1078.369998
453.5465257
441.7112237
388.7238507
632.5909569
521.6207519
540.2911004
487.5974744
502.5877516
606.4172445
193.4461681
171.8345516
161.2713707
187.5813086
177.9338837
205.2384071
843.5577218
679.2372754
656.8972094
321.8047975
267.3684814
264.1146752
272.2198174
269.7671877
324.8470481
969.1223788
974.1909434
1306.741599
664.0576394
741.7017833
765.7706169
729.7075259
738.02928
664.2534569
1154.45883
920.7920634
926.901245
792.2700239
771.7865014
1004.655183
662.0660138
711.4820082
722.2940587
686.5914325
700.4654344
661.5501331
1286.591704