/*--------------------------------*- C++ -*----------------------------------*\
| =========                 |                                                 |
| \\      /  F ield         | OpenFOAM: The Open Source CFD Toolbox           |
|  \\    /   O peration     | Version:  v2012                                 |
|   \\  /    A nd           | Website:  www.openfoam.com                      |
|    \\/     M anipulation  |                                                 |
\*---------------------------------------------------------------------------*/
FoamFile
{
    version     2.0;
    format      ascii;
    class       volScalarField;
    location    "1.52";
    object      k;
}
// * * * * * * * * * * * * * * * * * * * * * * * * * * * * * * * * * * * * * //

dimensions      [0 2 -2 0 0 0 0];


internalField   nonuniform List<scalar> 
3259
(
37.00862208
37.00634569
36.99655576
36.98266476
36.97111393
36.9630233
36.95866011
36.95614349
36.90996238
36.90910593
36.90868509
36.90842118
37.04620654
37.03889673
37.00680007
36.94400144
36.88503005
36.84425477
36.79851174
36.78398507
36.73213832
36.72933535
36.72798657
36.72726606
37.12957488
37.11596562
37.05707834
36.95361151
36.83061251
36.73663904
36.65433094
36.62109512
36.55981701
36.5531628
36.55005552
36.54879965
37.31303354
37.28982731
37.19231928
37.03072512
36.84888008
36.68195865
36.54006308
36.47487508
36.39417601
36.38159058
36.37548449
36.37311373
37.70989551
37.66689679
37.49123389
37.21833224
36.93698657
36.69621133
36.47104923
36.35076545
36.2386273
36.21452948
36.20359923
36.19935839
38.62426142
38.50672137
38.07238181
37.58265473
37.12458871
36.76307433
36.45303334
36.2539487
36.09487955
36.05202032
36.03369586
36.02653862
40.61378343
40.48820081
39.13075072
38.17655172
37.42818526
36.8907373
36.47046387
36.18882827
35.96207029
35.89459499
35.86563381
35.85438877
43.5310385
40.82308225
39.0188059
37.84132704
37.07347511
36.51682946
36.15115408
35.84327543
35.74389124
35.70061439
35.68402925
48.69189446
42.87519447
40.01744448
38.33254695
37.29500615
36.58353722
36.13467496
35.73885345
35.60206978
35.54155304
35.51845451
52.17457317
44.72788751
40.99659397
38.82158941
37.52507058
36.66272192
36.13609435
35.65061897
35.47292222
35.39256478
35.36181739
53.85738118
46.08777657
41.78775334
39.24301531
37.73889394
36.74356338
36.14367908
35.57744589
35.35847484
35.25755686
35.21835445
54.58188875
46.94402175
42.34219086
39.56240989
37.91863946
36.8172117
36.15318662
35.52015627
35.25987446
35.13840981
35.09047727
49.32856921
43.95241291
53.15643397
49.80010871
54.87303294
53.46743137
55.55490522
54.98549107
55.59630335
40.58815794
43.43424719
40.35956436
54.13585125
45.95020383
48.12668109
43.37330687
41.47074778
57.2563172
60.20188861
51.85938741
45.6731007
43.98731676
55.20293703
54.82415785
53.7214211
47.33323728
46.14367209
56.93698774
55.87256232
41.36411525
58.10716681
57.78564093
60.17583087
54.50877766
47.02574079
53.27143873
58.69123665
54.94940846
56.98266447
51.68825508
58.2672454
56.79111379
58.86978759
58.41712397
51.42984516
55.67419933
55.2960188
54.40847062
57.27566364
57.54267861
56.71507375
57.23024938
54.21932109
57.71913168
57.05895965
44.48566098
46.53422888
58.14852431
40.86626441
69.19802932
50.12150223
59.6035908
54.53905324
48.38048251
47.63518483
69.73182619
47.7008201
45.96082804
45.47443057
52.15003892
46.34267159
45.47685239
42.17033193
55.34746337
57.89174721
58.05118265
57.58124272
57.85973582
55.27845697
42.42519071
45.30776289
42.40819676
42.4543803
75.49838963
50.66700698
68.82585267
48.73246991
64.13105231
49.68507461
59.35277431
59.54403278
54.91260275
54.89174471
42.19080038
53.36674077
56.51639353
43.06298134
41.96295268
56.73027833
43.87928109
56.37224663
51.19298304
48.69864432
61.47247264
58.3435659
57.93440737
56.07880589
56.25247592
57.56279965
56.20083493
55.60653806
56.75704619
56.35889173
57.44859127
59.31650558
54.20886132
53.09133438
55.37435592
54.53251482
59.27411696
55.89348938
57.77791526
55.81143945
42.04381136
44.6312942
57.38948798
41.82831007
41.97313952
71.01019769
51.92512121
69.08339799
41.22801544
42.91399049
58.16583546
44.15547413
51.71386343
44.33837827
48.78162427
44.15590809
44.45813252
58.26241222
62.01371587
60.18566596
60.10064752
54.98913906
45.03909217
44.83152534
51.44252122
50.9941195
54.62064607
59.66430544
64.29066903
62.49643763
56.09107311
50.7463772
49.10000806
52.66752225
51.26093167
56.48759139
55.38275194
51.82554107
51.66263729
56.47536359
44.85647767
44.81308882
55.49494164
57.39520756
57.38363683
57.32973513
56.6187482
57.10628515
56.8578758
57.30321802
57.16405146
56.62507422
57.47499413
45.26414135
50.07389638
61.78593232
61.03072577
60.45903112
59.68634434
59.31481994
59.03119591
40.46669418
40.90530401
70.21896384
65.19636378
51.59227808
65.61598625
50.85899843
43.79727884
43.32796036
57.63780818
66.14154954
75.98163831
59.60399192
55.10468703
64.32830306
60.54886822
54.23768162
50.53249208
57.50056969
57.22549771
56.97068258
58.61903359
59.97641585
59.7078493
57.91428701
46.61322661
45.39482431
54.9341781
52.9632947
51.99429098
47.18793734
52.25262588
51.55786577
54.66227881
51.01525133
47.14095335
44.34402277
45.61312446
42.14556824
50.05598083
48.84843653
48.2164134
46.44682287
45.05702791
48.36419725
47.01892349
46.63761987
48.24711271
40.58782427
40.43005777
64.60383195
63.70723668
59.37238209
65.50182794
66.97834409
66.04657473
66.43260136
65.54458813
67.45623809
66.18669798
56.51669017
63.56387051
64.76442673
52.27083457
51.84155288
55.54981409
56.47104958
53.68851207
52.49667288
43.67625519
43.70995109
44.68385773
43.83430286
57.53326502
44.80523646
46.20866654
43.73643704
44.3215795
66.12369063
41.5542224
64.72634483
56.56820609
64.23467671
41.55267045
71.264457
43.05248915
40.8823502
39.41119894
69.30034115
68.72763162
48.54919313
69.78761769
58.06243707
58.18075002
55.73646351
47.20198811
46.234844
50.81196146
58.27571287
46.89202295
47.18102371
41.82629905
42.21293418
44.95456922
52.54898417
57.17180199
60.43489385
41.92862394
40.82980673
45.23509509
50.8940849
52.9230912
57.96246457
61.41094932
63.33799617
56.07291832
57.4607507
50.09347811
72.34597129
64.11006295
42.37287625
69.97776431
58.89906418
47.45144748
50.4295583
68.65038454
41.00768585
40.66103503
48.18072905
48.52669196
46.74971781
49.27998569
43.86911913
42.68226655
41.17545999
43.69615724
44.1129557
47.80566468
71.40692744
65.02224185
61.78921472
74.92963925
71.58871528
42.56412925
49.52698784
47.58660622
61.55071804
60.54732602
48.73366174
51.5134635
50.4704211
42.02624726
57.56798883
43.91902615
44.69536161
55.06110956
43.194764
44.77389504
56.55783194
55.8882117
45.51509255
46.31052259
57.27631254
55.57782067
55.91159944
55.57334316
44.85296548
45.79221431
71.03244245
68.75235237
67.74515706
52.74225673
50.30369831
42.17263613
59.66500793
62.24249111
65.26928945
46.33669251
67.09176112
58.80153519
67.57262689
65.7381966
48.76105435
45.73015913
46.69366725
52.82771366
54.97592438
55.41370175
54.27770998
54.57198246
61.45481611
61.04866592
61.44996514
60.14694187
60.54826033
60.81227374
51.5410009
47.15995439
47.50164041
46.65297268
46.87747393
51.85222515
63.48957346
62.57813735
62.66334955
61.91136349
62.26663677
62.96880347
51.54338556
48.55599196
48.95097042
47.83770257
48.19706673
51.60773252
53.74225954
53.69475007
52.97471514
53.03897418
73.71624958
74.4820422
71.2839368
54.71772794
74.01204292
65.93772175
73.48268503
66.57298136
69.60616647
64.27003833
54.09976236
71.37599532
65.28976227
60.10277998
59.45926134
70.25406941
53.83733198
60.43221103
61.78683595
65.67327414
67.53545074
64.37457401
70.22149848
65.57836143
70.90681858
62.86589664
66.60810404
70.06179333
72.14094378
71.30984816
56.69572884
57.31495449
57.66731666
56.24763674
56.35133413
56.1739534
59.00448582
59.23512129
59.62562025
58.30679108
58.6641596
58.5244186
46.19623906
47.06590888
47.07724053
52.54908931
52.33604564
49.31962603
53.65997746
53.58669969
52.51840232
51.69671779
52.49755123
49.05084938
46.69127833
46.5767278
47.03656462
46.88780816
47.70947241
61.03327814
54.39556705
43.18635111
63.26121526
63.03134284
62.5446057
46.96430477
61.03025071
60.06859149
43.00536774
43.30701857
52.06936415
64.35474641
62.66654958
62.63406347
62.62670742
62.65167029
64.0364068
65.9357766
66.36028103
66.33241645
70.33843895
70.06629709
70.52332955
70.49168687
66.15527817
67.84868211
69.50066346
71.15114779
68.04888231
52.2195301
50.15888127
50.59057724
49.32857774
49.74501688
51.85766178
53.02310552
51.8441555
52.29355137
51.02673059
51.45059114
52.90031473
55.82650138
55.41523034
57.06599968
47.70984361
51.03158953
45.13629397
54.69422224
55.34951425
53.9331391
54.36823151
45.71959607
43.81562015
50.31450495
47.34567569
54.27151531
54.61947791
44.08932067
63.21440051
46.5619954
48.21661328
43.31794602
44.88841495
64.37116292
62.85278362
61.85266919
50.31465198
55.63777988
65.11386137
69.68145648
37.09935253
37.04416856
37.10217761
37.09675645
37.04322848
37.09062341
37.05531005
37.01950027
37.03900788
36.97124726
36.96238632
36.9462571
36.86155317
36.89875599
36.83765272
36.77463403
36.85318904
37.24798399
37.12627973
37.25408489
37.24669872
37.12323936
37.23548294
37.17320249
37.07590202
37.14582198
37.04208654
36.98187449
37.0028663
36.87982603
36.86119594
36.83932987
36.72219731
36.75515415
37.57116222
37.30636358
37.5847136
37.57930545
37.30315936
37.55779378
37.43890927
37.22486183
37.3932859
37.22205141
37.07458324
37.158141
36.96700982
36.8941955
36.90639629
36.74020414
36.722151
38.29407449
37.69123788
38.3169043
38.30898332
37.68849416
38.23046446
37.98301752
37.55144533
37.89066653
37.57828383
37.29086298
37.47082501
37.16207971
37.00464202
37.06755513
36.8162193
36.75306989
40.24312725
38.55831532
40.2907601
40.05281968
38.52728781
39.67675213
39.0391366
38.1931711
38.815589
38.19209682
37.70669051
38.001787
37.48982995
37.23139203
37.34105129
36.95955748
36.8449069
41.927175
41.92447955
40.62878553
41.32565851
40.6278906
40.12160317
40.34990628
39.11248278
38.39628838
38.78070607
37.95817512
37.59510987
37.73124416
37.17182787
37.0068298
45.54030504
44.0648913
42.63480691
42.36931673
40.26582141
39.39316922
39.7455718
38.5263611
38.09228733
38.20475211
37.43662373
37.23496816
50.25623062
47.3842043
46.17223869
44.31682374
41.4374624
40.58055871
40.73409617
39.11795233
38.68120857
38.70062032
37.71959449
37.50795375
52.97291447
49.74688077
48.99395464
45.81332078
42.43014338
41.7291842
41.58895973
39.64116476
39.26641548
39.14431389
37.98252206
37.78738854
54.22229656
51.09462223
50.71832332
46.8013521
43.13354069
42.64846622
42.2089834
40.05025642
39.76642028
39.49292442
38.20287779
38.04125688
54.74848698
52.27467954
52.13226054
43.27919933
40.13075477
38.24884556
48.49424997
50.14142729
51.43431934
44.29137334
45.26896145
44.72685164
52.80204154
55.12127154
55.57763954
51.83229144
52.90168869
50.58463643
54.72920813
56.52707668
56.73156239
55.69428361
56.0189908
53.74984998
55.48475249
56.52178921
56.56463967
56.2757774
56.33519099
55.09726237
56.59323083
56.63410973
55.65381765
56.42354675
56.05537711
57.99692198
41.97677128
58.82912227
55.94003364
42.77246436
42.96294735
43.69883664
40.52624607
41.85277634
41.53828248
53.49075804
54.4119297
55.11903076
46.85143622
47.86554592
47.08892201
45.80944036
44.41152057
46.16900639
42.7305515
43.8166821
44.58483073
42.2747275
43.04102392
42.09897716
57.56704745
55.35042512
54.8394131
61.07552128
60.90465827
60.19521476
48.70415632
47.72137728
50.69468563
45.14300615
46.65565381
47.24448219
45.31977319
46.015167
44.58933688
55.11738467
52.73592497
52.96046467
51.3730916
51.19873501
54.72075325
50.52935842
49.98080189
53.18380588
46.97130279
48.66235879
49.03218533
47.76936754
48.24614079
46.58858854
56.79966405
54.35958743
54.75548932
49.65713192
50.7878465
56.04608585
40.26526971
40.40197176
42.18268069
57.9959287
53.50458789
54.91845433
56.89314147
57.05836657
57.85178042
60.07800884
61.35797749
61.27417382
55.78957665
56.48240315
55.09967971
48.19736527
49.66839685
47.90359729
53.89460321
52.14167666
51.38904504
55.89882852
55.38655937
57.90478566
55.0826
51.77400172
51.56448975
54.42864688
53.9479745
56.73942667
54.30797332
54.95015746
52.12690777
57.90104089
58.12402228
58.08651614
58.37214956
58.38159918
57.03563185
59.22071719
56.74991454
56.33660203
58.0401308
57.91264358
58.8616287
50.75760749
53.2137415
54.07180358
55.46706902
47.88535286
49.25546341
53.1174154
53.23555174
55.36188712
56.36402269
56.4988301
54.58456047
57.31417799
58.19572178
58.21676295
57.41012269
57.38931831
57.42804633
56.58139365
58.33675679
58.35671373
58.24177209
58.26064128
56.68197296
53.9952594
56.09628806
56.315831
57.64091585
56.52421231
56.7178018
55.01360468
55.31327304
57.18382007
55.32645761
40.18769233
51.70490836
56.94388389
53.3755224
51.971541
51.26863143
54.29979211
48.15410872
49.87516481
50.08880214
49.35031855
49.63255783
47.92290789
46.73428069
40.66571615
40.99891845
42.85971489
43.21121755
46.57385198
48.15441897
46.145293
44.5357335
50.55132426
49.7889604
51.36721654
45.45933428
46.11215927
47.66226739
44.91580822
42.0240527
42.35473004
41.28240406
41.22471526
42.43924333
56.45565321
56.49590548
55.43342741
57.98141987
57.62755516
57.36404416
57.63269467
57.62934406
57.99350211
57.70433663
57.39754631
57.40821131
57.37501932
57.39352972
57.74500455
55.18284029
56.37569122
56.42230077
43.68916253
44.61693166
44.96333399
45.55931753
42.36740943
43.54239574
43.2453028
43.84591861
43.6813872
42.38060222
52.71998367
56.19593764
52.12691171
55.17939208
49.92366521
47.74004302
60.17184809
58.29444348
63.47821261
48.08887945
49.99624659
52.02655185
58.85094054
58.6213821
59.16962405
59.69107722
59.50249054
59.29768027
52.16547787
52.18077034
54.91470294
54.83791244
51.87456063
52.09163756
53.53492036
53.98949619
56.66251137
42.60584884
42.3959337
42.32871015
44.20402393
43.84579903
41.9255626
42.32582799
42.42372577
44.85202651
56.23327496
51.19265499
51.68266882
50.40577925
44.77837082
45.78871802
41.33648453
42.01240531
49.56098383
60.33072518
60.61850221
58.71012358
57.48841401
59.48597713
59.96141933
53.1202311
52.89494745
55.9004302
56.3868675
53.43877917
53.31398906
58.3678543
58.33982986
57.81709823
56.01818665
57.33603143
57.4620433
56.99255633
57.18879172
55.82596578
56.63497875
57.75184623
57.82422469
57.5721517
57.66934829
56.50816924
57.13959385
58.38623061
58.38635806
57.40473138
57.0813736
59.28946855
53.86175629
55.32888068
55.66874477
54.52493698
54.93855906
53.4880008
55.11276333
56.54411657
56.79362929
56.00114119
56.27225237
54.83732242
58.9942202
57.88911416
57.63410289
46.21891569
47.38014458
56.34763859
55.73483896
53.83356131
53.97372339
42.82107941
51.22699451
51.78064872
52.53721616
51.95468416
43.2341895
57.28415018
55.59325789
55.85411925
41.67488396
41.56815687
41.39023807
46.10718637
44.61539584
41.77619158
46.80534962
41.65781828
48.40569349
46.21480637
44.39905673
45.81680744
45.98808363
45.32124966
44.08985828
49.30771942
45.89771271
47.23152344
47.83997671
49.874042
44.41987223
45.62514473
45.21583147
46.07585561
45.90905681
44.51679787
56.51778112
55.8531945
57.8925321
60.15892168
60.61804176
60.42361279
52.30967803
52.50842015
55.0281917
44.84207734
47.39642656
47.14774356
48.2937576
47.80906012
44.77954082
54.64117306
51.07080458
51.04443146
61.28251054
61.37652385
59.91329861
53.59333759
52.85315971
54.99209415
50.21434335
51.31250588
51.92514153
50.02557564
50.68794738
49.66639271
52.22267572
53.58446165
54.0701661
52.50911669
53.06347384
51.75156349
57.57308798
54.8410991
54.23620734
52.20855712
51.98853986
55.23158012
56.55305864
53.63773483
53.32335335
44.86052443
48.93130833
48.67430449
49.33105198
49.13887641
44.81432043
55.43521827
53.32298235
53.41715737
58.15866822
58.17452152
57.34909197
57.36990029
58.12650132
58.12233521
58.12367064
58.12765125
57.35498099
58.29794247
58.31833216
56.58147151
57.03119464
57.98229721
58.01989036
57.88565889
57.93837002
56.95473095
57.26257659
58.09881462
58.1141525
58.05187839
58.07840745
57.22171347
56.65410648
58.26620971
58.28544599
56.09394408
56.32175508
57.56577368
46.36573519
53.60028672
53.16973572
54.52767941
54.0819722
49.21586182
55.11107232
58.8513105
66.54533481
40.58369258
41.93690185
41.3470866
44.0364622
42.71214865
40.7131941
54.61253658
48.08062374
41.89037949
42.42920527
41.3140464
41.51981029
45.79646705
42.99947613
41.24740962
41.31024738
57.78893013
61.09771408
63.47834466
57.80108264
60.08634633
56.90333435
64.69650431
66.60196682
62.16711809
52.59703876
54.72121386
56.70500469
51.95362243
53.44563003
51.80347328
59.60117048
55.8543484
54.49866617
58.93306329
57.97724824
57.31009359
60.08544942
59.88885082
59.85887153
47.06834917
47.05810429
45.74221367
54.92690373
52.18405115
52.22442614
51.20107693
51.52488293
54.75051904
42.68369164
42.53283271
42.38179617
49.70731978
45.64630493
46.1165987
44.61800891
45.10022063
49.23567939
45.96958326
42.98698861
43.1063119
42.97222989
42.94846162
45.42837571
47.96271558
43.80444863
44.14387057
43.30739936
43.50416943
47.41770871
45.75843144
42.57074425
42.77244319
41.50646124
42.2145917
51.42945468
40.52652335
40.49229807
40.37232463
40.93319767
40.6333223
40.43839893
59.05082915
60.87934126
61.08608474
58.33069198
58.93995554
57.00466045
64.23888459
61.6316761
61.00901293
62.51539522
62.14991687
64.7207311
55.71981827
52.66811113
52.43538888
53.34045269
53.43683305
56.46535094
43.63804021
44.72010343
44.10613281
46.12672204
45.41824398
43.63672268
44.40635712
43.25579139
43.10684336
43.69010707
43.46011413
44.07691838
42.06650184
41.75173888
41.58239399
41.65473649
43.28256764
42.49978107
42.36348332
41.49168039
41.60101563
40.3322068
40.82341698
41.53253666
39.71840476
40.24278229
39.8486884
50.26480074
50.42571661
48.71725572
58.12997867
57.64508919
57.63838525
57.67828977
57.65656854
58.13735825
47.08467171
48.60364601
49.0515556
47.23501884
47.89414003
47.09496362
57.63573624
49.71147415
49.76078847
51.06120632
55.07486496
64.90765113
47.02801127
48.62145186
48.10019369
49.31208181
49.16514529
47.0954711
42.97953988
42.71650899
42.13239294
44.21186299
43.29076763
43.42539623
53.09480326
53.74512833
53.15775912
58.36834205
55.80422377
54.89680031
57.57138004
56.64179419
59.34594485
41.5210239
40.2862412
40.36262353
40.28771911
40.26186594
41.09379736
43.37081132
40.61440486
40.98255542
51.60381964
55.28138976
54.91804012
55.90619306
55.60318084
52.28795025
62.28441703
59.19657037
58.36635871
60.47149659
59.80149016
62.74241786
55.50939721
57.10254453
57.73742386
40.53278036
40.82447398
41.12964657
41.02435522
41.56201968
41.40637305
40.7408978
46.95307573
43.97025548
43.74357394
47.93462933
48.68010633
49.35817554
50.14206479
48.87361484
48.13889811
41.46536586
41.67763876
44.37826312
41.98756468
41.02286224
41.15394686
40.97160204
40.96337223
41.52290163
43.79306661
44.18345153
44.1052341
44.68952373
44.5572899
43.92633966
46.45839546
45.23924158
45.94953217
51.17161969
47.77930193
48.1356006
46.68868116
47.15239812
50.79335019
41.91584324
43.29982458
43.02253842
53.52900871
53.66735603
55.64213123
45.00892974
49.92831836
49.59342518
50.75721284
50.36977075
45.3635227
45.96156212
46.98730394
46.56291138
47.61097871
47.36482664
46.36458545
51.28016338
48.55674882
49.63269221
37.02744921
37.0260493
37.00813531
37.02093601
37.01222981
37.00331482
36.99660306
36.97534603
36.98899045
36.95183394
36.93224189
36.97648345
36.91576894
36.90257037
36.96667741
36.89296698
36.88392383
36.96060291
36.87746926
36.87296455
36.95725121
37.0613149
37.06173359
37.04644833
37.05290682
37.04623071
37.03433698
37.01489597
37.0006442
36.99757123
36.94142665
36.91880421
36.92854172
36.8655865
36.84954833
36.87371305
36.76037075
36.73992992
36.80844211
36.7235167
36.71109415
36.79027194
36.70238249
36.69791628
36.77966193
37.16334391
37.16425955
37.13030261
37.14815177
37.1354067
37.10520441
37.07997668
37.05487677
37.03450458
36.96511364
36.93124727
36.9224465
36.83067948
36.7963114
36.80217574
36.6900952
36.62806708
36.67973604
36.59191244
36.56582906
36.63543611
36.54727718
36.53645886
36.61108909
37.3878802
37.3900791
37.31513705
37.36599822
37.34029492
37.2742081
37.24615866
37.20612762
37.15600352
37.06550245
37.01486094
36.98540846
36.86261944
36.81439791
36.804554
36.68913088
36.56608033
36.59166988
36.49793065
36.44732121
36.50274864
36.41150899
36.38896982
36.45515017
37.8760206
37.88071811
37.71742591
37.83468335
37.76844749
37.64868684
37.60162359
37.52988087
37.42814003
37.29005958
37.2083639
37.14596396
36.97388916
36.90215267
36.87250084
36.74294118
36.57059688
36.56475374
36.45289607
36.36381093
36.40087147
36.30022846
36.2574335
36.31642145
39.01933089
39.03003783
38.63337178
38.80641771
38.66323747
38.44102468
38.28779601
38.14199428
37.95194949
37.70643183
37.56800861
37.46143912
37.18983051
37.07815559
37.02491618
36.85464745
36.61084227
36.5851514
36.4581912
36.32169779
36.33782045
36.21856015
36.14521624
36.1952849
41.00307391
41.01271911
40.68978354
39.4975706
39.17858651
38.87157108
38.36009635
38.12654255
37.96987495
37.5235983
37.35388121
37.27494908
37.02368456
36.68923978
36.64566216
36.49093851
36.31847296
36.31637431
36.16746133
36.05555928
36.09489197
44.18532047
43.84634048
43.28252074
41.33085712
40.6940277
40.28126005
39.24640484
38.87102387
38.67911633
37.95970077
37.71492891
37.61594045
37.23725414
36.80203052
36.74246427
36.54819515
36.33440208
36.32412351
36.14104952
35.9873599
36.01758396
49.2514951
48.23881419
47.73700549
43.38301511
42.40015587
41.97848017
40.24945294
39.71434695
39.5180286
38.45649637
38.1275333
38.02360632
37.46853666
36.9344126
36.86727788
36.62245556
36.36292552
36.34695863
36.13452176
35.93834216
35.96071342
52.46800366
51.29317372
50.99333499
45.12973168
43.90158342
43.5580595
41.18168351
40.50692623
40.34677911
38.93477849
38.52764126
38.43096398
37.68905706
37.0688518
37.00283133
36.70369159
36.39993721
36.38009691
36.14008599
35.90627763
35.92232788
53.99783585
52.90640327
52.75035061
46.36544027
45.00305656
44.76426767
41.9215136
41.14528737
41.03111959
39.33625278
38.86927467
38.78735523
37.87792583
37.1929994
37.13327882
36.78198597
36.4397529
36.41896314
36.15028697
35.88643082
35.89786265
54.6527311
53.6543591
53.60288249
47.12491327
45.7155816
45.54931318
42.43212716
41.58468206
41.51277056
39.61131944
39.10696148
39.06427975
37.24810213
36.45728844
35.88165783
41.00582718
47.22201984
46.67554599
47.48442255
50.68262612
50.3350891
51.5092633
52.60691627
52.4239945
53.55525296
58.07108457
57.67471429
57.7751986
57.57334351
57.32270099
58.47182688
58.1305422
58.53975021
58.59004682
57.77473877
57.80175209
56.86142945
59.01226976
57.9644341
57.75804313
58.66492156
58.71951555
58.56547025
58.11407607
58.11984346
57.50892531
56.65917153
57.71479555
57.73261769
57.85362619
53.51830703
53.45362075
54.4572421
46.25099453
45.68173707
45.20635125
57.93596859
58.11077244
58.09690618
58.07681813
58.07641392
58.02900357
57.62111328
58.101006
58.10468742
58.09437309
58.09228133
57.82153132
42.31152277
42.76106659
42.76429317
42.80363991
42.80872352
42.44465283
51.03912395
49.28950885
48.00691886
58.16876252
58.22684091
57.65593783
57.34619805
58.05084208
58.10611089
58.69464744
58.60963708
59.33562193
59.19883801
58.81573174
58.76054479
54.1308121
54.21562543
55.96190981
42.20983531
45.23937046
44.81680171
48.29226723
47.79321673
44.16005773
55.4509901
55.15621349
55.68056331
56.86126072
56.02408311
55.69007107
57.66660531
57.66369313
56.60725971
56.6327136
57.67037441
57.66673239
45.67459096
49.24118247
48.72931022
42.8321403
42.33540571
42.48002881
58.08460353
58.08044141
58.07744783
55.68974089
56.66435384
56.69877493
41.94980016
42.54757731
42.40502887
44.58753913
44.1851219
44.28798291
57.90344077
57.20386789
57.34737149
47.31905727
47.97782094
47.34216316
47.41864978
46.49962045
46.69502061
37.07728641
37.05922919
37.1028567
37.08020998
37.07963041
37.07488702
37.07884892
37.10127311
37.04526203
37.06053046
37.05742916
37.08093935
37.06148054
37.06975266
37.03959558
37.05250257
37.07013415
37.02704108
37.03839516
37.02780288
37.01889708
37.00756789
37.02534995
36.96492351
36.98772433
36.9968874
36.97761537
36.9814545
36.96227114
36.91776095
36.91596469
36.94268009
36.86883801
36.89275071
36.89100796
36.91234053
36.90052184
36.88131245
36.81353324
36.82932681
36.84951519
36.79711705
36.81331333
36.79363209
36.86248885
36.83655134
36.82367863
37.19915255
37.15924592
37.25551943
37.2048934
37.20377509
37.1957842
37.20247935
37.25320315
37.12840437
37.16220597
37.15665365
37.21805829
37.1725455
37.18587192
37.13449627
37.15592436
37.19735577
37.09263118
37.12027484
37.10134106
37.11437437
37.08139452
37.10980209
37.016454
37.05043109
37.07979893
37.00985459
37.02735132
36.99664482
36.96197707
36.9442297
36.98130042
36.86956629
36.90727758
36.92109301
36.89296581
36.89787535
36.86368366
36.79957033
36.79684652
36.83337513
36.72873292
36.76062869
36.76067851
36.77778464
36.7668698
36.74020667
37.46279987
37.37861238
37.58786515
37.47746632
37.4732819
37.46031203
37.4737562
37.58591215
37.31225307
37.38777437
37.38081678
37.51685816
37.42552808
37.44231516
37.35896317
37.39759079
37.47807955
37.25295057
37.31186161
37.28112154
37.34084293
37.26777747
37.31514593
37.16387025
37.2173766
37.28332749
37.11678402
37.16206534
37.11471907
37.09335976
37.05135778
37.10833041
36.93673505
36.99370977
37.02955146
36.93995013
36.9639622
36.91271861
36.84826015
36.82895793
36.88169461
36.73030986
36.77875452
36.79299334
36.76273257
36.76868504
36.72468996
38.03089423
37.85798185
38.32485372
38.07724213
38.06662765
38.02203687
38.06348641
38.32526176
37.71121145
37.87972368
37.87326581
38.12906082
37.97252168
38.00193577
37.82011908
37.90393865
38.06035867
37.60764674
37.71692203
37.66447979
37.78998825
37.64832443
37.7353864
37.46828471
37.55939653
37.68509676
37.36153715
37.45185767
37.37140092
37.36505457
37.28163161
37.37435249
37.10182062
37.19081725
37.26186687
37.07487557
37.12798915
37.04922097
36.97824907
36.93722734
37.01717907
36.79091163
36.86201095
36.89446272
36.81139738
36.83436095
36.77037413
39.44654722
38.98363829
40.29417906
39.54355492
39.54909253
39.31736217
39.44859824
40.17136591
38.59744364
39.02817109
38.97501388
39.45069867
39.12447011
39.27409196
38.71127736
38.90292831
39.26017991
38.31932114
38.55210341
38.42681392
38.59964627
38.35488415
38.53045815
38.01358992
38.1827238
38.39104664
37.83027702
37.99492709
37.84891911
37.8208646
37.69040176
37.8483131
37.3951449
37.53911084
37.64972725
37.34453849
37.4349954
37.30868473
37.203277
37.13672687
37.26067527
36.91645405
37.02229385
37.07615924
36.93196181
36.97423165
36.87856636
41.93080704
41.4858625
41.44398438
41.39280022
41.44703025
41.97331707
40.67792656
41.0445116
41.03475245
39.88828316
39.5163326
39.89796204
38.8599163
39.17352859
39.47923731
38.62825099
38.88476439
38.61249606
38.48052631
38.30325457
38.57084349
37.82961182
38.0560525
38.20734286
37.77580792
37.90975159
37.70887367
37.52563917
37.43588069
37.62317405
37.11382016
37.26659554
37.33940567
37.13480409
37.19890142
37.05829056
44.98518945
44.39356687
44.80186786
43.50565598
43.94232339
44.45042377
41.55202925
41.12083162
41.84187968
39.97951852
40.50963527
40.86147927
39.81018085
40.14719869
39.6692971
39.28972931
39.09437271
39.51239293
38.38460642
38.71957237
38.88633998
38.37076132
38.53498056
38.2323397
37.91793209
37.81837405
38.08532942
37.36887061
37.58043995
37.66277091
37.4148099
37.49607842
37.30028085
49.15900743
48.70393254
49.76117939
46.97949437
47.77641887
48.19600092
46.89636601
47.35205939
46.6255397
43.19420862
42.80602611
43.85455872
41.17451883
41.92683
42.24829673
41.22635673
41.57463215
40.86529717
40.12490454
39.94262586
40.52073414
38.98160254
39.43194322
39.59061017
39.07438933
39.24436787
38.8271761
38.33150328
38.23273589
38.58367183
37.65120087
37.92334058
38.00597671
37.74982812
37.83619796
37.57928469
51.81274872
51.55536525
52.72886105
49.52108391
50.47961624
50.73888835
49.93173649
50.22730333
49.25782402
44.50788848
44.21361248
45.47365656
42.21887416
43.14435299
43.3923834
42.57287196
42.86025833
41.96310926
40.85183409
40.70615434
41.41283078
39.52911683
40.08145772
40.20608657
39.77154895
39.91704568
39.39517198
38.70483766
38.61768023
39.04300343
37.91958159
38.24499371
38.3192273
38.08792029
38.16963679
37.85636791
53.15312028
53.01676297
54.10166158
45.4062291
45.21143202
46.57552874
43.00984059
44.03936301
44.19269649
43.63379571
43.8283069
42.80888636
41.40051836
41.2905249
42.09791944
39.96019642
40.58223522
40.68331496
40.36067095
40.45931905
39.86112956
39.00358207
38.93426289
39.41364275
38.15002026
38.51498253
38.57568242
38.38875532
38.45972311
38.10217636
44.34466878
44.48103906
43.39516074
40.77767656
40.84274245
40.18720789
38.62817569
38.66729213
38.28808464
50.58575979
49.72495852
49.25480074
50.47277933
50.05389689
51.02194671
55.29107466
54.14713927
53.96097756
54.47748005
54.31534529
55.43071684
52.20850127
51.17393212
50.7943309
51.81509848
51.48280612
52.56567707
56.56034572
55.78436803
55.74328394
55.81911831
54.76287064
54.62490058
55.0095984
54.89122021
55.91361315
41.39556203
40.99616371
40.94596296
40.505689
41.73368417
41.23621261
41.27575016
41.04001095
41.1209056
41.62533063
45.31030686
45.94912842
46.43486661
44.95380417
45.45927958
44.9490267
46.87828769
46.12656199
45.54677879
48.39395368
49.29548812
49.63451329
48.57769473
48.95685243
48.07846628
51.13068378
49.97545716
49.57483853
50.37764346
51.35060253
51.54231024
50.9503679
51.17478938
50.16896647
53.38562827
52.24713094
52.02896335
50.02806881
53.20874983
53.04123616
53.58483237
53.42223066
50.45470125
57.45948609
57.58429036
58.02914467
54.01990181
56.42650568
56.16911487
56.85832014
56.65075411
54.5065816
48.69043366
48.08296619
47.53173438
48.91972079
48.41584019
49.19595804
58.20806566
57.10421308
56.81335646
54.54221813
53.36425403
53.12841463
53.77179495
53.55670746
54.74280909
58.41966331
58.45740772
57.9984825
58.16169307
58.43205495
58.47379215
58.38945611
58.42131656
58.11628385
56.95380082
57.85142781
57.88845368
58.27994681
58.11387091
59.12629067
57.99956251
58.29600083
58.35341231
58.11579377
58.22387976
57.95184846
58.71676807