/*--------------------------------*- C++ -*----------------------------------*\
| =========                 |                                                 |
| \\      /  F ield         | OpenFOAM: The Open Source CFD Toolbox           |
|  \\    /   O peration     | Version:  v2012                                 |
|   \\  /    A nd           | Website:  www.openfoam.com                      |
|    \\/     M anipulation  |                                                 |
\*---------------------------------------------------------------------------*/
FoamFile
{
    version     2.0;
    format      ascii;
    class       volScalarField;
    location    "1";
    object      k;
}
// * * * * * * * * * * * * * * * * * * * * * * * * * * * * * * * * * * * * * //

dimensions      [0 2 -2 0 0 0 0];


internalField   nonuniform List<scalar> 
3259
(
34.95501287
34.97853308
35.04035106
35.17588647
35.38173665
35.80225903
36.4275424
37.11302362
38.07504081
39.45582065
41.97207188
44.69316314
34.84108264
34.86888565
34.94161374
35.09538374
35.33433485
35.80618306
36.49712257
37.22337783
38.25162947
39.74834701
42.51487669
43.26154103
34.73432145
34.76613995
34.84867561
35.01916161
35.27963374
35.790788
36.5350469
37.32931829
38.44671343
40.0485201
42.86160212
39.49780569
34.63071786
34.66621336
34.75722035
34.94289857
35.22333629
35.76479265
36.55295168
37.44149934
38.69716512
40.46483404
43.17595823
33.96070231
34.52892064
34.56761163
34.66538349
34.86369645
35.16123879
35.72501642
36.54507055
37.51396331
38.96593049
40.96971424
42.8332508
27.00891308
34.42474379
34.46614996
34.56933943
34.77832685
35.0904954
35.66923843
36.51084373
37.51059175
39.1097202
41.2705151
41.05028701
28.29805699
34.31897013
34.36255999
34.46966943
34.68652285
35.00963334
35.59734233
36.45063599
37.46685861
39.07212411
41.12663679
37.90088571
34.77468423
34.20761032
34.25292944
34.36309264
34.58638333
34.91843013
35.51053023
36.36867493
37.39230541
38.97863932
40.74641629
36.14317447
35.58931263
34.09421986
34.14080741
34.25292849
34.48006359
34.81743431
35.41073853
36.26907332
37.2939058
38.84518693
40.30137306
34.64648801
35.23537158
33.97393768
34.02147834
34.13526239
34.36584555
34.7078616
35.30016632
36.15567441
37.17729257
38.68003969
39.82621969
33.31627986
34.70260696
33.85350819
33.90168201
34.01634301
34.24804664
34.59107684
35.18100043
36.03175659
37.04681673
38.48990187
39.33217175
32.15276672
34.03553794
33.72538442
33.77404747
33.88975765
34.12342418
34.46868081
35.05523328
35.90000807
36.90583573
38.27955093
38.83191974
31.14573717
33.27617642
33.60053166
33.64947733
33.76554935
33.99869692
34.34189445
34.92459052
35.76266445
36.75678785
38.05222265
38.33630639
30.27987375
32.45885546
33.46629506
33.5155053
33.63243763
33.86716945
34.21206285
34.79050596
35.62146466
36.60125923
37.81078307
37.85138368
29.54089797
31.6147394
33.34023416
33.38956198
33.50660045
33.73967901
34.0799042
34.6541305
35.47767508
36.44022973
37.55875045
37.38062159
28.91391559
30.7670312
33.20102645
33.25053008
33.36840188
33.60334232
33.94651654
34.51633292
35.3321261
36.27436471
37.29992097
36.92628357
28.38396745
29.92672679
33.07709986
33.12665962
33.24449867
33.47678366
33.8120642
34.37777053
35.18536782
36.10430375
37.03712627
36.48965096
27.93585575
29.10301648
32.93281818
32.98253452
33.10120345
33.33598981
33.67764719
34.23896205
35.03776095
35.93071505
36.77241269
36.07089877
27.55516377
28.30166434
32.81472935
32.86449443
32.98309714
33.21434567
33.54285762
34.1003091
34.88958203
35.75430373
36.50785677
35.66963821
27.22981217
27.52721917
32.6636127
32.71355219
32.8329219
33.06726145
33.40916459
33.96218815
34.74111831
35.57579141
36.24496509
35.28529764
26.94867388
26.78347642
32.55607175
32.60607343
32.72548507
32.95606616
33.27542267
33.82494031
34.59272424
35.39584399
35.98488928
34.91703492
26.70325315
26.07379909
32.39417263
32.44438703
32.5644106
32.79742682
33.14424483
33.68918261
34.44490807
35.21511844
35.72824132
34.56380865
26.48654982
25.4011208
32.30346707
32.3537845
32.47405628
32.70571843
33.01399241
33.55607646
34.29907992
35.03417413
35.47523684
34.22478767
26.29269866
24.76910252
32.09663514
32.14727636
32.26831476
32.50168167
32.89143748
33.42868576
34.16003862
34.8539758
35.22733899
33.90207664
26.11787096
24.18078108
44.73090042
43.75538698
41.8639564
44.7858427
42.41588672
44.2912422
44.74898239
44.38004494
32.79111152
35.66196755
42.27859468
35.81957917
33.51211776
40.26026332
32.73344941
44.33232689
32.09722
79.4343245
33.42068264
32.11271443
51.02026312
34.67641077
42.31969875
41.81877938
42.9574069
42.4999334
34.81398061
37.6489659
43.5348398
43.10775639
43.66862092
37.80256817
35.90907629
35.76562827
41.62682799
41.15121443
32.29445919
33.00217075
41.58828275
42.7259633
32.97672504
74.74101926
43.41534889
65.21463954
32.90184092
47.72875934
41.0400602
42.7834687
43.79326612
44.18895204
42.73896059
34.9422474
41.85128147
33.2358906
38.75769016
38.32548805
71.83353485
52.9161447
36.37969433
34.5128105
38.58893401
39.79549402
38.96181047
38.18509654
37.77375093
32.58036753
40.92346631
32.04456089
92.18120009
43.43335951
41.61824623
45.82607752
33.2430798
32.23037052
39.36583377
38.88609479
33.67086837
35.17792282
39.89958081
39.50099048
36.25515006
35.14414085
32.53713234
37.57970128
36.87751752
75.61376247
82.42903104
31.98360834
86.57951911
67.12216555
41.63903253
33.17626531
74.10670468
47.5430283
84.89687302
50.0800483
32.35879086
40.40676725
40.02498658
35.29659502
36.67775716
40.93306695
40.53231925
32.51641557
32.55951345
33.66434263
32.07334171
33.35832674
32.4637043
32.49265207
32.13964818
41.43375964
41.06145015
37.02233031
38.21610155
41.88108349
41.54510523
33.83245148
33.89886715
36.01992803
35.63572633
33.65383795
33.74595574
32.35167065
33.47992482
32.71980966
110.470667
32.34210217
41.59008643
61.66656021
54.23828016
32.19612356
32.23135709
33.04000599
72.90778396
79.23459975
76.39264313
58.63758445
32.81508315
32.1332897
32.16348094
42.8796838
32.93279074
32.882938
32.58024258
33.96575157
32.61428133
32.75274835
34.93940106
33.99441111
39.30890457
32.64291713
34.42343487
34.2839375
32.04351259
90.8227106
91.93269285
63.5483798
82.97002938
72.85774272
32.37638103
32.42734472
33.3066265
32.18091741
32.73667733
32.68132889
32.83083862
32.79153813
33.20930609
33.51024263
35.40260611
32.48871856
32.45250865
32.6224488
32.561707
34.17773863
33.91932971
32.3820633
74.05411751
97.93364814
103.123692
97.87112282
98.5084711
78.92905457
32.14926941
77.83668751
56.86115108
61.13142631
33.10478871
32.26190773
32.32410961
73.93562474
82.14810914
80.02743676
66.04128948
72.55487789
87.40511568
82.52517801
54.10930333
78.27144982
68.65802749
32.31565539
32.09665927
32.57670988
37.09289399
37.77622141
38.03538336
38.98812503
39.39094727
41.05645054
37.19865226
37.92920679
37.80896825
38.20953998
39.24185708
39.04834529
39.68183568
41.53718033
41.15149579
42.09853919
43.3331381
43.15222219
44.56442245
43.39956764
43.74116699
37.30211862
38.09129781
37.96675767
38.39271903
39.49677356
39.30079423
39.96519854
41.90916873
41.6372628
42.61107153
43.56538279
43.69266037
43.14368021
39.9023515
40.70304975
37.41460087
38.29515831
38.13841008
38.62997051
39.84161402
39.57252739
40.3472357
42.32883017
42.00332872
43.10929439
42.17445428
43.52213283
36.18502837
37.50407084
38.51704208
38.3512691
38.90406797
40.29459707
39.94633633
40.85493201
42.70944504
42.45496759
43.01655799
36.02159087
41.34703484
27.87474205
37.51549463
38.64794519
38.56353205
39.09284924
40.64952184
40.40260073
41.23019001
42.26187092
42.68035744
41.71075991
27.55256071
33.29841813
27.40148998
37.48108807
38.62748534
38.65008769
39.08803166
40.68135797
40.70184053
41.20526209
40.84730633
41.98772922
38.66446973
26.20305411
26.83185052
33.60352046
37.41347388
38.55529359
38.61328946
39.00612862
40.46307164
40.63564294
40.84920111
39.53268265
40.44223505
36.5425957
25.52208666
26.13060048
35.64555251
37.32041909
38.44748723
38.53132741
38.8818044
40.17305249
40.39634762
40.41605711
38.39306418
39.24189157
35.0054658
24.60094077
25.25833084
35.34191085
37.20789073
38.31171819
38.41590827
38.72390506
39.82726533
40.09111918
39.94730602
37.32357882
38.1186274
33.63316397
23.94650834
24.41739022
34.84992745
37.0805257
38.15369562
38.2740934
38.53947233
39.44392966
39.73418561
39.45669963
36.33479355
37.06853567
32.42856117
23.44403187
23.80969307
34.21234863
36.94190595
37.97781932
38.11124965
38.33384132
39.04277377
39.34445841
38.95687351
35.43077226
36.10089227
31.38371275
23.02040701
23.33217963
33.47246686
36.79469564
37.78704399
37.93142479
38.1104929
38.6342492
38.9411512
38.45938472
34.60910739
35.21783978
30.48405736
22.63198725
22.92085816
32.66663952
36.64067623
37.58332699
37.73724917
37.87229929
38.2237861
38.5315864
37.97139226
33.86603339
34.41615976
29.71462327
22.2541831
22.53642053
31.82631739
36.48095391
37.36857804
37.53058167
37.62250928
37.81632883
38.12143513
37.49684595
33.19698866
33.69208531
29.06107665
21.8768926
22.15942796
30.97851782
36.31624335
37.14524887
37.31343951
37.36510186
37.41601633
37.7154614
37.03824918
32.59618846
33.04068021
28.50832269
21.49533832
21.78128205
30.13530927
36.14716672
36.91581572
37.08835574
37.1031005
37.02521479
37.31734535
36.59712405
32.05681679
32.45590393
28.04112222
21.11065047
21.39860932
29.3066509
35.97439474
36.6824104
36.8577507
36.83865176
36.64518815
36.9291665
36.17392802
31.571195
31.93073209
27.64478203
20.72756687
21.01396178
28.49898006
35.7986218
36.44697957
36.62367826
36.57388269
36.27652917
36.55194169
35.76833953
31.13196036
31.45735745
27.30661482
20.35137843
20.63227169
27.71685137
35.620571
36.21087228
36.38796126
36.31047345
35.91953699
36.18618348
35.37983724
30.73254794
31.02870616
27.01531539
19.98687074
20.25892756
26.96398939
35.44091932
35.97509728
36.15186589
36.04958343
35.57415731
35.83211414
35.0076359
30.36707714
30.6383267
26.76152507
19.64043349
19.89913997
26.24334906
35.2603343
35.74041598
35.91628583
35.79207412
35.24005443
35.48960197
34.65070238
30.03043116
30.28074351
26.53774848
19.31697776
19.55953389
25.5569957
35.07939275
35.50759356
35.68200535
35.53808021
34.91660706
35.15826844
34.3077089
29.71750063
29.95118287
26.33700003
19.02061412
19.24481105
24.90677748
34.89844475
35.27687522
35.44978663
35.2874537
34.60204054
34.83777325
33.97602157
29.42297285
29.64589721
26.15316073
18.75468156
18.9598782
24.29321198
34.70677936
35.03399349
35.22104361
35.02421558
34.27518673
34.53029329
33.6331669
29.12594837
29.36373616
25.97122072
18.50819916
18.70831051
23.68023599
43.85128758
44.16458946
44.84589473
40.8977117
41.49177796
43.93453588
42.77465662
43.08780553
42.86860275
41.74318209
44.87891672
43.45482607
43.62393668
43.6541438
43.38251181
42.18546809
44.56727381
43.86915415
44.10179906
43.67675511
43.83094283
44.62178586
42.90564197
43.27595669
44.52224714
32.86598496
34.89391153
34.74621527
37.64605777
37.49945614
35.53085422
29.30280063
34.06695714
42.49261285
49.57743384
43.00448068
43.2118876
43.57407328
36.02779078
37.9890474
37.80562462
41.98440065
38.35479729
44.87951238
44.26313242
40.8043825
33.65948999
32.98804779
34.63105013
34.51117787
32.68170078
44.17596816
42.3614345
42.76418438
79.84125313
78.09713779
69.83188483
36.48125298
36.28735155
34.49111124
42.17724878
40.74740849
40.87118774
39.64246634
40.19164773
41.9818332
42.8091572
41.55506672
41.75110829
41.14801177
41.33308603
42.64818336
34.93808867
36.79095977
36.64265139
39.21256567
39.05627171
37.48873607
43.39607267
42.35305946
42.54153259
41.95566764
42.15495123
43.25314757
43.92618154
43.06520311
42.72182832
42.89613842
43.79896531
37.94124732
39.50375916
39.36129681
41.49633536
39.09416035
39.4955163
38.33016151
38.91793652
41.21642653
41.57273646
42.74333642
42.69636566
48.0621477
46.37521686
42.19151528
44.43154833
52.99299169
50.09017192
45.51619873
42.1399571
43.69141196
43.64241169
42.70261798
43.76503024
44.27711574
44.23656285
44.12507617
44.16745986
43.87321612
40.09908493
40.53345219
42.9367784
36.98550216
36.09287512
35.97007671
38.64255522
38.14541611
44.31326435
35.3742003
35.0916526
32.99669248
38.61195966
37.0184021
37.22640652
36.69011616
36.84313713
38.46654465
59.92846245
43.42699814
43.65217719
47.53376326
46.56913109
59.36702344
34.09035674
34.16194469
36.50639882
34.00417517
34.3176113
38.58840946
39.4764056
36.55829256
36.94749549
35.84176817
36.32684117
39.21306555
38.04837154
36.41409209
36.55394451
36.13317125
36.29295276
37.90270752
40.98832202
43.34140531
52.40526449
50.61957671
55.52932185
61.30972093
43.21751586
90.01871167
103.8875139
39.20593609
37.87944841
38.05397811
37.45402211
37.6795654
39.06310064
34.20969975
36.03502249
35.71135949
37.07843005
36.93579284
35.05662455
39.76272631
38.5005547
38.64360293
38.20817726
38.3560779
39.63776933
36.1432763
33.9667214
34.02328609
37.47585915
35.73113284
36.01039488
34.33546432
35.4995497
36.94394038
51.30599663
53.44479522
70.70621019
41.90290252
45.17869861
44.2765847
62.1646678
57.30873188
45.80346883
40.27700516
39.06187301
39.20267787
38.7844717
38.92368657
40.15508327
35.41439029
37.35980656
37.22035057
38.4439923
38.20481552
36.31482444
40.79546643
39.66953337
39.84217928
39.34881743
39.50327639
40.66470396
41.31140728
40.31677101
40.45598163
40.01022997
40.16971621
41.19291718
37.27782662
38.8786805
38.67436857
39.7829745
39.64447511
38.08116166
41.76900131
40.85189337
40.98228945
40.58992146
40.72196414
41.66182955
43.53575966
43.07220956
41.54216966
59.79734381
47.99393698
48.95709923
46.15139479
46.60006193
56.96095282
44.03440135
34.32111739
33.77539046
34.01521449
33.21413686
33.59534915
34.1414901
38.53312772
33.94588549
33.59538441
90.49619009
89.16109349
56.92338705
86.57763541
102.390521
102.0054052
100.4790158
101.9070625
84.52893754
35.41780746
35.58684701
35.81270691
36.09826928
36.42256971
36.88979738
35.36093427
35.55608159
35.55682697
35.81204874
36.1260077
36.09589695
36.47546315
36.98104493
36.90718213
37.13345514
37.35416442
37.33120386
38.1084367
38.40376945
38.36596354
39.51687847
40.00113548
39.92625757
44.64981673
44.47985882
44.53837006
35.30624966
35.52259579
35.53602033
35.80021545
36.13948796
36.13317166
36.51833214
37.06580144
37.00189485
37.24904744
37.48626226
37.45670384
38.29526886
38.61246002
38.56358279
39.8160669
40.3452621
40.2695623
35.25162811
35.48471234
35.5005741
35.77982588
36.1377982
36.13981743
36.54826059
37.15293773
37.08739007
37.3583954
37.61905972
37.58375153
38.50437767
38.84872109
38.78304953
40.13924989
40.69796741
40.59945256
42.94111951
43.71956682
43.72297731
38.74045377
28.4194487
30.15386905
35.19300313
35.43857295
35.45923343
35.74734543
36.1207253
36.13219577
36.55125362
37.2079023
37.17104454
37.46705186
37.76172896
37.72665649
38.76605949
39.15516736
39.0729681
40.59250236
41.1954411
41.05424962
43.16204188
43.40729294
43.54293822
31.66704285
25.46047221
25.32574304
35.12686506
35.38119568
35.40818149
35.69961844
36.08273367
36.10418576
36.53166704
37.20598992
37.21050523
37.51803364
37.85399837
37.84120718
39.01929014
39.47217453
39.40292166
41.07598046
41.67849953
41.57229885
42.59513127
41.70123503
42.35474728
26.73083255
32.9906491
30.17359601
35.05106659
35.31110711
35.34501113
35.63561634
36.02486062
36.05622298
36.48369517
37.16731792
37.19891354
37.50311598
37.84790409
37.85434001
39.10855581
39.61374593
39.60668855
41.27587949
41.74664111
41.79039599
40.30991954
36.52889571
38.15357458
29.93398498
43.9355041
42.06144222
34.96492779
35.22827416
35.26896729
35.55598398
35.94859832
35.98887135
36.41211682
37.09809401
37.15209269
37.45087779
37.79753811
37.81343869
39.05303501
39.54612686
39.57017334
41.04013142
41.27066134
41.40294603
37.37071483
30.89896093
31.81382903
35.65692531
45.74973864
45.79021695
34.86857066
35.13357938
35.18049563
35.46235005
35.8564019
35.90432486
36.32082448
37.00501599
37.07649129
37.36971664
37.71549944
37.73854022
38.94865464
39.41581091
39.45311294
40.63961709
40.70107948
40.8488592
35.75407059
28.73804236
29.24119868
35.51929925
44.3526812
44.70676223
34.76307684
35.02845994
35.08077004
35.35683706
35.75081572
35.80512177
36.21387382
36.89385529
36.97852112
37.26626081
37.60925855
37.63776769
38.80657895
39.2398334
39.2875447
40.18500275
40.08542245
40.24223567
34.29834085
26.95580334
27.3679148
35.11697002
42.98479016
43.31943486
34.6495831
34.91462601
34.97139973
35.24166294
35.63430005
35.69377076
36.09484851
36.76918776
36.8636872
37.14581183
37.48438071
37.51711241
38.63461248
39.02846896
39.08410832
39.70392121
39.45276612
39.6109654
33.01016828
25.50828064
25.84106248
34.54644254
41.69310925
42.00927782
34.52985338
34.79383443
34.85412896
35.11893072
35.50925418
35.57269506
35.96670861
36.6344702
36.73627494
37.01243068
37.34500688
37.38102833
38.43907205
38.7899042
38.85181398
39.20718684
38.82666701
38.98184669
31.88704735
24.34749495
24.61334035
33.85261095
40.46985611
40.7697838
34.40496668
34.66771136
34.73069994
34.99050256
35.37791131
35.44424072
35.83191227
36.49226671
36.59950851
36.86923804
37.19427596
37.23289311
38.22419521
38.52914678
38.59609353
38.70727993
38.21773497
38.36802563
30.91683836
23.42815647
23.63721909
33.07580275
39.30570152
39.59177916
34.27667217
34.53766732
34.6026078
34.85795718
35.2421565
35.3104839
35.69245451
36.34440104
36.45576869
36.71845106
37.03436045
37.07512192
37.99305681
38.25119992
38.32205192
38.21390454
37.6313212
37.77559463
30.08390547
22.71202561
22.87367874
32.24848552
38.1921159
38.46564043
34.14536595
34.40486122
34.47119273
34.72258905
35.10346583
35.17309977
35.54983178
36.1920735
36.30671266
36.56147251
36.8665799
36.90921178
37.74855624
37.96043868
38.0340754
37.73226144
37.07087298
37.20843068
29.37440052
22.16646655
22.28797684
31.4025192
37.12127043
37.38561638
34.01280618
34.27023007
34.33744442
34.58539221
34.96292213
35.03337276
35.40507776
36.03601758
36.1534083
36.39917693
36.69185911
36.73614534
37.4945568
37.66178656
37.73686886
37.26543165
36.53811802
36.66866311
28.77309102
21.76599734
21.85359377
30.5555746
36.08688449
36.34204456
33.87844675
34.13448123
34.20228302
34.447129
34.82128978
34.89220757
35.25886621
35.87673705
35.99650856
36.23220156
36.51110838
36.55680659
37.23450205
37.36038211
37.43578887
36.81544315
36.03363532
36.15710164
28.26499766
21.48460845
21.54469184
29.71862245
35.0901141
35.33581443
33.74450167
33.99820432
34.06622174
34.30836069
34.67911056
34.75025414
35.11164087
35.71468286
35.83650325
36.06119403
36.32537989
36.37222175
36.97103246
37.05975497
37.13465766
36.38330025
35.55702628
35.67363593
27.83500032
21.29999127
21.33785717
28.89984476
34.13147643
34.36774462
33.60911569
33.86180668
33.92996762
34.16953217
34.53676066
34.60797466
34.96368516
35.55030227
35.67382886
35.88682976
36.13574373
36.18346505
36.70617553
36.76195207
36.83611812
35.96895576
35.10678023
35.21697338
27.4691645
21.19297084
21.21302766
28.10440018
33.21058052
33.43764047
33.47575055
33.72568114
33.7936876
34.03095175
34.39451574
34.46572547
34.81525143
35.38407216
35.50894355
35.70983163
35.94327046
35.99160179
36.44193108
36.46763556
36.54083927
35.57199829
34.68117143
34.78536659
27.15581741
21.14585354
21.15285838
27.3365237
32.32709713
32.54520574
33.34035457
33.58996411
33.65811918
33.89282514
34.25251342
34.32380915
34.66653003
35.21645527
35.34232892
35.53090067
35.74891603
35.79763387
36.17961528
36.17764817
36.249701
35.1917632
34.27835459
34.37703417
26.88426472
21.14231904
21.14005656
26.59944786
31.48052067
31.69027644
33.20881031
33.4547492
33.52314987
33.75507862
34.11069734
34.18256487
34.5175442
35.04796127
35.17444584
35.35069949
35.55350864
35.60241704
35.92040085
35.89253627
35.96332446
34.82734199
33.89638585
33.99008238
26.64639326
21.1703167
21.15965502
25.89573639
30.67039822
30.87296363
33.07275923
33.31947145
33.39006219
33.61727932
33.96853868
34.04257387
34.36778791
34.87902898
35.00581056
35.1698732
35.3578053
35.40672402
35.66462227
35.61277561
35.6822091
34.47756434
33.53311215
33.62254776
26.43491455
21.21801375
21.20260972
25.22723158
29.89633135
30.09414821
32.94152284
33.18267037
33.25914829
33.47772757
33.82425432
33.90513427
34.21509659
34.70990198
34.83684851
34.98893754
35.16239458
35.2112196
35.41244252
35.33843844
35.40668021
34.14082288
33.18596159
33.27293617
26.24338717
21.27656893
21.25836362
24.59545885
29.15737148
29.35612883
32.78821335
33.03332506
33.13456951
33.32566254
33.66681422
33.77343409
34.0481918
34.53064702
34.66830607
34.80700133
34.96620184
35.01701949
35.16142154
35.06623279
35.13840339
33.81077791
32.84817228
32.94290584
26.06565276
21.33883112
21.31911323
23.99965327
28.44973038
28.6623433
44.59619523
44.6520331
44.77189969
43.0245507
43.20288999
43.74761504
44.81994829
44.56035038
44.57019096
44.36253614
44.51913057
44.49643187
44.57525922
44.57505439
44.70950993
44.09685836
44.16351329
44.43021574
44.94752569
44.91060994
44.27886354
43.95705309
44.02540871
41.25119232
44.46620835
44.43332008
44.09568099
33.04977653
33.18806328
42.35380971
65.93699715
72.67565441
76.10968364
40.90165521
42.10301182
44.01449315
41.91991891
37.30770766
37.27529924
37.06586573
37.73603042
37.49734138
37.53563998
38.32005981
38.27482548
37.99394158
38.93266526
38.58519888
38.63494059
39.85611624
39.78047707
39.32659306
40.95190625
40.31312866
40.4012466
37.42756636
37.37779442
37.1536089
37.86791621
37.61480093
37.66993024
37.56230133
37.58813489
37.83827178
38.51654502
38.43991359
38.14118867
39.14294234
38.77094222
38.85754219
38.68776447
38.73091545
39.09831249
40.19385356
40.0591631
39.56733191
41.34270447
40.63941748
40.80086228
40.48161491
40.57158733
41.2604302
44.35780621
44.41906148
44.60993974
43.51408216
44.07401651
43.98907864
44.23976503
44.15836991
43.63026095
37.54984924
37.51717352
37.27441535
38.04702432
37.77346198
37.81180051
37.70323551
37.73723353
38.00547225
38.72196186
38.66525079
38.34233304
39.4267544
39.02343706
39.08668008
38.91010909
38.96463519
39.36153402
40.50881274
40.42480037
39.88819814
41.81913082
41.05902874
41.14890263
40.88780503
40.97228901
41.72900754
42.0512099
41.90631416
40.49766871
37.69125406
37.65492604
37.38615378
38.24072843
37.93866128
37.98373889
37.85226804
37.89466191
38.1883021
38.99389148
38.91908782
38.56561072
39.74443143
39.30873532
39.39449869
39.15501011
39.22890682
39.65484012
40.92474529
40.80650488
40.23869392
42.21252006
41.46255737
41.58553937
41.24494819
41.34845839
42.10333575
43.64446205
43.69722928
43.02427046
42.75533675
43.87960308
43.66611257
44.15550974
44.04295003
43.1892532
25.79778919
26.87068204
37.60550439
42.69970033
42.327962
45.4746491
44.04563093
37.82066032
37.7937753
37.48790629
38.46414494
38.11821213
38.15737108
38.02933121
38.07379724
38.40745764
39.32474662
39.24012083
38.8357746
40.17752648
39.68439635
39.78587777
39.48619496
39.58254902
40.05788573
41.46285104
41.33372263
40.72702889
42.65554615
41.98680885
42.09981923
41.72299715
41.86077517
42.55435982
42.89885018
43.16836143
43.11177674
38.7516331
42.28106376
41.46191736
43.35426377
42.92120464
40.23226095
27.73758585
26.30431833
29.0270816
44.79865104
46.10309352
42.61780541
43.54054016
37.85749582
37.85843486
37.51762581
38.63038294
38.23028786
38.23449682
38.19007981
38.2149482
38.60192632
39.57435514
39.53109288
39.06256954
40.58476098
40.03873019
40.09437048
39.88028287
39.96523775
40.50085548
41.7986508
41.74535947
41.16112168
42.4546354
42.24865869
42.19060004
42.18753851
42.26513241
42.59640176
39.52278101
40.77497571
42.2297967
28.44379408
36.19459396
33.58791513
40.02873995
38.63073408
30.43498868
39.14027573
36.26081817
26.91093182
48.72332515
49.07681869
47.23115789
48.09468394
37.82723782
37.83877103
37.49307023
38.63878151
38.21939874
38.20821209
38.23268389
38.22785674
38.64653568
39.59038699
39.60636408
39.10053633
40.71314274
40.15082351
40.12821954
40.1388945
40.15515042
40.71862435
41.53177386
41.65298979
41.25628713
41.25137361
41.73204829
41.53227302
42.06634249
41.91663776
41.65466673
33.16040049
34.75415324
39.46032587
26.19045028
27.75870359
26.90751182
30.98897448
29.09840004
26.43375437
45.60306697
45.01462619
31.77488373
49.17878402
49.0114764
49.25050388
49.27036121
37.75995945
37.77966998
37.43296312
38.57703602
38.16018996
38.13987546
38.19450449
38.17844565
38.59642155
39.48739324
39.51846144
39.03097957
40.52538408
40.02669306
39.98410083
40.09909901
40.06513069
40.5830083
40.99332543
41.13403775
40.94735693
39.82684726
40.91403346
40.70758122
41.31779034
41.11731008
40.12421995
29.76900487
30.32074656
36.95103139
25.81207596
25.29388116
24.83252827
26.28996708
25.78241779
26.10974692
45.06504227
45.42598367
35.67625236
48.15369828
47.79540355
48.77856392
48.50657243
37.6650169
37.69096927
37.34569765
38.47731574
38.06794316
38.04065497
38.11765662
38.09364132
38.50530032
39.3328579
39.37566453
38.91633421
40.25113769
39.83417547
39.77763977
39.937647
39.88758892
40.32557425
40.39748494
40.5505075
40.52921491
38.67188683
40.07958741
39.87007471
40.49905501
40.28945673
38.95489592
27.80201153
28.2582715
35.37453145
24.8002882
23.59429411
23.22510369
24.39633725
23.98450622
25.01897424
43.65888787
44.0033292
35.43712936
46.76029617
46.42735783
47.44394641
47.09902754
37.548864
37.57961431
37.23757285
38.34794364
37.95026029
37.91753417
38.01189609
37.98173472
38.38270116
39.13796329
39.18991542
38.76611833
39.91802359
39.59104329
39.52419371
39.71813369
39.65574154
40.00609306
39.76936701
39.9276496
40.06695907
37.58368913
39.24783978
39.04359682
39.66137346
39.45384155
37.84875076
26.19301729
26.56419833
33.96036542
24.09190604
22.22858882
21.93112817
22.87476932
22.54321471
24.24879666
42.32984528
42.65498702
34.98863433
45.45984529
45.14694214
46.09984082
45.77742177
37.41628519
37.45076345
37.1135507
38.1950214
37.81262088
37.77558981
37.88364913
37.8486576
38.23517692
38.91223714
38.97114461
38.58773191
39.54229903
39.31158059
39.23703771
39.45527171
39.38437178
39.63911493
39.13800983
39.29504295
39.58066437
36.5740643
38.44353341
38.24831463
38.84133491
38.64125014
36.81865583
24.89525593
25.19306344
32.71413644
23.55967177
21.12872242
20.88887856
21.64890642
21.38219586
23.68176044
41.07351577
41.38127463
34.38312862
44.2341303
43.93802636
44.83841237
44.53426175
37.27089902
37.30828889
36.97745985
38.02327409
37.65913373
37.61865949
37.73763968
37.69880834
38.06776872
38.66189236
38.72651731
38.38703051
39.14389002
39.00274519
38.92150529
39.16070729
39.0825086
39.24446551
38.51966064
38.67256365
39.08201113
35.64892626
37.6785571
37.49412822
38.05570771
37.86576273
35.87227567
23.85999208
24.09625553
31.63057544
23.12103461
20.23879283
20.04471284
20.66044904
20.4444553
23.22539926
39.88102843
40.1736702
33.66500658
43.0718617
42.78992854
43.64577321
43.35712919
37.11536683
37.15509828
36.83219857
37.83601749
37.49282088
37.44947376
37.57743489
37.535481
37.88415396
38.39204668
38.46110492
38.16783106
38.73679486
38.67085658
38.58559563
38.83897449
38.75536799
38.83913025
37.92146021
38.06885502
38.58307009
34.80704691
36.95771875
36.78459983
37.31250761
37.1336737
35.00989749
23.04691551
23.2312741
30.69618245
22.72704272
19.51830882
19.36072921
19.8597779
19.68513193
22.82393587
38.74278207
39.02272004
32.87281942
41.96287301
41.69321207
42.51116773
42.23554265
36.95138784
36.99311692
36.67975944
37.63537313
37.31558933
37.26971798
37.40547857
37.36084569
37.68668797
38.10718367
38.17961864
37.93307849
38.32632562
38.32658303
38.23976723
38.49972526
38.41338494
38.42891364
37.34770363
37.48868929
38.09225751
34.04468933
36.28265762
36.12112749
36.61438561
36.44706891
34.22801339
22.41956783
22.56045948
29.89540401
22.34770255
18.93201496
18.80422566
19.21003737
19.06794411
22.44251119
37.65214668
37.92102181
32.03785267
40.89993806
40.64028075
41.42634857
41.16191426
36.78003188
36.82351855
36.5213829
37.42316981
37.12872452
37.08064643
37.22327819
37.17627543
37.47718549
37.81172553
37.8862791
37.68579072
37.91764615
37.97917524
37.89229635
38.15292785
38.06606233
38.01936799
36.80097308
36.93505059
37.61407056
33.35762788
35.65387194
35.50382451
35.96250886
35.80675445
33.52260601
21.94970856
22.05345828
29.21434055
21.97090884
18.4577954
18.3554903
18.68194586
18.56743816
22.06589702
36.59945597
36.85924421
31.1906664
39.8758047
39.62587549
40.38313559
40.12819664
36.60217521
36.6471994
36.35786029
37.20174435
36.93356443
36.88365686
37.03208117
36.98304731
37.25782108
37.51119723
37.58654215
37.42999241
37.51527291
37.63215585
37.54573648
37.80547427
37.71874843
37.61509923
36.28234414
36.40934541
37.15130035
32.74036252
35.07041362
34.93141703
35.35659118
35.2121226
32.88846623
21.61190129
21.68507968
28.63779022
21.59053439
18.07826545
17.99710753
18.25732921
18.16606033
21.68671545
35.58376662
35.83418905
30.34528872
38.890384
38.64975215
39.37838093
39.1332271
36.41879771
36.46510139
36.18981395
36.97361747
36.73170718
36.68038965
36.83335986
36.78270518
37.03114043
37.20973181
37.28498764
37.16890176
37.12193429
37.28791459
37.2025333
37.45952728
37.37357961
37.21931629
35.79192301
35.91191923
36.70572332
32.1863265
34.53020663
34.4015723
34.79507041
34.66134757
32.31928562
21.38144288
21.42985664
28.1506268
21.20629689
17.77863303
17.71581577
17.91902585
17.84729464
21.30310712
34.60605696
34.84699584
29.51237483
37.94107228
37.70908312
38.41134582
38.17511803
36.23098314
36.2782958
36.01790215
36.74101183
36.52481397
36.47247862
36.62879015
36.57692642
36.79947604
36.91047765
36.98502577
36.90487144
36.73914624
36.94841707
36.86447368
37.1174688
37.03275537
36.83380816
35.32872026
35.44206524
36.2780598
31.68801406
34.03005364
33.9108076
34.27537941
34.15155029
31.80778684
21.23782644
21.26633853
27.73789863
20.82246348
17.55080055
17.50491994
17.65619325
17.60191952
20.91857738
33.66635493
33.89795722
28.69924263
37.02588475
36.80217264
37.47928524
37.25149672
36.03979828
36.08785202
35.84281031
36.50594643
36.31441258
36.26142677
36.41995734
36.36726006
36.56485062
36.61430198
36.68801026
36.63999482
36.36760372
36.61518852
36.53298208
36.78094848
36.6978439
36.45940522
34.89101043
34.99814365
35.86810864
31.2378182
33.56598868
33.45517677
33.79375844
33.67881278
31.34619157
21.16310657