/*--------------------------------*- C++ -*----------------------------------*\
| =========                 |                                                 |
| \\      /  F ield         | OpenFOAM: The Open Source CFD Toolbox           |
|  \\    /   O peration     | Version:  v2012                                 |
|   \\  /    A nd           | Website:  www.openfoam.com                      |
|    \\/     M anipulation  |                                                 |
\*---------------------------------------------------------------------------*/
FoamFile
{
    version     2.0;
    format      ascii;
    class       surfaceScalarField;
    location    "1";
    object      meshPhi;
}
// * * * * * * * * * * * * * * * * * * * * * * * * * * * * * * * * * * * * * //

dimensions      [0 3 -1 0 0 0 0];
oriented        oriented;


internalField   nonuniform List<scalar> 
6430
(
0
0
0
0
0
0
0
0
0
0
0
0
0
0
0
0
2.106654453e-05
0
-2.725627036e-05
-2.976282209e-05
-3.479776637e-05
0.000128720645
0.000155445121
-0.0001368877454
-0.0002495110242
0.0003421810858
0.0006116784978
-0.0003473670496
-0.0007404424916
0.000420706881
0.001078361237
-0.000421604868
-0.001162548105
0.0003114743752
0.001265082318
-0.0003119133487
-0.0006274981806
-0.0006371451635
3.834285717e-05
0.0003121975892
-3.842806371e-05
-0.0003121123826
0
0
0
0
0
0
0
0
0
0
0
0
0
0
0
0
3.083546715e-05
0
-2.556132149e-05
-4.382946815e-05
-4.100693065e-05
0.0001491813009
0.000197052986
-0.0001450220553
-0.0003077108675
0.0003602808036
0.0007184230189
-0.0003549240066
-0.0008624226828
0.0004265861679
0.001233458341
-0.0004230661991
-0.001319767655
0.000307088372
0.001420823326
-0.000307088372
-0.0007057383083
-0.0007150850176
3.700915156e-05
0.0007057383083
-7.127634484e-05
3.426719328e-05
-0.0003514951022
-0.0003542432062
0
0
0
0
0
0
0
0
0
0
0
0
0
0
0
0
1.612334423e-05
0
-5.992090553e-06
-2.185430272e-05
-1.395726063e-05
0.0001154068719
0.000152365266
-0.0001009790537
-0.0002558033214
0.0003151044804
0.0006644175961
-0.000294429718
-0.0008149768339
0.0003950692952
0.001230381918
-0.0003793309111
-0.001340486835
0.0003039480685
0.001543589423
-0.0002993124087
-0.001567771892
7.127634483e-05
0.001576039816
-0.000131587249
-0.001576039816
6.031090416e-05
0
0
0
0
0
0
0
0
0
0
0
0
0
0
0
0
1.473371892e-07
0
0
-1.297637986e-07
0
5.193468322e-05
5.583775173e-05
-3.623044277e-05
-0.0001248705624
0.0002147868836
0.0004554319817
-0.0001842109516
-0.0005913808577
0.0003118070078
0.001007119348
-0.000283014158
-0.00113340768
0.0002681804385
0.001431618585
-0.000251567064
-0.001499737029
0.0001270848403
0.001616826816
-0.0001222454729
-0.001632002383
0
0
0
0
0
0
0
0
0
0
0
0
0
0
0
0
0
0
0
0
0
3.987390358e-06
1.365264899e-07
-6.65633689e-07
-1.023552928e-05
9.185830479e-05
0.0001742578298
-6.436049288e-05
-0.0002643254398
0.0001843018204
0.0005851459764
-0.0001499429619
-0.0006956172265
0.0001853525604
0.0009905092533
-0.0001593972689
-0.001068667565
9.778277693e-05
0.001223852493
-8.677006501e-05
-0.00124737799
0
0
0
0
0
0
0
0
0
0
0
0
0
0
0
0
0
0
0
0
0
0
0
0
0
7.823054827e-06
4.86984141e-06
-1.240620228e-06
-2.251366429e-05
5.727139935e-05
0.0001547407295
-3.378992259e-05
-0.00021485974
8.033637291e-05
0.0004006302359
-5.675207385e-05
-0.0004555761189
4.934389687e-05
0.0005718050848
-3.697531371e-05
-0.0005901503039
0
0
0
0
0
0
0
0
0
0
0
0
0
0
0
0
0
0
0
0
0
0
0
0
0
0
0
0
0
1.920587007e-07
0
0
-8.544991335e-07
7.741004864e-06
2.327902773e-05
-1.231673245e-06
-3.605363958e-05
7.950973383e-06
7.03406673e-05
-2.665199083e-06
-7.646062524e-05
0
0
0
0
0
0
0
0
0
0
0
0
0
0
0
0
0
0
0
0
0
0
0
0
0
0
0
0
0
0
0
0
0
0
0
0
0
0
0
0
0
0
0
0
0
0
0
0
0
0
0
0
0
0
0
0
0
0
0
0
0
0
0
0
0
0
0
0
0
0
0
0
0
0
0
0
0
0
0
0
0
0
0
0
0
0
0
0
0
0
0
0
0
0
0
0
0
0
0
0
0
0
0
0
0
0
0
0
0
0
0
0
0
0
0
0
0
0
0
0
0
0
0
0
0
0
0
0
0
0
0
0
0
0
0
0
0
0
0
0
0
0
0
0
0
0
0
0
0
0
0
0
0
0
0
0
0
0
0
0
0
0
0
0
0
0
0
0
0
0
0
0
0
0
0
0
0
0
0
0
0
0
0
0
0
0
0
0
0
0
0
0
0
0
0
0
0
0
0
0
0
0
0
0
0
0
0
0
0
0
0
0
0
0
0
0
0
0
0
0
0
0
0
0
0
0
0
0
0
0
0
0
0
0
0
0
0
0
0
0
0
0
0
0
0
0
0
0
0
0
0
0
0
0
0
0
0
0
0
0
0
0
0
0
0
0
0
0
0
0
0
0
0
0
0
0
0
0
0
0
0
0
0
0
0
0
0
0
0
0
0
0
0
0
0
0
0
0
0
0
0
0
0
0
0
0
0
0
0
0
0
0
0
0
0
0
0
0
0
0
0
0
0
0
0
0
0
0
0
0
0
0
0
0
0
0
0
0
0
0
0
0
0
0
0
0
0
0
0
0
0
0
0
0
0
0
0
0
0
0
0
0
0
0
0
0
0
0
0
0
0
0
0
0
0
0
0
0
0
0
0
0
0
0
0
0
0
0
0
0
0
0
0
0
0
0
0
0
0
0
0
0
0
0
0
0
0
0
0
0
0
0
0
0
0
0
0
0
0
0
0
0
0
0
0
0
0
0
0
0
0
0
0
0
0
0
0
0
0
0
0
0
0
0
0
0
0
0
0
0
0
0
0
0
0
0
0
0
0
0
0
0
0
0
0
0
0
0
0
0
0
0
0
0
0
0
0
0
0
0
0
0
0
0
0
0
0
0
0
0
0
0
0
0
0
0
0
0
0
0
0
0
0
0
0
0
0
0
0
0
0
0
0
0
0
0
0
0
0
0
0
0
0
0
0
0
0
0
0
0
0
0
0
0
0
0
0
0
0
0
0
0
0
0
0
0
0
0
0
0
0
0
0
0
0
0
0
0
0
0
0
0
0
0
0
0
0
0
0
0
0
0
0
0
0
0
0
0
0
0
0
0
0
0
0
0
0
0
0
0
0
0
0
0
0
0
0
0
0
0
0
0
0
0
0
0
0
0
0
0
0
0
0
0
0
0
0
0
0
0
0
0
0
0
0
0
0
0
0
0
0
0
0
0
0
0
0
0
0
0
0
0
0
0
0
0
0
0
0
0
0
0
0
0
0
0
0
0
0
0
0
0
0
0
0
0
0
0
0
0
0
0
0
0
0
0
0
0
0
0
0
0
0
0
0
0
0
0
0
0
0
0
0
0.0003100690968
-0.0003100716404
3.834540072e-05
0.0003494003348
-0.0003494003348
3.700915155e-05
0.001226383428
0.0003115662434
-0.0006084114763
-0.0006180638196
-8.489876975e-05
-0.0003079018813
8.47899681e-05
0.0006180797797
0.001340491265
0.0003080307437
-0.0006453765745
-0.0006960570621
-8.224800618e-05
-0.0003466567274
8.224800617e-05
0.0006960570621
-0.0003152410988
0.0006274341203
-8.489420207e-05
-3.833719518e-05
0.0003295040455
-0.0003294748248
3.830797457e-05
-9.454342578e-06
-0.0001645709375
9.222899102e-06
0.000164802381
9.268715411e-06
-0.0001553783667
0.0001554233722
-9.313720885e-06
0.0007734980385
-0.0007734980385
7.127634483e-05
-0.0001552274893
9.237789592e-06
0.0001552584151
-8.553771899e-06
-0.0001551515477
8.47783032e-06
-0.0003522660041
-1.875688376e-05
0.0003507252313
1.083974717e-05
9.457909412e-06
-0.0001652031285
0.0001652929502
-9.544164304e-06
0.0003318112392
-3.840202062e-05
-0.0003317464137
8.188624128e-06
-8.292573384e-06
-0.0001650991792
-1.504452894e-05
-0.0003521858622
8.746273243e-06
6.218113818e-06
-8.649987512e-06
-0.0001552821511
8.004499771e-06
-0.0001643868132
0.0001590776366
-9.762045256e-07
9.838802631e-06
-0.0001606112355
0.0001606741568
-9.901723968e-06
2.76465556e-05
0.0003220705459
-2.768585453e-05
-0.000322031247
-2.769060756e-05
0.0003294500808
2.754805942e-05
-0.0001643228957
-0.000164984637
2.765751069e-05
0.0003120794556
-2.772084773e-05
-0.0003120161186
0.0003196285261
-0.0003196170697
2.763509919e-05
-0.0001597106294
9.721247975e-06
0.0001598281841
9.620700439e-06
-0.0001512728543
0.0001512922245
-9.640070604e-06
2.765540323e-05
0.000303182169
-2.767562927e-05
-0.0003031619429
0.0003100614184
-0.0003100658007
2.766189299e-05
0.000300512174
-0.0003005547353
2.769796455e-05
-0.0001506184387
9.588964551e-06
0.0001506501746
-9.004560076e-06
-0.0001505792748
8.965396157e-06
-9.068468174e-06
-0.0001512089462
0.0003316957384
-2.779203298e-05
-0.0001654864834
-0.0001661078296
-4.036713771e-05
0.0003667726197
3.265717056e-05
-0.0001727525007
-0.0001863101519
-0.0001874185734
-1.58979895e-05
1.165997332e-05
0.0001916565896
-4.92715323e-05
1.306228016e-05
-0.0001512093213
-5.975107014e-06
6.045374928e-06
0.0001694230246
3.903090356e-06
-0.0001653736214
0.0001656903505
-4.219819406e-06
-9.33934233e-06
-0.000159531233
9.1599459e-06
3.458231233e-05
-8.363595128e-06
0.0001328589194
-0.0001647695897
3.476771199e-06
0.0001651959089
-0.0001628065184
0.0002027813808
-5.392550053e-06
-9.474723367e-06
-0.0001604758545
-1.993989853e-06
-3.918257426e-06
3.479059166e-06
0.001525395987
-0.001536420212
0.000306344719
-0.0001754648027
0.001536962309
-0.000763464271
9.32167965e-05
8.224800618e-05
0.0007057383083
-8.224800617e-05
-7.127634485e-05
0.0007347775503
-0.0007347775503
7.127634483e-05
-0.0007347775503
-3.837231893e-05
3.837231891e-05
0.0007347775503
-0.0003527750971
0.0003521506335
-1.813242022e-05
-0.0001639866628
9.328974761e-06
0.0001639441786
-9.286490592e-06
1.152079552e-05
0.0001637940619
-1.151652267e-05
-0.0001637983347
-1.15059319e-05
0.0001649624058
-0.000164937784
1.148131006e-05
-1.506635727e-05
-0.0003527532687
-2.740458128e-05
-0.0007347775503
2.740458128e-05
-8.777037289e-06
0.0001477691424
-0.0001477178714
8.725766311e-06
8.966978805e-06
0.000153932707
-8.667495783e-06
-0.0001542321901
-0.0002200728162
0.0001802129849
2.396184179e-05
0.0003099485851
-2.608173955e-05
-0.0001694623576
-0.0001547716257
0.0003494075118
-2.63728426e-05
-0.0003490877088
2.605303961e-05
0.0001654669487
-1.154397503e-05
-0.0001654289056
-1.153748744e-05
0.000167616414
-0.0001676559474
1.157702085e-05
-0.0001673535401
-9.992122456e-06
9.827292003e-06
0.0001675183706
-4.392573169e-06
-8.486853317e-06
8.485785582e-06
-0.0001673524724
3.093393471e-05
-0.0001656378404
-8.116500727e-07
0.0001355155558
-0.0003493932082
-6.531205454e-06
6.225675686e-06
0.000349698738
0.0001655211505
-5.549355772e-06
-0.0002693443485
-8.895947504e-06
0.00015815887
-0.000158053366
8.790443518e-06
-2.838862555e-05
1.950594359e-06
-0.0001375486316
1.158645203e-05
0.0001606900564
-1.1558631e-05
-0.0001607178774
0.0001625251331
-0.0001625815557
1.15772181e-05
-0.0001631588933
9.695924064e-06
0.000162791944
-0.0001587261825
9.490343259e-06
0.0001587929201
-9.557080871e-06
1.154122775e-05
0.0001588194507
-1.15178938e-05
-0.0001588427847
0.0001599586948
-0.000159901388
1.152914528e-05
0.0001482465324
-8.824107148e-06
-0.0001481994625
0.0001532746607
-0.0001533948748
9.087192879e-06
-0.0001679130314
0.000168236094
-1.031518507e-05
0.0001681434002
-1.146673516e-05
-0.0001682141525
-9.538253134e-06
0.0001861081118
-0.000187240196
1.067033735e-05
-0.0001626853465
1.880407413e-05
-2.117731248e-06
0.0001459990036
-0.0001681448554
0.000207787936
-8.709145937e-06
-8.965535385e-06
-0.0001674343493
-1.751049033e-06
3.130148304e-05
-0.0001652953726
0.0001357449386
-5.291086453e-06
-0.000166728102
6.381348035e-06
-5.617546002e-06
-0.0001672582632
5.419954697e-06
0.0001674558545
-8.977825713e-06
-0.0001586443043
-2.486027901e-05
0.0002234759428
3.285921022e-06
-0.0001640090588
0.0001640107751
-3.287637384e-06
-0.0001631918871
2.549045414e-05
0.0001359503839
-0.0001635984378
2.584584104e-06
0.0001642997747
-0.0002011038728
9.556353943e-06
1.150011814e-05
0.0001554809597
-1.150987537e-05
-0.0001554712025
0.0001582914914
-0.0001582962858
1.154602224e-05
9.398132443e-06
0.0001582510808
9.53414789e-06
0.0001537744936
-9.375934491e-06
1.150564081e-05
0.0001537026194
-1.150102611e-05
-0.0001537072341
0.0001552575285
-0.0001552705372
1.151312682e-05
6.075866806e-06
-7.118217614e-06
-0.0001541091969
0.0001549661946
-2.200506154e-06
-0.0001466898216
8.48952329e-06
0.0001549545016
-8.503969772e-06
0.0001657816875
-0.0001655702911
-0.0001560200624
-8.670793782e-06
0.0001560408687
7.493736211e-06
-7.598786229e-06
-0.0001559150124
-0.0001549066325
6.701067121e-06
0.0001643657631
-0.0001630623304
1.154582984e-05
0.0001512937931
-1.153842637e-05
-0.0001513011965
0.000153086982
-0.0001531184134
1.153707216e-05
9.629700006e-06
0.0001531791086
9.481057777e-06
0.0001482737493
-9.508274736e-06
1.15168327e-05
0.0001482945975
-1.152103529e-05
-0.0001482903949
0.0001506925228
-0.0001506815409
1.153484802e-05
8.317123725e-06
-8.413373024e-06
-0.0001504830255
0.0001498557796
-0.0001497778606
8.239204769e-06
0.0001499255934
8.895582332e-06
-0.0001518556049
-9.109406093e-06
0.0001518965428
8.506733359e-06
-8.617468673e-06
-0.0001517448695
-0.0001511155859
0.0001747826569
-0.0001737614676
1.063878406e-05
-9.621401295e-06
1.036454838e-05
0.0001740395098
-7.128364198e-06
0.0001891635525
-0.0001768353486
-2.478197914e-05
0.0002016173277
8.62570753e-06
-0.000169324895
0.0001673369497
-5.57274559e-06
-5.623599761e-06
-0.000167812342
-3.407030889e-06
-0.0001632875532
4.009237673e-06
7.720243697e-06
-8.025987374e-06
-0.0001592254893
0.0001591784527
7.588491231e-06
-0.0001590467002
9.058697828e-06
0.0001592797008
5.574730112e-06
0.0001394142367
-2.346590444e-05
0.0002262472852
-0.0001599693975
3.564121493e-06
0.0001329393716
-3.149819637e-06
-0.000162212128
-0.0001613551547
-9.551326243e-06
0.0001614317575
8.14741959e-06
-9.799733384e-06
-0.0001597028409
-0.0001603544223
-2.347088929e-06
1.724076534e-06
-6.700973031e-06
0.0001473994016
-0.0001473907454
-6.835970191e-06
0.0001476571674
-0.0001475221702
0.0001902204783
2.165351671e-05
-0.000211873995
-0.0001546744058
0.0001544964333
-2.735594698e-05
-0.0001295189649
8.63234131e-06
0.0001722862467
-9.366542846e-06
-0.0001724579569
-1.197081539e-05
0.0001725184212
-0.0001728829495
1.233534371e-05
-0.0001800432355
-1.377802621e-05
1.82270118e-05
0.0001755942499
0.0001668876465
-0.0001667187753
9.658420818e-06
-1.032251957e-05
1.020767994e-05
0.0001670024861
-1.045040559e-05
0.0001676462566
-0.0001667369595
2.672298006e-05
-0.0001643364405
0.0001368018104
-0.0002083938887
0.0002351168688
-1.24584995e-05
-0.0001903612746
2.277653867e-05
-1.207495479e-06
-0.0001757124604
-1.486214729e-06
0.0001784061706
-0.0001524084595
0.0001805993193
-9.386785665e-06
7.627613295e-06
-7.613825171e-06
-0.0001580671541
0.0001570821171
-0.0001570532901
0.0001572017669
0.0001642964203
-0.0001556447588
-7.077889289e-06
7.062031642e-06
-0.000149762003
-7.116569792e-06
-0.000150444345
-6.964006383e-06
0.0001481430852
-0.000148015049
0.0001488967585
-0.0001487987332
8.69183612e-06
-0.0001534543696
0.0001525690615
-0.000152494694
0.0001525468483
-9.011293293e-06
7.283163789e-06
-0.0001507665645
-0.0001408121462
-7.186425214e-06
-0.0001510457305
-0.000151648131
-1.049820126e-05
0.0001682838897
-0.0001700641889
0.000169930536
-0.0001697405899
0.0001585847162
6.916752454e-06
-0.0001676191999
2.524994105e-05
1.175711184e-06
0.000132159064
-5.586403974e-06
-2.745470194e-05
0.0002352426379
-0.0001627243087
0.000136445318
-0.0001645167022
-0.0001700804177
-0.0001678635997
-9.228805985e-06
5.408774075e-06
-0.0001673729568
-5.899417004e-06
5.736660071e-06
-0.0001656232586
-0.0001589723488
0.0001590532209
7.602337406e-06
-0.0001589861949
-0.000158655792
0.0001347594887
-2.390440305e-06
3.215523426e-05
-0.0001629928922
0.0001332280983
2.464884177e-05
-0.0001616321101
0.000134592828
7.867941636e-06
-0.0001653231686
0.000205464267
-0.0001654410911
0.0002309547211
-0.0002043884313
0.000229037273
0.0001615725458
-0.0001621377813
3.309479516e-05
0.0001320418721
-6.993861383e-06
2.360352488e-05
-0.0002247073977
0.000162070301
-0.0001482665095
0.0001620753287
0.000144481903
-0.0002342771694
0.000128443557
-0.0005849737939
-0.0002925970912
0.0002934129967
0.0004559940696
-0.0007105665801
0.0003400759913
-0.001042465675
-0.0004196786019
0.0004180036784
0.000944210981
-0.001122617197
0.0004192595979
-0.0003527811033
0.0003523933388
0.001216382456
0.0001824862582
-0.0002856620434
0.0001464325251
-0.0006714387997
-0.0003154131426
0.0003132709549
0.000535320536
0.0004804035438
-0.0003016477327
-0.0008075816061
0.0003586697607
-0.001160506357
-0.0004289529301
0.0004293150212
0.001057392029
0.0009787032734
-0.0004214172361
-0.001243116741
0.0004276033891
-0.0003498915538
0.0003518727429
0.001333847771
0.00125628304
-0.0003532082659
-0.0003156700836
0.001307992756
-0.0006468626997
-0.0006573733212
-0.0001284246938
-0.0006571983443
0.0001284125611
0.000657210477
0.0001283770324
-0.0006274523095
0.0006274647272
-0.0001283894501
-3.833692668e-05
0.0003197038479
-0.0003196718775
3.830495626e-05
-3.032582233e-05
3.03042628e-05
0.0003196500856
3.031381138e-05
0.0003120674538
-3.03018095e-05
0.0001705033146
-0.0002781161922
0.0001278398201
-0.000693291199
-0.000270582597
0.0002874607599
0.0005450013776
0.0005739800793
-0.0003100551349
-0.0008436105413
0.0003322124642
-0.001249370345
-0.0003920410535
0.0004063619165
0.001126988158
0.001125388235
-0.0004247271968
-0.001352946515
0.0004074877426
-0.0003394876453
0.0003445070314
0.001492137253
0.001414320291
-0.0003491818864
-0.001459873854
-0.0003070761661
0.001459836631
-0.0002632079466
-0.0007347775503
0.0001370852578
0.0001261226888
-0.0007250963041
0.0001261226888
-0.0007057383083
0.0007057383083
-0.0001261226888
-7.127634484e-05
0.0007150850176
-0.0003563334769
-0.0003587515407
-2.878303744e-05
-0.0003587515407
2.878303744e-05
0.0003587515407
2.878542982e-05
-0.0003514974945
0.0003514951022
-2.878303743e-05
8.080788707e-05
-0.000161098007
6.851937531e-05
-0.0005194068694
-0.0001741355996
0.0002015501501
0.0003850972349
0.0005171859511
-0.0002503490697
-0.0006616894094
0.0002437794653
-0.001084847855
-0.0003002922657
0.0003281441198
0.0009492674745
0.001103191455
-0.0003742018119
-0.001209433738
0.0003376244194
-0.001491110701
-0.0002912160054
0.0003080326746
0.001414127575
0.001498217907
-0.0003319819995
-0.001550992311
0.0002816552899
-0.001644167408
-0.000167150939
0.0001721703675
0.001625180694
0.001576039816
-0.0001754648027
-0.001654520103
0.0001301820326
3.895488429e-06
-2.939299623e-05
1.126843566e-05
-0.0002427072107
-6.342346373e-05
8.928663137e-05
0.0001521972899
0.0003290825332
-0.000145675538
-0.0003472567013
0.000121747909
-0.0007017939443
-0.0001678816572
0.0002026920896
0.0005810827674
0.0008719529305
-0.0002696954065
-0.0008197744865
0.000218548068
-0.001126333114
-0.0001948547086
0.0002225364239
0.001034549428
0.001347469652
-0.0002711836591
-0.001205434243
0.0002097591841
-0.001359308632
-0.0001253466838
0.0001387688925
0.001322216996
0.001590856019
-0.0001598535285
-0.001382232601
0.0001074942562
0
0
0
-2.431813507e-05
-1.706044779e-06
8.693269361e-06
4.66884105e-06
9.94333333e-05
-4.061584763e-05
-6.160299316e-05
2.120786454e-05
-0.0002474045852
-4.465445404e-05
7.070694594e-05
0.0001765272925
0.0004738671738
-0.0001335226688
-0.0003226829191
8.524748727e-05
-0.000543792764
-7.977116829e-05
0.0001072873487
0.0004737121746
0.0009009637241
-0.000165836466
-0.0006070560142
0.000105970461
-0.000738674111
-6.123507779e-05
7.778070692e-05
0.0007058415599
0.001186015456
-0.0001104083691
-0.000759259455
6.211739169e-05
0
0
0
0
0
0
0
0
0
0
0
-4.981069629e-06
0
1.330353036e-06
3.306766636e-07
0.0001005226362
-2.374258044e-05
-1.498756308e-05
4.467051235e-06
-7.683416429e-05
-5.675704331e-06
1.692937955e-05
5.308948814e-05
0.0003405876162
-5.486006565e-05
-0.0001008488302
1.959926351e-05
-0.0001573334289
-9.210166916e-06
1.876217015e-05
0.000142520614
0.0005426005045
-4.54219065e-05
-0.00016678001
1.573354103e-05
0
0
0
0
0
0
0
0
0
0
0
0
0
0
0
0
0
0
0
0
0
0
0
1.250712851e-05
-4.337088275e-07
0
0
0
0
0
0
6.092522202e-05
-2.880536292e-06
0
0
0
0
0
0
0
0
0
0
0
0
0
0
0
0
0
0
0
0
0
0
0
0
0
0
0
0
0
0
0
0
0
0
0
0
0
0
0
0
0
0
0
0
0
0
0
0
0
0
0
0
0
0
0
0
0
0
0
0
0
0
0
0
0
0
0
0
0
0
0
0
0
0
0
0
0
0
0
0
0
0
0
0
0
0
0
0
0
0
0
0
0
0
0
0
0
0
0
0
0
0
0
0
0
0
0
0
0
0
0
0
0
0
0
0
0
0
0
0
0
0
0
0
0
0
0
0
0
0
0
0
0
0
0
0
0
0
0
0
0
0
0
0
0
0
0
0
0
0
0
0
0
0
0
0
0
0
0
0
0
0
0
0
0
0
0
0
0
0
0
0
0
0
0
0
0
0
0
0
0
0
0
0
0
0
0
0
0
0
0
0
0
0
0
0
0
0
0
0
0
0
0
0
0
0
0
0
0
0
0
0
0
0
0
0
0
0
0
0
0
0
0
0
0
0
0
0
0
0
0
0
0
0
0
0
0
0
0
0
0
0
0
0
0
0
0
0
0
0
0
0
0
0
0
0
0
0
0
0
0
0
0
0
0
0
0
0
0
0
0
0
0
0
0
0
0
0
0
0
0
0
0
0
0
0
0
0
0
0
0
0
0
0
0
0
0
0
0
0
0
0
0
0
0
0
0
0
0
0
0
0
0
0
0
0
0
0
0
0
0
0
0
0
0
0
0
0
0
0
0
0
0
0
0
0
0
0
0
0
0
0
0
0
0
0
0
0
0
0
0
0
0
0
0
0
0
0
0
0
0
0
0
0
0
0
0
0
0
0
0
0
0
0
0
0
0
0
0
0
0
0
0
0
0
0
0
0
0
0
0
0
0
0
0
0
0
0
0
0
0
0
0
0
0
0
0
0
0
0
0
0
0
0
0
0
0
0
0
0
0
0
0
0
0
0
0
0
0
0
0
0
0
0
0
0
0
0
0
0
0
0
0
0
0
0
0
0
0
0
0
0
0
0
0
0
0
0
0
0
0
0
0
0
0
0
0
0
0
0
0
0
0
0
0
0
0
0
0
0
0
0
0
0
0
0
0
0
0
0
0
0
0
0
0
0
0
0
0
0
0
0
0
0
0
0
0
0
0
0
0
0
0
0
0
0
0
0
0
0
0
0
0
0
0
0
0
0
0
0
0
0
0
0
0
0
0
0
0
0
0
0
0
0
0
0
0
0
0
0
0
0
0
0
0
0
0
0
0
0
0
0
0
0
0
0
0
0
0
0
0
0
0
0
0
0
0
0
0
0
0
0
0
0
0
0
0
0
0
0
0
0
0
3.029248221e-05
0.0003100827476
3.033665606e-05
0.0003031446682
-3.029915531e-05
3.838708739e-05
0.0003030981342
-3.835673639e-05
-0.0003031284852
2.878997516e-05
0.0003494029664
3.020500192e-05
0.0003085452801
-2.880169698e-05
3.892835184e-05
0.0003061904643
-3.700915155e-05
-0.0003081096646
-3.782259172e-06
3.788669746e-06
-0.0006180834558
0.0001284086313
0.0006180518569
-0.0005888243941
0.0005888238449
-0.0001283638248
0.00118730613
-0.0005888207496
-0.0005984686339
-0.0002954463458
0.0005888467915
-8.482192713e-05
-0.0001174883853
-0.0005888224675
-0.0001174692833
-0.000618083586
0.0001174694135
-0.0006960570621
0.0001261226888
0.0006960570621
-0.0006711442583
0.0006711801902
-0.0001284606257
0.001356096374
-0.0006722932692
-0.0006914424446
8.497448893e-05
-0.0003349891127
0.000671274912
-8.944904904e-05
0.0001175053476
-0.0001173901392
-0.0006712594667
-0.0001151538985
-0.0006960570621
0.0001151538985
-0.0001174778547
-0.0006274437381
-0.0006571881636
0.0001174951669
-0.0003274668193
8.474888005e-05
0.0006571964736
-3.032115162e-05
3.029817113e-05
0.0003294730613
0.000322070562
-3.032583845e-05
0.0003220664926
-3.833650346e-05
-0.0003220669159
0.0001643393029
9.249359203e-06
-9.948920493e-06
9.961143054e-06
0.0001643270804
-1.003960473e-05
0.0001648930652
-1.009766922e-05
1.007697033e-05
0.0001554440711
-0.0001560680287
0.0001560655489
-1.009518946e-05
-9.340880872e-06
-0.0007734980385
-3.837231892e-05
3.83723189e-05
0.0007734980385
-0.0007444587965
0.0007444587965
-3.837231892e-05
0.0007444587965
-7.127634484e-05
-0.0007444587965
-2.740458129e-05
-0.0007444587965
-2.740458128e-05
-0.0007734980385
2.740458127e-05
0.0003518183514
-4.105890182e-06
0.0003587514929
4.104910176e-06
0.0001549205072
9.271783975e-06
-1.005394659e-05
1.007247292e-05
0.0001549019809
0.0001552814388
0.0001478416918
-0.0001478273465
1.15024874e-05
9.474571882e-06
0.0001477756283
0.000300502987
-0.0003005120334
3.839613377e-05
3.032060731e-05
0.0003005282227
-0.0001794618323
0.0001770048518
-1.132104564e-05
0.0001733973299
-1.160992394e-05
-0.0001737582214
0.0003497462534
-2.120513343e-05
1.12835671e-05
1.090054421e-05
-1.012569575e-05
0.0001653790412
-0.000165895944
0.0001659779282
0.0003636169545
-0.0003644086328
3.972003016e-05
3.042579473e-05
0.0003665518269
0.0003317205757
-3.034598887e-05
-0.0003506314569
-1.137760963e-05
5.556226345e-06
4.266978012e-06
-0.0001751338531
0.0001779009467
-3.974589081e-06
-9.271434377e-06
-0.0001826488975
-1.038625853e-05
1.035830681e-05
0.0001607021086
-0.0001614273924
0.0001613903919
-1.03492581e-05
-9.897358814e-06
-0.0003243080712
-2.781788332e-05
0.0003244401
2.508331836e-05
-1.219564798e-05
-0.0001617251686
-1.294543991e-05
2.507406674e-05
-0.000161331939
-1.218185666e-05
1.218288211e-05
0.0001649613804
0.0001637657796
-1.216736564e-05
0.0003275866084
-0.0001637043253
-0.000164152107
-0.0003153838491
-2.766223143e-05
0.0003153252328
2.527323898e-05
-2.506285565e-05
-0.0001573027411
2.488158225e-05
-0.0001561435021
2.48796064e-05
-0.0001594639146
0.0003178341814
-0.0001591979799
0.0003178070491
0.0001593738195
9.627129252e-06
-1.031547834e-05
1.028812085e-05
0.000159401177
0.0001598710125
-1.024061627e-05
1.026308756e-05
0.0001512697532
-0.0001519065502
0.0001519307585
-1.026482458e-05
-9.650078066e-06
-0.0003055890648
-2.766546668e-05
0.0003055789022
2.502279497e-05
-2.502905022e-05
-0.0001524958275
2.506347438e-05
-0.0001519088293
2.496911558e-05
-0.0001548958055
0.0003079514567
-0.0001543087719
0.000307947883
-0.0002953934704
-2.766445e-05
0.0002954332394
-2.495563923e-05
-0.0001474990938
2.514925763e-05
-0.0001499479958
0.0002976164588
-0.0001491282429
0.0002976499734
0.0001499797583
9.534799676e-06
-1.022088063e-05
1.02431514e-05
0.0001499574875
0.0001506923815
-2.798951609e-05
0.000334840232
-0.0001670457656
-0.0001675969833
-1.221734342e-05
1.222202065e-05
0.0001676117367
0.0001655117944
-1.222670239e-05
-1.110127203e-05
1.168159081e-05
0.000185527793
0.0001680902914
-1.216423456e-05
0.0003420410159
-0.0001680802964
-0.000169293065
0.0001661112124
5.719603928e-06
-5.516296433e-06
5.232723129e-06
0.0001663947857
0.0001637291633
1.775647908e-07
-4.284652994e-06
4.351744869e-06
-0.0001667895705
-4.868039258e-06
-4.876426239e-06
-0.0001661329637
0.0001649743161
3.029267253e-06
-0.0001645268121
-4.224485144e-06
3.757710132e-06
-1.868933779e-06
-2.890469739e-06
0.0002632079466
-0.001536962309
-0.000263057005
0.001498598839
-0.001498598839
0.001496258762
8.224800617e-05
0.0007444587965
-8.224800618e-05
-0.0002193346998
0.0001151538985
-0.0007444587965
-0.0007541400427
0.0001041808013
-0.0002193346998
-0.0001151538985
-0.0007057383083
-0.0007347775503
0.0001151538985
8.224800617e-05
0.0007347775503
6.031090415e-05
-0.0007347775503
-6.031090416e-05
0.0007250963041
-0.0007250963041
3.152786672e-05
0.0007250963041
0.0007250963041
1.781525208e-05
-0.0007250961606
2.055692332e-05
-4.934211383e-05
2.604107916e-05
2.330103467e-05
-4.934211383e-05
-2.604323225e-05
-0.0003518271049
-0.0003587515407
2.604107917e-05
-0.0003587508231
1.78145345e-05
0.0003587515407
-1.000675714e-05
0.0001638811631
1.006977263e-05
-0.0001642592889
0.0001642136748
-0.0001642160465
-1.14722825e-05
0.0001641718064
1.074797371e-05
-1.075034542e-05
1.083080211e-05
1.073011025e-05
-1.077482899e-05
0.0001643068452
0.0001643158728
-1.507319809e-05
-0.000358750584
1.507295899e-05
-6.84703597e-06
6.847275068e-06
0.0003587512538
0.0003521374342
-6.850288274e-06
1.643607814e-05
-1.643607814e-05
0.0007250961128
9.589185687e-06
1.23313354e-05
8.042013271e-06
-8.102717317e-06
0.0001474464762
0.0001474704844
-6.370676149e-07
0.0001737216883
-0.0001297544166
0.0001450140984
-1.58967494e-05
-8.419080391e-05
-2.160177089e-05
-0.0003439283792
-2.639680839e-05
0.000344243448
-2.43385177e-05
-0.0001712170329
1.207001136e-05
1.207558124e-05
0.000171759053
-1.05740784e-05
2.396053563e-05
-2.330199104e-05
0.0003470100652
-0.0001739907174
0.0003466662964
-0.0001660518538
-1.15427966e-05
0.0001660506754
1.082469334e-05
-1.089861895e-05
1.094772504e-05
-1.095741583e-05
0.0001670515922
0.0001670858164
5.209942088e-06
0.0003475743607
5.619280799e-06
-0.0003469679658
-8.351792566e-06
2.382404052e-06
0.0001757828131
2.627082992e-06
-9.284511543e-06
-3.969413187e-06
-0.0001518460772
-0.000173927569
5.975126726e-07
8.09189237e-06
-3.989254948e-05
-0.0002823739443
0.0001733246754
0.0001464692068
-1.270564029e-05
8.623190981e-05
-0.0001268046606
5.327839107e-05
-0.000146344887
0.0001088572675
-0.0001613441109
-1.154645906e-05
1.098747052e-05
-1.094118947e-05
1.097170164e-05
1.088252e-05
-0.0001626332736
0.0001616944095
-0.000161753079
0.000161873894
-1.022844308e-05
-1.023578272e-05
0.0001588412377
1.01874651e-05
-0.0001591232693
0.0001591756074
-0.0001592089288
-1.15069449e-05
1.086746753e-05
-1.090078894e-05
1.086592057e-05
1.094132616e-05
0.0001594417142
-0.0001489768686
0.0001490483438
8.159094651e-06
-0.0001696169894
-1.121698058e-05
0.0001693672349
1.088767866e-05
-1.057413212e-05
9.776838798e-06
-7.853482338e-06
0.0001732422165
0.0001726955733
5.481314931e-06
-0.0001673761089
-4.833308067e-06
0.0001671838984
-0.0001676020005
0.0001672870881
-0.0001667435597
-5.182951648e-06
-5.103206016e-06
-4.615196329e-06
-0.0001638503784
-0.0001641087486
-0.0001561063452
-1.154703233e-05
1.082746215e-05
-1.08682584e-05
1.080033077e-05
1.086663711e-05
-0.0001582970024
0.0001573037512
-0.0001573053725
0.0001572590185
-1.014154351e-05
-1.013766981e-05
0.0001537397993
1.017236417e-05
-0.0001543922828
0.0001543270859
-0.0001542985865
-1.151121154e-05
1.084782242e-05
-1.081932302e-05
1.088038759e-05
1.081123238e-05
0.0001548938902
-0.0001519074989
-1.153975679e-05
1.089984016e-05
-1.087658049e-05
1.086839682e-05
1.087915867e-05
-0.0001531171845
0.0001524985121
-0.0001524959339
0.0001525264702
-1.02342883e-05
-1.021194384e-05
0.0001482816127
1.020408052e-05
-0.0001490748687
0.0001491060762
-0.0001490914955
-1.155778272e-05
1.088037526e-05
-1.08657945e-05
1.0871593e-05
1.087923741e-05
0.0001499709304
-5.328548029e-06
0.0001675622917
-0.000167840066
0.0001677442411
-0.0001648450521
-5.295249911e-06
5.083358394e-06
-2.184169399e-06
4.694595839e-06
-4.25298574e-06
0.0001689052122
-0.0001508886518
-1.147984239e-05
0.0001530019513
6.589750948e-06
-1.246430434e-05
1.360352435e-05
-0.0001736042679
-1.288220593e-05
0.0001703615316
-0.0001692223116
0.000169418812
-0.0002353826041
-1.570024892e-05
-1.371026695e-05
-3.43863305e-06
-0.0001833460217
-3.576619893e-06
0.0002659388982
-0.0001831456214
0.0001770288432
-3.909770058e-05
-0.0001394173573
3.725802249e-06
-9.84258051e-06
-1.214048868e-06
2.866802833e-05
-0.0001079792128
-0.000156463699
0
0
0
0
0
0
-2.163436978e-05
-2.597095542e-05
-7.886317405e-05
7.806063575e-05
7.403866055e-05
0
0
0
0
0
0
0
0
-3.851993597e-05
-4.029485284e-05
-9.572057397e-05
9.326748534e-05
9.958180605e-05
8.115223089e-05
-8.537766675e-05
-0.0002697002532
-0.0001421598207
0.0001699787721
0.0001928865897
-0.0001989505385
-0.0003855098221
0.0001834193189
-0.0003593762496
-0.000778375916
0.0006453172612
-0.0003542841477
0.0003836482152
-0.0003903479798
-0.0009060578714
0.0003796030128
-0.0008644911377
-0.001208141589
0.00112457346
-0.0004261087156
0.0004107239824
-0.0004127558934
-0.001267118491
0.0004091264713
-0.001221774014
-0.0003153005809
-3.836858158e-05
3.566083537e-05
-3.565645695e-05
-0.0003153049594
3.563721624e-05
-0.0003120887635
0
0
0
0
0
0
0
0
-3.610441442e-05
-2.951001908e-05
-6.875239902e-05
7.854053945e-05
8.641988747e-05
0.0001078334923
-9.23382745e-05
-0.000304446636
-0.0001378281381
0.0001932785519
0.0002016188357
-0.0001933571678
-0.0004330178466
0.000206374709
-0.0004351374889
-0.0008672778646
0.0007203916165
-0.0003455370119
0.0003900325087
-0.0003809631724
-0.001008248331
0.0003951927028
-0.0009999809334
-0.001341297017
0.001250058988
-0.000416757388
0.0004091050153
-0.0004042048722
-0.001407868644
0.0004117876871
-0.001380841625
0
0
0
0
0
0
0
0
-6.910997957e-06
-2.002249536e-06
-2.265999539e-05
3.385849264e-05
2.684994454e-05
7.32168483e-05
-5.763464669e-05
-0.0002280520063
-8.512807692e-05
0.0001305626203
0.0001501867979
-0.0001310674622
-0.000346344148
0.0001672773332
-0.0003791161541
-0.0007745259593
0.0006251239957
-0.0002705155726
0.0003309067257
-0.0003070956017
-0.0009230698152
0.0003512937513
-0.0009630690759
-0.00131270427
0.001196621221
-0.0003601829665
0.0003734368358
-0.0003569453366
-0.001410558198
0.0003866620829
-0.00143038719
-0.001582976387
0.001545440056
-0.0002919855939
0.0002610729916
-0.0002565481339