/*--------------------------------*- C++ -*----------------------------------*\
| =========                 |                                                 |
| \\      /  F ield         | OpenFOAM: The Open Source CFD Toolbox           |
|  \\    /   O peration     | Version:  v2012                                 |
|   \\  /    A nd           | Website:  www.openfoam.com                      |
|    \\/     M anipulation  |                                                 |
\*---------------------------------------------------------------------------*/
FoamFile
{
    version     2.0;
    format      ascii;
    class       volScalarField;
    location    "1";
    object      nut;
}
// * * * * * * * * * * * * * * * * * * * * * * * * * * * * * * * * * * * * * //

dimensions      [0 2 -1 0 0 0 0];


internalField   nonuniform List<scalar> 
3259
(
1.147667065
1.147543739
1.148203792
1.150271277
1.153099893
1.159785204
1.075407851
0.8874943255
0.7205209643
0.5955498898
0.49084346
0.4363972882
1.147581828
1.147510047
1.148346093
1.150726507
1.154111325
1.161385301
1.133372897
0.9367949054
0.7817113856
0.6479281766
0.520727504
0.2911065716
1.147548274
1.147519856
1.148518964
1.15121593
1.155013859
1.162854371
1.170394698
1.021749844
0.8747870407
0.7490599989
0.6202699868
0.09038892074
1.147619822
1.147631567
1.148769259
1.151738966
1.155889982
1.164163369
1.171998597
1.161507633
1.022789568
0.9240738253
0.834848298
0.04480379808
1.147658438
1.147694172
1.148943937
1.152177037
1.156676481
1.165270744
1.173280065
1.170328252
1.143674868
1.055120487
0.6314670803
0.02832187982
1.147747901
1.147802042
1.149134217
1.152567992
1.15732703
1.166139818
1.17420282
1.171033091
1.13846017
0.9974552364
0.3317342288
0.03718436971
1.1477449
1.147801638
1.149187674
1.152805549
1.157819634
1.1667671
1.174754064
1.171245338
1.135156367
0.939569526
0.1967320177
0.06294118871
1.147774389
1.147834922
1.14925181
1.152983255
1.158148172
1.167167629
1.175006522
1.171055845
1.130884164
0.8972179995
0.1775846195
0.07761172416
1.147682041
1.147739312
1.149169848
1.153003187
1.158327548
1.167368868
1.175015117
1.170545492
1.125487489
0.8505668172
0.1682556245
0.08784259089
1.147630205
1.147694921
1.149133998
1.153010109
1.158381487
1.167406153
1.174832778
1.169773677
1.118976192
0.8036713142
0.1628778322
0.09698191837
1.147443337
1.14751489
1.148960544
1.152890314
1.158345141
1.167319546
1.174506599
1.168770914
1.111072914
0.7636252265
0.160235922
0.1048583754
1.14731869
1.147410544
1.148869727
1.152812982
1.15824441
1.167145306
1.174070103
1.1675241
1.101076815
0.7325455518
0.1596731214
0.111445153
1.147051549
1.147162766
1.148637777
1.152620669
1.158102991
1.166909088
1.173539163
1.165963141
1.088666443
0.7088253587
0.1607880753
0.1168708447
1.146871965
1.147014289
1.148514773
1.152505101
1.157928039
1.166626488
1.172916478
1.16398179
1.074557226
0.6906118217
0.1633125762
0.1212581827
1.146544602
1.146714243
1.148239141
1.152264175
1.157731119
1.166306054
1.172197189
1.16148004
1.059941347
0.6765386545
0.1670001639
0.1248008099
1.146325949
1.146533018
1.148092907
1.152126113
1.157509938
1.165952405
1.171370881
1.158407229
1.045730013
0.6656247866
0.17162966
0.1276592187
1.145961533
1.146199168
1.147787184
1.151847238
1.157274137
1.165567678
1.17042362
1.154780623
1.032363224
0.6571125691
0.1769364874
0.12994861
1.145711627
1.145989772
1.147619025
1.151692366
1.157018196
1.165153103
1.169341102
1.150674184
1.019980642
0.6503853997
0.1827665029
0.1317868653
1.145339047
1.145647569
1.147304936
1.15139154
1.156752845
1.16470851
1.168112713
1.146191299
1.008598787
0.6451343989
0.1890375817
0.1332847517
1.145049538
1.145400197
1.147102718
1.151213024
1.156470524
1.164233668
1.166734646
1.141441113
0.9981663528
0.6410195004
0.1955939266
0.1345219832
1.144710144
1.145088476
1.146817621
1.150924609
1.156182072
1.163727134
1.16521048
1.136523502
0.9886201794
0.6378261633
0.202365756
0.1355751319
1.144347712
1.14476995
1.146546469
1.150684971
1.155881051
1.163190695
1.163550497
1.131521063
0.9798866309
0.635418523
0.2093202649
0.1365158918
1.144102249
1.144547562
1.146348736
1.150484895
1.155581779
1.162631895
1.161782589
1.126492912
0.9718647058
0.6336285049
0.2163517262
0.1373996968
1.143614533
1.144113658
1.145973927
1.150140225
1.155314424
1.162086875
1.160003121
1.121484946
0.9644752581
0.6322817372
0.2232960786
0.1382878524
0.4412746224
0.339230301
0.488607483
0.4564794978
0.5097346056
0.3872779078
0.4469562691
0.4010776144
0.02961287347
0.04930915303
0.2834531356
0.05029862993
0.03130935013
0.004689466955
0.02929839888
0.3957898408
0.01835835278
0.0104006916
0.03095991812
0.01869039395
0.01181111164
0.04429074084
0.1950711287
0.1813943096
0.213996071
0.2006143459
0.04465141192
0.06675236364
0.2327787031
0.2188645713
0.2373913618
0.06811043886
0.04816685786
0.04714179444
0.1760754811
0.1659668947
0.02339686604
0.01180074354
0.02385358147
0.01560848936
0.02949913668
0.01152637682
0.01468839848
0.0117666919
0.02953553422
0.01216901274
0.0201590991
0.5829767797
0.3899999616
0.3733394713
0.2603875483
0.008274235468
0.005309077706
0.03260003505
0.09675430586
0.09124470507
0.01110724288
0.01614161188
0.05036916581
0.03828670339
0.004396409018
0.1260798564
0.1074694857
0.08935986269
0.08489970694
0.02891990903
0.02185319416
0.01813189563
0.01131321406
0.02116034327
0.02837662721
0.002858136492
0.0304765231
0.01971782632
0.1056037598
0.09871961674
0.03636412521
0.04684937443
0.1132244637
0.1074884388
0.04970478471
0.04317493346
0.02783326668
0.08216752852
0.0734404308
0.01254348277
0.01204290157
0.01733873982
0.01165315766
0.01256811658
0.01906017796
0.03036446133
0.008037720621
0.01288015618
0.01142816623
0.0120840784
0.02054883135
0.1208759066
0.1150501616
0.04734461862
0.05809083194
0.1296154646
0.12290191
0.01947783484
0.0197701083
0.03215085307
0.01831298546
0.03074554694
0.01904966847
0.01921774337
0.01870530337
0.1383274844
0.1318553667
0.06138807144
0.07116495199
0.1461137302
0.1402616108
0.03146575265
0.03153109775
0.04852907237
0.04681355688
0.03106811217
0.03102928291
0.0221832391
0.03518478756
0.03485998775
0.008371178015
0.0141062831
0.02113246653
0.01265991094
0.01197988306
0.01815375146
0.01839805727
0.02995253643
0.01157460385
0.008401443643
0.0114882451
0.01150140152
0.02797981627
0.01766340249
0.01824671942
0.01488698106
0.01975202085
0.01956118924
0.01538420427
0.03421314715
0.02036092819
0.02127822396
0.04166064316
0.02880889372
0.003020188253
0.02892869173
0.04444003492
0.04407207854
0.01809262005
0.0112552833
0.008247319709
0.003769169871
0.01233077936
0.01239861947
0.01882322803
0.01898237121
0.03067226683
0.01913142874
0.01911798328
0.01907354424
0.01936190364
0.01930034684
0.02942564861
0.02938744361
0.04480440129
0.01831705264
0.0193438707
0.01884656068
0.01891198808
0.04244294864
0.04185862721
0.02763057814
0.01263263084
0.01046566617
0.01046052419
0.007831564178
0.01082134417
0.01215752188
0.0179240525
0.01208137496
0.01238838759
0.01227228586
0.03007248009
0.01850478529
0.01870937628
0.01126210279
0.01161618194
0.01149842579
0.01188853797
0.01197453486
0.008392820549
0.008385994285
0.01192702075
0.01162103464
0.01186189786
0.01499547497
0.01851692891
0.02804249609
0.8725805878
0.7452888422
0.7088605397
0.6137032359
0.5857107256
0.5120938142
0.9178819599
0.7986764212
0.7574609875
0.7622988996
0.6613184394
0.6241645369
0.6291010245
0.5314167292
0.5148721185
0.4937539802
0.4642103832
0.4778260348
0.4211686202
0.2558806549
0.2703029259
0.9949161146
0.8813851504
0.8176485768
0.8465218577
0.748405265
0.680675152
0.7166912114
0.6191831383
0.5460923011
0.5323135267
0.4937165966
0.4757260675
0.2855187565
0.1377089747
0.1565730544
1.116764642
1.010538876
0.9089550957
0.9799914485
0.8982219284
0.7796364986
0.8733590587
0.8012476317
0.6564158551
0.7823212922
0.2346629895
0.3560310177
0.05614792007
1.170096831
1.15426766
1.051067544
1.144974489
1.095517238
0.947151571
1.065725261
0.8556344898
0.872858428
0.699330908
0.08349040232
0.190789244
0.02870477952
1.170893602
1.151796232
1.153621514
1.139584673
1.06504988
1.089151
1.013928907
0.628698288
0.8094409507
0.4014801042
0.0366988664
0.06032253138
0.03358443436
1.171234308
1.150344227
1.151368331
1.136044358
1.031999345
1.056111206
0.9501501483
0.4033425922
0.5570533509
0.2160454103
0.03887330366
0.03606634885
0.05636376473
1.171136583
1.14826196
1.149901789
1.132059304
1.007544671
1.02619172
0.9081716367
0.3420351606
0.3743411668
0.1807814038
0.04308153771
0.04018271044
0.07492301648
1.17069965
1.145446131
1.147626538
1.126940163
0.9797533455
1.000940883
0.8625532912
0.3160818095
0.3343578269
0.1701390583
0.04621880348
0.04383308493
0.08537069105
1.169988943
1.141919713
1.144631589
1.120714915
0.9473386232
0.9721335016
0.8149776107
0.2995031358
0.3112370935
0.163926541
0.0496436377
0.04705063459
0.09481113015
1.16904291
1.137634972
1.140926511
1.113214466
0.9112393173
0.938500639
0.7727766748
0.2887103194
0.2963543272
0.1606851262
0.05322661949
0.05052869339
0.1030107794
1.167861484
1.132315496
1.136424076
1.103807035
0.8767881862
0.9022532581
0.7395443276
0.2820183624
0.2867224382
0.1596486945
0.05684759923
0.05413008942
0.1099097624
1.166388192
1.125473539
1.130763938
1.091972074
0.8476358831
0.8689592848
0.7141748445
0.2784034704
0.2808621415
0.1603680175
0.06040063858
0.05774283409
0.1156157225
1.164522341
1.116905456
1.123491084
1.078178426
0.8240005916
0.8412457263
0.6947335146
0.2772303004
0.2779096664
0.1625687329
0.06381448541
0.06126502992
0.1202469016
1.162157815
1.106942348
1.114523027
1.063584008
0.8049273296
0.8188481914
0.6797229423
0.2779608563
0.2772539453
0.1659825808
0.06704764365
0.06463477942
0.1239846615
1.159228968
1.096230796
1.104310152
1.04921488
0.7894696863
0.8007624763
0.6681041398
0.2801957616
0.2783999169
0.1704035764
0.07008522977
0.06781732085
0.1270035999
1.155735496
1.085354333
1.09350987
1.035615951
0.7768042711
0.7860733239
0.6590309633
0.2834884972
0.2809388745
0.1755624767
0.07293798101
0.07080333923
0.1294270695
1.151739697
1.074695116
1.082660134
1.022982005
0.7663181608
0.7740059164
0.6519111789
0.2875266055
0.2844385521
0.1812701189
0.07563731655
0.07360983758
0.1313698989
1.14734082
1.064468926
1.072094472
1.011352789
0.7575720594
0.763986202
0.6463310385
0.2921606745
0.288636749
0.1874474624
0.07822426354
0.07627003375
0.1329494603
1.142647567
1.054771848
1.061994664
1.000689635
0.7502194179
0.7556142683
0.6419571874
0.2972015946
0.2933907524
0.1939522984
0.08073392854
0.07882515456
0.1342519691
1.137763224
1.045638784
1.052437039
0.9909270237
0.7440157399
0.7485721413
0.6385468265
0.3025193984
0.2985017435
0.2006871277
0.08320513647
0.08130718474
0.1353533887
1.132775579
1.037072696
1.043446232
0.9819995548
0.7387874236
0.742625835
0.6359584964
0.3080875832
0.303875263
0.2076367891
0.08568478756
0.08375605744
0.1363284586
1.127749156
1.029048649
1.035019288
0.9738085103
0.7343658502
0.7376154722
0.6340371566
0.3138310817
0.3094721253
0.2147395046
0.08822170632
0.08621705059
0.1372354332
1.122722299
1.021502774
1.027124444
0.9662340503
0.7305555369
0.7333655241
0.6325946337
0.3196400103
0.3151763242
0.2218994701
0.09085858362
0.08873391976
0.1381297617
1.117411406
1.013913779
1.019728574
0.9587098676
0.7269589551
0.7297179071
0.6313841269
0.3257560021
0.3208084466
0.2294641975
0.09386332529
0.09134449731
0.1391669942
0.2753167362
0.2899018458
0.4560939481
0.1625862358
0.1781849365
0.3471517184
0.0368771224
0.4723940002
0.494833856
0.486917129
0.4814257627
0.4825578552
0.4678436599
0.4648689111
0.4721697835
0.4995632246
0.4077210102
0.45136877
0.4482299479
0.4652623638
0.4529986832
0.4180322913
0.2364733662
0.2505788817
0.4161861252
0.0298329656
0.04746664078
0.04662553464
0.07162882807
0.07029199571
0.04855030531
0.009465805859
0.009075584676
0.2426299833
0.01770360182
0.01927139227
0.04143186969
0.0513508664
0.051896762
0.07505989922
0.07311493189
0.1478683211
0.07233614609
0.4606634531
0.2947118542
0.003335531802
0.02673501274
0.01469163215
0.04575665442
0.0452944753
0.02922198159
0.3809423222
0.21660967
0.2303755747
0.01434976489
0.01361576975
0.005363337822
0.06216386965
0.06029830063
0.04241410675
0.1914660069
0.1398688213
0.1426195477
0.1183582453
0.1290330562
0.1854448122
0.2096951765
0.1563962182
0.1602900273
0.1481837612
0.1516340526
0.2046221941
0.04568020312
0.06469763568
0.06332784304
0.08914610263
0.08748576064
0.06565617041
0.2281578996
0.1737452548
0.1780239254
0.1648447566
0.1691680688
0.2234093148
0.2466371668
0.1904310093
0.1822282975
0.1863373084
0.2419978641
0.06901603894
0.09227683042
0.09079397025
0.1734485684
0.109150302
0.1155491752
0.09651692499
0.1059584806
0.1656114595
0.02396921223
0.01667479107
0.01715603279
0.01285655582
0.01305095325
0.01654203912
0.01383380599
0.01225371405
0.01262805534
0.01295872291
0.01602237877
0.5466736735
0.5168002875
0.5534938342
0.364907952
0.468649885
0.4938742371
0.4465220376
0.4638278208
0.3745263166
0.1264626164
0.152336045
0.274289254
0.008059347997
0.03622881904
0.02912563491
0.1001780296
0.1158436361
0.006612338208
0.05152414867
0.04910519354
0.03071678207
0.09483753692
0.07090981811
0.07318222918
0.06762018505
0.06891186254
0.09282774383
0.01242819319
0.03315548351
0.0240068632
0.03526559929
0.03026726586
0.0158660715
0.03207766714
0.03223980717
0.05097530977
0.009851845433
0.006918444651
0.002853131164
0.1188843577
0.06170532852
0.06826788204
0.05321517974
0.05936166846
0.1125851635
0.08801996093
0.06523050512
0.06613344415
0.06296146529
0.06374911185
0.08600846204
0.02662049176
0.01797772111
0.01320561705
0.01426955703
0.01259907953
0.011585099
0.01737044372
0.006024219071
0.007785070737
0.1033858052
0.08092247314
0.08285074223
0.07598479746
0.07850661254
0.1012522828
0.04081454752
0.05800599545
0.054977953
0.06693621583
0.065693553
0.04609406135
0.1112328368
0.08775151005
0.08937056946
0.08455311583
0.08620447095
0.1094517375
0.04924007704
0.03178083497
0.0318548419
0.08125926152
0.05987272755
0.06081762704
0.05158362852
0.05288940693
0.07323012435
0.0125234294
0.01245938
0.01223174992
0.01756210144
0.01361233829
0.01422575033
0.0117736481
0.0120682968
0.01342629561
0.118859546
0.09414890764
0.09588191615
0.09092005797
0.09254972984
0.1170006337
0.04799699003
0.0691770752
0.06797327663
0.08038025652
0.07751438516
0.05448857554
0.1272780289
0.1021127464
0.1046003284
0.09772176854
0.09978979862
0.1250450178
0.1361934396
0.1114848121
0.1134921276
0.1070338036
0.1093716719
0.13413999
0.06367428389
0.08548020664
0.08307498185
0.09534565432
0.09386024991
0.07020533009
0.144179308
0.1194348004
0.1215012613
0.1154562297
0.1174205207
0.1423100549
0.01495791554
0.01561485045
0.02211503547
0.01263947291
0.01290096707
0.01261435884
0.01374882592
0.01319099684
0.01289558552
0.0138583571
0.03137718225
0.01535681969
0.02189622119
0.01419494476
0.01502025123
0.02968650981
0.002064802919
0.006690595483
0.006445679715
0.009123107972
0.007460682102
0.003584489459
0.01138277299
0.008587007478
0.009570320857
0.01022185507
0.009306336386
0.0114239786
1.152794292
1.155416572
1.158812302
1.162763419
1.068464646
0.9209435941
1.153682209
1.156751145
1.15597364
1.16061744
1.16472214
1.163713411
1.100801021
0.9699369711
0.9511898438
0.8935772949
0.8497096785
0.8389108091
0.7332933432
0.6993532627
0.6869553905
0.6054410102
0.576360301
0.5678500374
0.4312239821
0.3785363516
0.3836575873
1.154582041
1.157990891
1.157368843
1.162143592
1.166475469
1.165589766
1.167245482
1.0307506
1.000053897
0.9492196208
0.9104049829
0.8953914711
0.797320724
0.7630307585
0.7471232599
0.664173468
0.6317074978
0.6156494498
1.155481252
1.159156703
1.15856918
1.163533459
1.167989732
1.167234152
1.171252622
1.147709538
1.076216175
1.048473986
1.010674799
0.9815477297
0.9059253712
0.874402029
0.8419766268
0.7854504251
0.7570416928
0.7187524433
0.6644139989
0.6387619816
0.5887972568
0.07676689087
0.01465545002
0.0140604583
1.156319637
1.160199513
1.159678549
1.164750578
1.169337738
1.16871432
1.172652081
1.172311323
1.171284072
1.169597602
1.165446922
1.117090244
1.070037164
1.045624284
0.9962228702
0.9818890622
0.9670759363
0.9019449086
0.7992001022
0.6200700032
0.669896831
0.03779279645
0.01886293903
0.01704554865
1.157040142
1.161073575
1.160642434
1.165740022
1.170373593
1.169888619
1.173799958
1.173281952
1.172602895
1.170541838
1.166625378
1.16656905
1.142293993
1.128049206
1.130551588
1.043216195
0.9853865218
1.004731338
0.5570258307
0.3219268568
0.3975860468
0.0290876158
0.03932628086
0.03117972555
1.157611058
1.161753737
1.161422892
1.166486683
1.171128655
1.170785707
1.174519045
1.173781848
1.173450169
1.171130148
1.166917778
1.166889711
1.137591259
1.118124351
1.120379541
0.9804424322
0.8752729146
0.9056080149
0.2826821073
0.131733334
0.1583475882
0.04260798032
0.1014690993
0.082560425
1.158017009
1.162235963
1.162005602
1.166997217
1.171616405
1.171403736
1.174914279
1.173882743
1.173839339
1.171232933
1.166701949
1.166799458
1.134197204
1.111420445
1.113232477
0.9293162443
0.7836144168
0.7994113818
0.1884954898
0.07883287768
0.08326850173
0.06911752507
0.1610905435
0.1515321815
1.158265036
1.162531877
1.162394315
1.167293551
1.171867506
1.171769114
1.175037926
1.17367302
1.17385584
1.170956107
1.166054561
1.166252459
1.129639758
1.103064725
1.105316179
0.8859641624
0.7214083599
0.7365993097
0.1748012123
0.07445664047
0.075286324
0.08024892222
0.1720502742
0.169800524
1.15837357
1.162666362
1.162607322
1.167407557
1.171917
1.171914843
1.174944658
1.173223587
1.17358087
1.170375648
1.165045181
1.165328784
1.123967333
1.093001596
1.095677075
0.8385547808
0.666927193
0.6793501738
0.1666255636
0.07232073342
0.07269344512
0.09023982525
0.179567245
0.177884704
1.158375528
1.162673338
1.162674638
1.167377528
1.17180459
1.171878151
1.174685168
1.172583618
1.173080749
1.16954442
1.163711998
1.16407484
1.117154531
1.081046108
1.08425289
0.7928303948
0.6260947909
0.6350516675
0.1620007153
0.07170076061
0.07173599907
0.09907003489
0.1852449644
0.1839637975
1.15830072
1.162589128
1.162632718
1.167242885
1.171572329
1.171700875
1.174300771
1.171773175
1.172398265
1.168484021
1.162050173
1.162499361
1.108798835
1.066277787
1.070287825
0.755055237
0.5968887659
0.6033175422
0.1599249923
0.07220842681
0.07198840663
0.1066192811
0.189573053
0.1886054374
1.158176417
1.162442221
1.16251523
1.167034933
1.171253856
1.171422159
1.173816065
1.17077342
1.171544188
1.167167161
1.159976561
1.160541663
1.098190582
1.048272537
1.053021612
0.7260069814
0.5756754409
0.5803849369
0.1598083908
0.07364210085
0.07320057286
0.1129037494
0.1927995677
0.1920818792
1.158015146
1.162251468
1.162345528
1.166773925
1.170869776
1.171069041
1.173239497
1.169534831
1.170490448
1.165511689
1.157326127
1.158053335
1.085253709
1.028524695
1.033502937
0.703822626
0.5601327205
0.5635707404
0.1613039363
0.07592046136
0.07527347996
0.1180548081
0.1950921772
0.1946051512
1.157828475
1.162026993
1.162137956
1.166471602
1.170430609
1.170656523
1.172569541
1.167996053
1.169182935
1.163408291
1.15392188
1.154849232
1.070906629
1.00907147
1.013824797
0.6867484572
0.548791264
0.5512907443
0.1641368323
0.07896106957
0.07812912698
0.1222146561
0.1965193589
0.1962311233
1.157617918
1.161775353
1.161899936
1.16613423
1.169940333
1.170191504
1.17179842
1.166101315
1.16756003
1.160765927
1.149682962
1.150819921
1.056327868
0.9911092913
0.9954283569
0.673550465
0.5406875479
0.5424814982
0.1680856401
0.08272287999
0.08171324509
0.1255745143
0.1973211975
0.1971665904
1.157389527
1.161499463
1.161636444
1.165765246
1.169398714
1.169675523
1.170913681
1.163816681
1.165570065
1.157550273
1.144667835
1.145986653
1.042301534
0.9750174526
0.9788647451
0.663294913
0.5350278724
0.5362517509
0.1729074315
0.08713785815
0.08597122063
0.1282823165
0.1976902796
0.1976303317
1.157143991
1.16120316
1.161349691
1.165366364
1.168802873
1.169106728
1.169900859
1.161141275
1.163186887
1.153795314
1.139038594
1.140493134
1.02917435
0.9607398826
0.9641478044
0.6552733682
0.5311718749
0.531993625
0.1783548093
0.09213258454
0.0908231452
0.1304500305
0.1977396558
0.1977492291
1.156883467
1.160887613
1.161043045
1.164938718
1.16814859
1.16848114
1.1687471
1.158106158
1.16041784
1.149584319
1.132991112
1.134532711
1.017043559
0.9480842614
0.9511090966
0.6489531498
0.5286860983
0.5291936726
0.1843082909
0.0976802327
0.09622827838
0.1321982838
0.197573367
0.1976263983
1.156615317
1.160556957
1.160716628
1.16448255
1.167431446
1.167793867
1.167445335
1.154764716
1.157300732
1.145024608
1.126701162
1.12828764
1.005905795
0.936826559
0.9395212296
0.6440139954
0.5272811432
0.5275467396
0.1906701478
0.1037360644
0.102159124
0.1336300627
0.1972532321
0.19733786
1.156329981
1.160210884
1.160374283
1.163997997
1.166647657
1.167040212
1.165995371
1.151180229
1.153892641
1.140223803
1.120316506
1.121915058
0.9956997422
0.9267713222
0.9291812498
0.6401432461
0.5266834857
0.526765629
0.1972931405
0.11021517
0.1085239543
0.1348222346
0.1968353774
0.1969324516
1.156054213
1.159853847
1.160012905
1.163483361
1.165793558
1.16621708
1.164401363
1.147416382
1.1502577
1.135278116
1.113946692
1.115533107
0.9863655006
0.9177678932
0.919927034
0.6371600423
0.5267493319
0.5266723352
0.2041390085
0.1170714034
0.115253409
0.1358519641
0.1963922627
0.1964837895
1.155744509
1.159479135
1.159640955
1.162933746
1.164861531
1.165325634
1.162663707
1.14352662
1.146458103
1.130264728
1.107667521
1.109226066
0.9778196317
0.9096912071
0.9116319538
0.6349273261
0.5273722047
0.5271629244
0.2111762627
0.1242451651
0.1222944448
0.1367867625
0.1959664352
0.196045148
1.155457045
1.159074628
1.159258342
1.162327912
1.163825608
1.164378433
1.16075371
1.139548684
1.142544214
1.125236371
1.101520388
1.103046185
0.9699548396
0.9023922852
0.9041543166
0.633270679
0.5283985097
0.528085332
0.2183187563
0.1316490882
0.1295363002
0.1376792878
0.1955797186
0.1956449194
1.155101249
1.158635807
1.158910357
1.161642565
1.162615821
1.163420094
1.158527217
1.135272036
1.138558537
1.120188098
1.095465924
1.0970208
0.9625853135
0.8956396338
0.897381638
0.6319765985
0.5296604159
0.5292554119
0.2254843271
0.1391903798
0.1368290606
0.1385942086
0.1952746551
0.1953348579
0.3888085481
0.3939807317
0.4463781884
0.2673195235
0.2797041286
0.3338428362
0.4654886556
0.4666552278
0.4597023882
0.3990789249
0.4089505416
0.4028637328
0.4525129008
0.4451194473
0.4370512264
0.3481260562
0.3528603408
0.4060386557
0.4692803339
0.4210685915
0.3909655448
0.338492669
0.3424515922
0.01860641683
0.3962040617
0.3951324636
0.3695980984
0.01174769606
0.01073720281
0.005631700364
0.01138201221
0.01577798064
0.01489737273
0.02349364784
0.01837868676
0.01490371037
0.02253201569
0.82556535
0.8163666543
0.8657608671
0.7337469378
0.7725457763
0.7831163663
0.6751462689
0.6642958388
0.6976021948
0.6042697641
0.6332474941
0.6435263436
0.5595498228
0.5522759254
0.57727343
0.5088692616
0.529606084
0.5355358688
0.8777988574
0.8628236454
0.9089240299
0.7824207321
0.8215387163
0.8373949386
0.7970730513
0.8083604145
0.7693625645
0.7275287557
0.7117166854
0.7460804817
0.6469935935
0.6786925156
0.6939321886
0.6545920664
0.6668778704
0.6358057316
0.5977685848
0.5859102037
0.6159414992
0.5230255645
0.5574902799
0.5672410986
0.5420501147
0.5496192766
0.5185069872
0.3683111153
0.3733983061
0.4263319847
0.2604775455
0.317404713
0.3124652051
0.3275481754
0.3225549158
0.2655866933
0.9564497075
0.9316369437
0.9730550213
0.8553556067
0.8924036001
0.9176162929
0.855650986
0.8705132521
0.8329192228
0.8128568999
0.7858833947
0.8198747538
0.7202278992
0.7527560787
0.7803220521
0.7135360849
0.7296376563
0.6969057986
0.6850618892
0.6555119744
0.6877838536
0.5874465645
0.6235192353
0.6538742321
0.58364538
0.5995013993
0.5628917392
0.2120165904
0.2073327108
0.1513662556
1.076484496
1.041476961
1.081415303
0.9730492496
1.006426472
1.042238714
0.9443133199
0.9737348409
0.9391276896
0.9513199206
0.9107107597
0.9408940536
0.8538136408
0.8817264849
0.9241018995
0.8105630018
0.8440260513
0.8144385856
0.8488164795
0.8005827484
0.8268143287
0.7456347007
0.7745153214
0.8240975693
0.6891192798
0.7293892961
0.6986611124
0.7087771727
0.6913967287
0.7172786397
0.278980521
0.5392120631
0.4959478883
0.5331122388
0.5668771208
0.3165379329
0.01590536468
0.01513816757
0.06558464658
0.03863489234
0.0427748653
0.03340368917
0.03611044545
1.166497523
1.166421792
1.169861292
1.151404214
1.161495396
1.161310063
1.081524003
1.128171132
1.096741501
1.132840281
1.101645094
1.124807599
1.06561072
1.081864642
1.116909002
0.9710676584
1.022820249
1.001453538
1.02236361
1.035902984
1.054704258
0.8910217878
0.9786805044
0.9567766289
0.8833900418
0.9603949972
0.9190431781
0.4816765061
0.5523358032
0.7541224342
0.1162281486
0.3058053114
0.245635923
0.4425611561
0.3762882293
0.1475950448
0.0253321318
0.02140454593
0.03070224044
0.07120636655
0.08698533948
0.04922927088
0.05813916041
1.166806143
1.166728952
1.170723188
1.152319127
1.160721628
1.160606037
1.161100033
1.160888629
1.152957805
1.122775712
1.125442942
1.140910969
1.073836066
1.104130035
1.099192484
1.113071164
1.108777273
1.081950301
0.9352200568
0.9611996921
1.029187364
0.6926753953
0.8552340367
0.8117232409
0.9281053877
0.8968035656
0.7579967974
0.2013790869
0.2542919671
0.4733401978
0.03877356448
0.1040452497
0.07722663588
0.1824846797
0.140878208
0.04603861416
0.06470214852
0.05067599877
0.03088752112
0.1446734778
0.1648118146
0.104897098
0.1243898728
1.166869366
1.166909433
1.171195441
1.150751024
1.160346242
1.160174131
1.160569016
1.1604811
1.151086972
1.114929726
1.116514479
1.136859284
1.038594023
1.085860341
1.082773491
1.094459278
1.089765766
1.047047426
0.8187668295
0.8457498297
0.9643897505
0.4420086713
0.6655649769
0.6262428029
0.7614971124
0.7130171964
0.4961610587
0.09296426563
0.1079935927
0.2425939746
0.03741824569
0.04605672753
0.04424818288
0.06081037906
0.05085207205
0.0365255781
0.1385869181
0.1211246307
0.04887610432
0.2177374952
0.2312694815
0.1840592391
0.201987675
1.166427117
1.166577343
1.171195409
1.148855219
1.159449561
1.159140751
1.159967166
1.15972583
1.1494071
1.107460277
1.109495827
1.133163718
1.013954883
1.07272291
1.069045201
1.079596453
1.076242047
1.020171367
0.7521299863
0.7678487267
0.9188568661
0.3507436484
0.5612498199
0.5459252453
0.5961887851
0.577840945
0.3607339378
0.07626943417
0.07745455555
0.1843707599
0.04235550563
0.04340831121
0.04358544075
0.04337536374
0.04326595409
0.04160491822
0.1673748267
0.1647256491
0.07216395513
0.2504089577
0.2517517741
0.2410769594
0.2482959178
1.165591905
1.165834124
1.170836511
1.146217666
1.158028134
1.157597655
1.158800452
1.158429106
1.14694419
1.098244369
1.100707233
1.128324304
0.9870709274
1.057087015
1.052791206
1.065212494
1.061225585
0.9941203943
0.6926428867
0.7067050997
0.8743885341
0.3214932694
0.5076318696
0.4972983955
0.5318845757
0.519137115
0.3275625487
0.07316988067
0.07375393712
0.172308022
0.04540353861
0.04425590695
0.04451452237
0.04378872667
0.04401468275
0.0446089585
0.176074259
0.1741302512
0.08283962846
0.2553875825
0.2564436306
0.2530272578
0.2542297726
1.164417947
1.164741565
1.170189698
1.142868068
1.156131258
1.155585187
1.157137828
1.156648627
1.143771374
1.087302251
1.090213618
1.122376782
0.9559197835
1.038826024
1.033752349
1.048326793
1.04367425
0.9641893242
0.644805086
0.6554140501
0.8266441031
0.3029973709
0.472144077
0.4653365679
0.4880154534
0.4796710423
0.3068977768
0.07184801084
0.07203986831
0.1651591564
0.04876542921
0.04539794386
0.0457315297
0.04478923885
0.04508484514
0.04790178758
0.1825954422
0.181133433
0.09256635494
0.2590689063
0.2597892558
0.2574040408
0.2582769675
1.162925052
1.163328967
1.16930071
1.13878836
1.153767357
1.153097663
1.155009777
1.154404094
1.139883242
1.074079703
1.077661364
1.115237148
0.9203490246
1.016932562
1.010781382
1.028423295
1.022817324
0.9294689749
0.610289253
0.6178620337
0.7825153986
0.2909841927
0.4483180776
0.4435982022
0.4591372603
0.4534855734
0.2935254985
0.07183052419
0.07173200415
0.1612660793
0.05232159022
0.04682055979
0.04720840116
0.04607977462
0.046445379
0.05142412663
0.1875633537
0.1864443249
0.1010833638
0.2615812735
0.2620663535
0.260444736
0.2610418868
1.161073766
1.161575828
1.168181233
1.133758509
1.150855581
1.15001943
1.152392291
1.15164511
1.135121774
1.057624091
1.062050712
1.106378775
0.884970921
0.9910901588
0.9843086888
1.004391423
0.9978050896
0.8934730237
0.5854613842
0.590954498
0.747036633
0.2833788816
0.4317508139
0.4284626102
0.4392838601
0.4353448501
0.2849687885
0.07281602245
0.0724830746
0.1597265606
0.05594239544
0.04842864387
0.04886086263
0.04760308555
0.04801207427
0.05503900206
0.1913081422
0.1904724851
0.108305054
0.2632167717
0.263505948
0.2624993222
0.2628823661
1.158735569
1.159375662
1.166789193
1.127346254
1.147166854
1.146086792
1.149128835
1.148179202
1.129108229
1.038476397
1.043412074
1.095151553
0.8543808934
0.964173763
0.9577017036
0.9775234291
0.970793595
0.8614855815
0.5672909545
0.571329252
0.7198929077
0.2790603446
0.4203024882
0.4180375786
0.4254799276
0.4227409361
0.2798717484
0.07467969569
0.0741330838
0.1600358966
0.05952001426
0.05021717038
0.05069671481
0.04929997236
0.04975534195
0.05863806976
0.1940639381
0.1934606636
0.1142966413
0.2641240279
0.2642513265
0.263752031
0.2639585539
1.155726003
1.156551981
1.165032204
1.119201251
1.142405577
1.141009161
1.144934288
1.143705588
1.121397642
1.018664212
1.023572566
1.081750804
0.8294434821
0.9394047215
0.933728858
0.9514041301
0.9453006206
0.8351839206
0.5540031542
0.5569476611
0.6991313461
0.2773305584
0.4126803456
0.4112741001
0.4161101007
0.4143082099
0.2775522437
0.07734908971
0.07660952423
0.1618936504
0.06297212101
0.05219522551
0.05272440546
0.05118217373
0.05168641071
0.06212820392
0.1959007794
0.1955222196
0.1191813972
0.2644051307
0.2643836948
0.2643405375
0.2643916676
1.15190611
1.152940685
1.162800842
1.109530361
1.136429092
1.134756949
1.139555973
1.138035126
1.112060788
0.99986485
1.004415198
1.067243465
0.8093230718
0.9179939309
0.9131659561
0.9282708507
0.9230261841
0.8139570275
0.5443961866
0.5464889527
0.6831224111
0.2776221823
0.4080491172
0.4072770378
0.4100407248
0.4089661885
0.2773821129
0.08075440477
0.0798320605