/*--------------------------------*- C++ -*----------------------------------*\
| =========                 |                                                 |
| \\      /  F ield         | OpenFOAM: The Open Source CFD Toolbox           |
|  \\    /   O peration     | Version:  v2012                                 |
|   \\  /    A nd           | Website:  www.openfoam.com                      |
|    \\/     M anipulation  |                                                 |
\*---------------------------------------------------------------------------*/
FoamFile
{
    version     2.0;
    format      ascii;
    class       volScalarField;
    location    "1";
    object      omega;
}
// * * * * * * * * * * * * * * * * * * * * * * * * * * * * * * * * * * * * * //

dimensions      [0 0 -1 0 0 0 0];


internalField   nonuniform List<scalar> 
3259
(
30.45745053
30.48121994
30.51753643
30.58051364
30.68401693
30.86973253
31.23000902
31.84130088
33.05990254
35.55517385
43.12906557
102.4139342
30.36043427
30.38656241
30.42777257
30.49845774
30.61605417
30.83058053
31.23426949
31.90414774
33.22410482
35.95376145
44.97096116
148.6106644
30.26828782
30.29676548
30.34227271
30.41928166
30.54477093
30.77839228
31.21600514
31.95905134
33.41587617
36.40062409
46.87229933
436.9761843
30.17612382
30.20674435
30.2560502
30.33925186
30.47291425
30.72145509
31.18856264
32.0203574
33.70562222
37.22870039
51.71713033
757.9871297
30.08640856
30.11918371
30.17151871
30.25897524
30.39850759
30.65812524
31.14778103
32.05422345
34.07081118
38.82941782
67.83132825
953.6412574
29.99329709
30.02795664
30.08294325
30.17464227
30.32029365
30.58744576
31.09415437
32.03205106
34.35317391
41.37580675
123.7445022
761.0202138
29.90121772
29.93771647
29.99481305
30.08878893
30.23755369
30.50938129
31.02831232
31.98890736
34.42003697
43.7717866
192.652351
552.4948757
29.80342708
29.84133761
29.90040332
29.9972989
30.15022687
30.42453314
30.95189197
31.93042037
34.4674022
45.41417617
203.5264911
458.555882
29.70702569
29.74613403
29.80667179
29.90456921
30.0583668
30.33380408
30.86689933
31.86027888
34.51409928
47.38178382
205.9157792
401.1194481
29.60355829
29.64331176
29.70520623
29.80532894
29.96237593
30.23811911
30.77516655
31.78161153
34.56734823
49.555358
204.5476626
357.8255364
29.50342478
29.54356612
29.60618898
29.70624891
29.86249573
30.1382775
30.67820702
31.69724389
34.64210258
51.50716659
200.6589179
324.5857836
29.39495775
29.43501579
29.4983468
29.60013871
29.75941909
30.03502058
30.57739736
31.61034169
34.76555897
53.00956322
195.0593618
298.5879199
29.29295695
29.33278375
29.39616827
29.49686556
29.65357547
29.92914435
30.47419769
31.52482832
34.95305921
54.08427608
188.3216383
277.7327018
29.18049797
29.2197801
29.28341752
29.38570027
29.54593177
29.82146069
30.36999253
31.44487272
35.1873145
54.80847921
180.8856283
260.7225237
29.07888112
29.11759594
29.18085551
29.28120109
29.43680416
29.71272452
30.26596158
31.37396123
35.43474415
55.25275066
173.1370492
246.5290989
28.96298953
29.00093547
29.06420002
29.16637505
29.32719229
29.60355222
30.16305652
31.31400062
35.66878688
55.47612456
165.3791509
234.4266799
28.86405773
28.90131188
28.96399188
29.06356202
29.21698767
29.49444393
30.06207941
31.26507584
35.87606126
55.53028914
157.8863476
223.9578898
28.74442171
28.78082799
28.84337287
28.94522079
29.10727532
29.38580516
29.9636786
31.22579402
36.05206922
55.46080645
150.7670352
214.753301
28.6506685
28.68639129
28.7483267
28.84713368
28.99742824
29.27797712
29.86833517
31.19401078
36.19660984
55.29024382
144.0444377
206.5293954
28.52593851
28.56080545
28.62247764
28.72384238
28.88890283
29.17128158
29.77636641
31.16743476
36.31154766
55.04559161
137.7786844
199.1011118
28.44045011
28.47471973
28.53591056
28.63442654
28.78043475
29.06604077
29.68796183
31.14396134
36.39910456
54.74381098
131.9553944
192.3199242
28.30798041
28.34140346
28.40217252
28.50252471
28.67444259
28.96273394
29.60327734
31.12192923
36.46160708
54.39534323
126.5360037
186.0671345
28.23477279
28.26775014
28.32825236
28.42776864
28.56915278
28.86216748
29.52280423
31.10021709
36.50223805
54.01396466
121.5275659
180.2704307
28.06595598
28.09797449
28.15798336
28.25888614
28.46968479
28.76608149
29.44822992
31.07841609
36.52487578
53.61862386
116.9652021
174.8583167
101.367489
128.984312
42.89612079
85.59046186
44.72777778
105.9411842
87.12418297
110.6520119
1107.326229
723.2322064
149.1555018
712.1382672
1070.354946
8585.253656
1117.243626
112.0097646
1748.371457
7637.407933
1079.482268
1718.140052
4319.68342
782.9268626
216.9449628
230.5407456
200.7392318
211.8489243
779.6837572
564.0094799
187.0224347
196.9608701
183.9520216
555.0187137
745.5141955
758.6819445
236.4146769
247.9483303
1380.289956
2796.617912
1529.82747
2563.104374
1117.887802
6484.346333
2838.894372
5542.308756
1113.974803
3922.155427
1954.537595
46.42331505
112.290437
108.740208
164.1359615
4223.018252
7882.966455
1019.504751
400.578453
420.0297215
6467.26966
3278.244148
722.2612037
901.4307174
8777.375774
315.6372094
362.538354
427.3182096
444.9220415
1126.572269
1776.217449
1767.303406
8148.100055
1627.584017
1437.706068
16033.55111
1090.776651
1634.580303
372.7692448
393.9044343
925.9364325
750.8728397
352.3936392
367.4905963
729.4096588
813.9940943
1169.001566
457.3546504
502.1419008
6028.131408
6844.615523
1844.632809
7429.704601
5340.670188
2042.960889
1092.601807
6448.021785
3691.184148
7197.700999
4144.300183
1574.726577
334.2830542
347.8916154
745.5249624
631.3863297
315.8038825
329.794055
1669.406063
1646.906176
1047.074631
1751.398852
1084.980755
1704.161117
1690.763137
1718.210475
299.5338187
311.4128093
603.0867145
537.0073397
286.6334562
296.1972632
1075.215072
1075.093148
742.234011
761.226634
1083.227644
1087.551905
1458.383534
951.5454587
938.6064589
12607.89847
2292.744441
1850.713663
4783.050687
3926.122864
1773.524532
1751.88916
1103.078735
6248.691615
6821.691591
6516.442989
5098.299049
1172.812675
1819.20158
1762.699376
2873.443709
1667.312474
1681.029594
2117.77236
992.7689911
1601.807198
1539.261378
838.6668667
1179.997102
13015.38225
1128.392443
774.6041364
777.9060722
1771.081938
7774.466054
8037.108846
9387.483012
6034.092711
5636.454843
1720.022781
1708.287356
1085.887348
1682.096922
1712.34993
1713.437654
1695.64105
1699.012893
1128.583656
1140.291176
790.1591159
1773.687022
1677.663647
1730.949713
1721.749552
805.2630585
810.3306766
1171.964739
5862.12947
8812.806509
9172.662553
8650.293043
8657.919285
6492.199263
1793.638432
6442.701083
4589.875047
4981.258342
1100.83334
1743.43594
1727.695735
6410.841096
7071.868329
6815.342855
5555.038784
6059.097805
7501.748797
7120.036565
4536.699018
6735.325401
5788.114876
2155.027131
1733.368391
1161.690806
31.83437373
32.65916852
33.02868539
34.65586352
35.47925177
39.90865371
31.89322542
32.7855732
32.68077193
33.18778644
34.96372521
34.72382927
35.87112479
41.02618134
40.07358791
43.5317295
51.0903934
49.87538328
105.8113551
169.6086312
161.8227655
31.94481087
32.92144198
32.81468356
33.35943667
35.28496587
35.03064046
36.26947201
42.00663946
41.21896857
45.47628062
53.1434062
54.53289529
151.1062907
289.7585403
259.9620344
32.0062291
33.121928
32.9652196
33.62380056
35.83132622
35.39259105
36.97074067
44.06492777
42.28452606
50.02892889
179.7235021
122.2425313
644.4589279
32.05210872
33.36924652
33.18162672
33.97810898
36.78134461
36.02398125
38.33533229
49.91552532
45.01824454
61.51102075
431.4458892
216.7157539
971.0836492
32.04005433
33.55449871
33.42823585
34.30447089
38.16677754
37.09549983
40.6637879
67.22122793
52.72819148
103.8924706
750.774163
552.0063129
815.8985107
32.00135774
33.57906653
33.56882993
34.40713506
39.41994554
38.53935108
43.36710588
101.2719884
75.37470003
178.9645505
674.0629597
743.958049
596.1901341
31.94629425
33.57708861
33.57964118
34.4559057
40.16007709
39.59849035
44.97960459
115.5807566
108.0357669
202.1369175
592.4135493
650.2946216
475.7623783
31.8787309
33.56551321
33.57479645
34.50210196
41.00323073
40.3583751
46.85630154
121.4655922
117.3649558
205.7462064
532.2712601
576.2389501
413.9817825
31.80191655
33.55027306
33.5618103
34.55285956
42.04121352
41.24034314
49.01644596
124.618324
122.4745642
205.1721689
482.3681231
518.9598488
367.5721131
31.71870372
33.53773096
33.54650194
34.61998879
43.28602696
42.33794198
51.05834702
125.8520777
125.0818101
201.8143306
440.456901
471.2113349
332.1239664
31.63209546
33.53996254
33.53611602
34.72875248
44.52931094
43.60688982
52.67686068
125.6328558
125.9088493
196.5798271
404.9495023
431.0390004
304.5449843
31.54584029
33.57435131
33.54495444
34.9006113
45.57882692
44.81355097
53.85149732
124.3127729
125.3919079
190.0881349
374.6978142
396.947232
282.5449586
31.46412477
33.6495151
33.5892734
35.12618912
46.38805663
45.80300998
54.65605367
122.1584846
123.8393763
182.7819086
348.7324698
367.851294
264.6747397
31.39070568
33.75837786
33.67411957
35.3733311
46.98104716
46.5549482
55.16489678
119.4304447
121.5206704
175.0850994
326.2887614
342.8406217
249.8576634
31.32792947
33.884515
33.78891287
35.6124399
47.39386069
47.0994365
55.43783817
116.3336243
118.6806396
167.2988518
306.7028301
321.1757966
237.2791738
31.2763317
34.01268562
33.91680018
35.82708481
47.66350568
47.47310997
55.53172171
113.0797796
115.5265678
159.7216145
289.4328878
302.2259903
226.4337053
31.23483096
34.13285297
34.04369436
36.01104573
47.81980909
47.71173672
55.48904388
109.802691
112.2588055
152.5060071
274.0388979
285.4776273
216.936911
31.20138427
34.23958999
34.1608685
36.16332806
47.88525227
47.84371969
55.34058771
106.5576687
108.9859748
145.6760976
260.1670825
270.516095
208.4765994
31.17371624
34.33052593
34.26378916
36.28544974
47.87870873
47.88975672
55.11245599
103.4064032
105.7589781
139.2884519
247.5646993
257.0109462
200.8461371
31.14964394
34.40489951
34.35062102
36.37965518
47.81371603
47.86728248
54.82391338
100.3805948
102.6403609
133.3494848
236.0483298
244.7402408
193.8876397
31.12737858
34.46278753
34.42083044
36.44815718
47.69985696
47.78934464
54.48579204
97.47368216
99.64859666
127.8085093
225.4423254
233.5297827
187.4663292
31.10566971
34.50526232
34.47472504
36.49391008
47.54661052
47.6647654
54.10993433
94.69266228
96.78152058
122.6462736
215.6001613
223.2135166
181.4894076
31.08377269
34.53429215
34.51362378
36.52060667
47.36401107
47.50396917
53.70899428
92.05034383
94.06130771
117.8604019
206.4161779
213.6711446
175.8723948
31.05998309
34.55322752
34.53962603
36.53265369
47.14872344
47.32005746
53.2689459
89.41031995
91.53043343
113.1820171
197.1824363
204.8104819
170.1569839
159.2757788
152.3432503
98.3260026
251.5447357
232.857944
126.5571609
1005.214094
49.46860145
48.20273428
42.55944361
81.50698287
53.09550091
54.48091618
54.11869936
51.49882944
43.71391803
94.09918663
57.17088894
60.93488717
54.97954047
56.61830926
91.86515832
181.4396381
172.7039262
106.9767694
1101.666707
735.1249416
745.2185919
525.5713207
533.4811704
731.8358555
3095.647753
3753.692832
175.1333956
2800.415098
2231.519139
941.9690809
848.5557565
694.2203983
506.116419
517.0711871
283.9310025
530.2300353
97.42364425
150.1912182
12233.24643
1259.004075
2245.363038
756.8527588
761.9290795
1118.394407
115.9649784
195.5657589
185.6281181
5563.941553
5668.341532
9486.715906
586.8562106
601.7972509
813.1990481
220.2858328
291.3258876
286.5749358
334.9362459
311.4833432
226.3845114
204.1494608
265.7037824
260.4722764
277.6823279
272.5844579
208.424035
764.840922
568.660035
578.6183395
439.8685362
446.430041
570.9857251
190.2019292
243.765273
238.9652542
254.51624
249.1897645
193.6049426
178.1004141
226.1459584
234.4412416
230.2069231
180.9890574
549.7453621
428.1005207
433.5232472
239.2428818
358.1681373
341.8069945
397.1340935
367.2942108
248.8742424
1616.305825
2262.13261
2183.137794
3597.641158
3298.449314
2398.890556
3063.484335
4324.647326
3911.224305
3512.398486
2590.0404
55.06980055
53.89017474
45.83426422
119.9344383
70.45197399
72.66313484
61.62639945
62.24963696
117.1432131
317.0825187
266.0791948
156.5383178
4589.143213
996.2476303
1234.997171
385.7388229
329.2836567
6701.602815
686.5557455
714.6220199
1074.223609
407.1379425
522.0490348
508.680959
542.5911824
534.6414358
414.386293
4821.97706
1063.968131
1488.847354
1347.879072
1487.45183
3741.759479
1062.744263
1059.620007
716.1584499
3451.553863
4960.307269
13162.97957
332.0571889
592.4657309
541.2134431
673.5252675
611.9578866
348.2969187
432.2698072
558.2371626
552.7300896
573.8934295
569.3091513
440.6857955
1450.223127
1809.025276
3376.29908
3053.642511
4014.248497
4521.748314
1982.734147
14942.80182
13344.45343
379.2197199
468.0955356
459.3076306
492.9146798
479.9540342
385.7997031
838.1741764
621.2292749
649.5578234
553.9367529
562.2437995
760.5453613
357.4729141
438.74521
432.3974118
451.8837288
444.943023
362.148379
734.0215221
1068.780019
1068.072671
461.1887734
596.7847851
592.1045695
665.6271633
671.2033989
504.4910234
3902.034449
4137.935949
5780.547398
2162.07958
3052.160264
2822.35987
5279.98351
4748.700902
3404.543084
338.8621824
414.8945961
408.8641472
426.5777274
420.5705045
343.2039811
737.8460665
540.0605107
547.5732879
478.2765565
492.8738767
666.4667607
320.5224561
388.4875763
380.8991795
402.6617408
395.8648774
325.2005131
303.3289078
361.6346502
356.4650912
373.8092884
367.2771525
307.0890133
585.4455573
454.8267023
465.5356849
417.2500025
422.3776854
542.4255054
289.701774
342.0434684
337.2992922
351.5611202
346.8044928
292.7539418
2624.966143
2436.720207
1703.739435
4532.042786
3400.500961
3528.546237
3016.855059
3118.370194
4244.373386
3177.461876
1093.824076
2199.374033
1553.474191
2339.856717
2236.670254
1150.067499
13406.36731
5073.671779
5212.07784
9919.447448
11950.79649
8360.879335
6661.838385
9026.018676
8570.558552
8595.077884
9774.145806
6665.473459
30.72344105
30.80001436
30.90466578
31.04523989
31.24131347
31.63135263
30.65049802
30.7378832
30.75920224
30.85603189
31.01684638
31.01785767
31.23994184
31.67102952
31.63477804
31.85048033
32.09389529
32.08094357
33.08729702
33.54480603
33.51100985
35.63013612
36.73093193
36.62474633
103.5420537
117.5048542
116.0888551
30.5792472
30.67605804
30.70414462
30.80532879
30.98178138
30.9999047
31.22579506
31.70028733
31.67659598
31.91740996
32.1835883
32.16537965
33.26388993
33.76069871
33.71144269
36.04818536
37.28314028
37.15917522
30.50817834
30.61252397
30.64173873
30.75100728
30.94016773
30.961926
31.20442158
31.73046023
31.70716897
31.97534876
32.27287268
32.2480452
33.47867824
34.03077612
33.95074273
36.56389747
37.94130151
37.72321051
47.72621529
57.36399232
55.85459224
504.650551
1939.172708
2144.5865
30.43535888
30.54524031
30.5767779
30.6909875
30.88989959
30.91619155
31.16973415
31.73892598
31.73529412
32.03413875
32.37712276
32.35154793
33.79307985
34.44862362
34.32942116
37.5381744
39.32825507
38.85385814
54.006552
70.00385878
64.99946887
837.9121374
1349.761677
1485.768722
30.35924492
30.47282829
30.50739869
30.62399658
30.83009893
30.86121635
31.12256633
31.71103914
31.73325377
32.05185191
32.44743265
32.43803458
34.15871079
34.99153611
34.85282943
39.37437002
42.29659997
41.37653248
76.4688618
129.5363656
106.5297629
918.9764035
838.8957301
967.7312894
30.27879385
30.39465766
30.43250772
30.54952693
30.76080537
30.7966033
31.06266802
31.6645874
31.7004629
32.02301304
32.43407958
32.44037516
34.37838986
35.42874806
35.35113513
42.0992382
47.69557062
46.14623027
142.598058
277.2942475
240.9482519
702.5440952
432.9939301
509.4625205
30.19379468
30.31077619
30.35180486
30.46792526
30.68290796
30.72285862
30.99129654
31.60289579
31.6500661
31.97560173
32.39691005
32.40783019
34.43231465
35.58160822
35.54529189
44.16164215
52.66705213
51.79178952
198.2578727
391.9552583
382.0631856
515.8883406
284.0001508
302.1814674
30.10413815
30.22160516
30.26554344
30.37997598
30.59765862
30.64112583
30.91034229
31.52923801
31.58521687
31.91384922
32.34454091
32.35880872
34.47882777
35.73299918
35.69396132
45.87049771
56.41891852
55.4560107
204.5413194
385.9701724
388.3998731
442.6140348
257.7890759
263.2898955
30.0102469
30.12769707
30.1742208
30.28662685
30.50626941
30.55266514
30.82176983
31.44656798
31.5091376
31.84128179
32.28137342
32.29798167
34.52642955
35.90098454
35.85686476
47.9217383
60.10464541
59.23636619
205.8408092
372.7258017
376.4839423
389.1515738
239.3799056
243.5253504
29.91221954
30.02960925
30.07840592
30.18874538
30.40976316
30.45860248
30.72725314
31.35741212
31.42468005
31.76092433
32.211046
32.22912404
34.58305132
36.10250171
36.04704094
50.07870721
63.01404627
62.3743979
203.7655711
355.7602517
360.2244732
348.7072814
225.0701356
228.3562222
29.81078469
29.9278856
29.97862387
30.08708057
30.30905845
30.35987751
30.62819126
31.26413112
31.33429657
31.67559848
32.13717251
32.15574097
34.66730919
36.37879796
36.3003419
51.92624979
65.04841308
64.61248673
199.3875184
337.1835674
341.9070029
317.5092779
213.478949
216.1644137
29.70615373
29.82316949
29.87547951
29.98239519
30.20516102
30.25744429
30.52600262
31.16936727
31.24039954
31.58865266
32.06467889
32.08234077
34.80652252
36.75489478
36.65270788
53.31529988
66.38764181
66.10789356
193.4619215
318.1353628
322.9103019
292.9557515
203.8682036
206.1192827
29.59950247
29.7161744
29.76963989
29.87550239
30.09912563
30.15235025
30.42213853
31.07594583
31.14572079
31.50414655
31.99993466
32.01503835
35.00845608
37.19035634
37.07977068
54.29479407
67.18286546
67.02902036
186.5044719
299.1555268
303.874336
273.1653716
195.7644661
197.6599293
29.49086734
29.60762654
29.66187668
29.76719621
29.99192396
30.04561891
30.31788781
30.986469
31.05306413
31.42617496
31.94893914
31.96019944
35.24915731
37.61917744
37.51543215
54.94335086
67.55004209
67.49329836
178.9628818
280.7265234
285.271034
256.9456087
188.8937082
190.5182814
29.38172055
29.49815555
29.55284129
29.65815711
29.88436347
29.93815341
30.21430748
30.90299025
30.96492461
31.35789576
31.91476287
31.92171484
35.49518851
37.9996302
37.91018067
55.32685907
67.57713982
67.59431101
171.1811372
263.1194337
267.4424905
243.3262415
182.8839727
184.3215145
29.2714302
29.38828843
29.44319043
29.54894146
29.77708916
29.8306726
30.1122677
30.82679398
30.88317867
31.30075852
31.89668414
31.89985373
35.72334958
38.31765474
38.2440874
55.50388285
67.34908064
67.42561042
163.468958
246.558831
250.6035355
231.6657764
177.5004526
178.7975263
29.16188645
29.27842905
29.33330246
29.43997849
29.670624
29.72376543
30.01249259
30.75825794
30.8088955
31.25441193
31.89126345
31.89166218
35.92300223
38.57418187
38.51552375
55.52385007
66.94071723
67.05651018
156.0653196
231.1884702
234.9385404
221.5395783
172.6081513
173.794582
29.0514271
29.16889309
29.22369483
29.33161345
29.56538317
29.61791463
29.91552678
30.69692879
30.74222717
31.21722276
31.89411051
31.89283542
36.09105548
38.774984
38.72964548
55.42612093
66.40382704
66.54836444
149.0392232
216.9627391
220.4448424
212.5927762
168.0923953
169.1962246
28.94285599
29.05991037
29.11450287
29.22409765
29.46170061
29.51353527
29.82174014
30.64180233
30.68255516
31.18695561
31.90133433
31.89931409
36.22797608
38.92677381
38.89304266
55.23482183
65.77358564
65.93798042
142.4230155
203.8428358
207.057946
204.5686663
163.8862734
164.9212459
28.83290679
28.95160232
29.00626089
29.11759748
29.35977561
29.41099097
29.73127587
30.59160885
30.62878439
31.16133919
31.90965754
31.90761512
36.33586888
39.03621886
39.01251882
54.97482542
65.08340496
65.26058703
136.2655825
191.827668
194.7962245
197.2927385
159.9332452
160.9195244
28.72599738
28.84393519
28.89894562
29.0120854
29.25963787
29.31063646
29.64402593
30.54511145
30.57962213
31.13836072
31.91670562
31.91515949
36.41692743
39.10851157
39.09367062
54.66027321
64.35012595
64.53743649
130.5306294
180.8325183
183.5924439
190.6173133
156.1690761
157.1272811
28.61597781
28.73658562
28.79344856
28.907304
29.16100993
29.21292803
29.55952585
30.50128293
30.53387688
31.11649184
31.9209552
31.92020554
36.4736206
39.14820253
39.141025
54.30159158
63.58528539
63.78018294
125.1793844
170.7753677
173.3734493
184.4274338
152.5584283
153.5062128
28.50951749
28.62858832
28.69002282
28.80230892
29.06299199
29.11865534
29.4766205
30.45934103
30.49059115
31.09474458
31.92169201
31.92179991
36.50937248
39.16083838
39.15999687
53.91189583
62.80479786
63.00674182
120.2067455
161.6157713
164.1112459
178.6431295
149.0817744
150.0479999
28.38557519
28.51053355
28.59114108
28.68839654
28.9578153
29.02944023
29.38920321
30.41618743
30.44929615
31.0724613
31.91902284
31.92010532
36.5281093
39.1521673
39.15658835
53.5000473
62.01741963
62.24387148
115.5985123
153.3067957
155.8083725
173.1649071
145.6908495
146.7344006
114.6996265
113.3355759
100.300375
160.94803
154.4592502
131.0425455
84.18141106
70.46827889
71.45824336
104.1962908
83.41953329
85.02651011
72.51181686
73.55310734
88.6277596
126.6692268
125.15862
109.4236106
95.77969169
106.6586557
113.2551554
129.8611672
128.5595095
2138.803993
86.5422583
88.09379532
111.4370952
2813.298571
3090.941269
7520.607804
5793.087893
4606.144225
5108.933302
1653.500498
1900.511569
2456.009143
1400.201785
32.07049815
32.04782855
31.81891515
32.62454461
32.3130094
32.34448853
33.47029877
33.42616006
32.99117845
34.59611409
33.95165428
34.00213479
36.53812931
36.43161599
35.40030157
39.69928179
37.79977528
37.94175971
32.14849296
32.10470792
31.85822864
32.71985222
32.38917166
32.4430409
32.35812073
32.37532085
32.70274238
33.66677103
33.56971491
33.10800135
34.81459973
34.12778586
34.24693257
34.05575226
34.09761025
34.77692841
37.0552714
36.79809577
35.67917113
40.45898719
38.30327171
38.66965275
38.05652051
38.20470877
40.30149338
120.4356979
118.9589261
104.6366244
167.0550223
138.8574734
140.7807267
135.0633841
136.9018662
164.2787912
32.22487308
32.20328525
31.92985447
32.88192999
32.51752023
32.54744238
32.46583492
32.4902625
32.84632718
33.87968012
33.81656948
33.3089831
35.18827236
34.43044301
34.50852014
34.30157138
34.36217726
35.10557495
37.5621686
37.40375547
36.14792249
41.67531208
39.12733582
39.34665824
38.80542771
38.9790519
41.48435869
198.3392423
202.1210932
267.5475359
32.32537276
32.29869514
31.99043343
33.06576438
32.65390608
32.69381502
32.5802824
32.61580076
33.01334336
34.21968858
34.12035375
33.54805453
35.66352938
34.81117056
34.93988288
34.59646209
34.69724133
35.51971614
38.49354738
38.17793385
36.74600354
43.27691577
40.18944028
40.66377764
39.55066611
39.86129512
42.77134286
61.5771271
58.95691175
48.61159819
153.2556344
81.37726523
88.04576771
74.64903189
77.69399824
136.442583
1621.955215
1775.028709
573.3888394
1105.210802
989.5521984
1361.366071
1219.747649
32.42240945
32.40146537
32.04474457
33.3065025
32.81822059
32.85717768
32.73551241
32.77639067
33.24338552
34.71340778
34.57703288
33.88385707
36.49951859
35.42626053
35.62141383
35.0853952
35.24579833
36.24189598
40.55587528
39.90115218
37.91654773
47.87261853
42.90144604
44.00172199
41.22066647
41.99114596
46.30289505
89.06153743
78.15600795
57.16813979
333.4100523
138.261378
168.7941929
97.96219839
114.0647017
272.5854448
1094.956638
1228.9127
945.4385472
629.1382809
530.009928
865.7005203
748.9021143
32.44540326
32.44835469
32.04653857
33.52403169
32.93665503
32.94356191
32.89129164
32.91870318
33.48077975
35.24689278
35.12491963
34.23805239
37.7941869
36.26269455
36.4762051
35.82905044
36.04442364
37.43319396
44.69392042
43.43047528
39.99380785
61.29080907
49.40011374
51.97658256
45.45554747
47.12864002
56.19601811
196.2606029
160.3470852
89.21658648
733.5872897
347.8735845
434.9265605
219.3539754
274.2136958
661.0752568
604.9300777
715.5422499
871.2557967
336.7813224
297.7748822
450.2618167
386.644691
32.41771437
32.42648482
32.01265043
33.57701249
32.93792608
32.93317016
32.94305067
32.94138677
33.57394932
35.50931156
35.47322031
34.39347056
39.2002475
36.97604748
37.06058551
36.67463497
36.84750584
38.88899712
50.72478801
49.24977614
42.77968229
93.32706864
62.70168915
66.31976101
55.24163099
58.7876954
83.95392181
356.7005049
321.8168076
162.6599586
699.9379527
602.7068158
608.1043348
509.6000873
572.2166053
723.7052977
329.0575156
371.6389137
650.1108092
225.8627251
211.9236663
267.5796342
243.9275625
32.37232647
32.38505377
31.96133014
33.57867501
32.91233292
32.90357572
32.92722899
32.92023396
33.57941808
35.65581002
35.61839576
34.44425458
39.96764032
37.31317071
37.40169339
37.14267392
37.22687736
39.78057961
54.50297978
53.57049679
44.56336829
113.549732
72.89807855
74.56621866
69.30319955
71.15679572
111.2294014
390.3136977
391.4649867
200.4169827
609.4148938
582.6967339
569.7436539
606.1036684
595.9054487
627.5639526
269.246237
275.7675196
494.3777304
192.3002225
189.8513077
202.3360675
195.3579135
32.31406872
32.32961576
31.89659469
33.56894322
32.8730728
32.86172429
32.89406434
32.88387794
33.57207845
35.81430419
35.77305878
34.49038019
40.77836412
37.68296734
37.78302814
37.49265731
37.58634308
40.56407501
58.32368413
57.37967295
46.35149402
120.2883249
78.95404092
80.17334275
76.14256338
77.6085076
118.9235341
379.9652436
383.1425494
205.2982271
546.2192807
533.1332184
521.7421743
557.1373984
544.9205748
560.8508937
247.9572433
252.7035303
427.7799167
183.095418
181.0431311
187.5052784
185.2616515
32.24689563
32.26433694
31.82182592
33.55412992
32.82521775
32.81240932
32.84992952
32.83774678
33.5580187
35.99547711
35.94700595
34.53930887
41.75875871
38.11133182
38.23371599
37.88716836
37.9962824
41.49194775
61.67657153
60.91973401
48.46941861
124.0396543
83.12682864
83.90399446
81.27073269
82.25187279
123.3268978
364.5614817
368.7430162
205.6220567
494.0365835
489.6386693
479.5625319
510.7202067
500.0175699
506.2190346
231.8231209
235.4893093
377.9843589
175.4739538
173.7829458
179.0952491
177.2415954
32.1742877
32.19275415
31.73995396
33.54005252
32.7731762
32.76009573
32.79941857
32.78631616
33.54306432
36.22844473
36.16269999
34.60047218
42.96446019
38.65701822
38.8185204
38.36481721
38.50577309
42.64705547
64.13026222
63.59841001
50.5813233
125.6908974
85.75057604
86.22288017
84.59634681
85.20943642
125.4359707
346.5832417
351.2109238
202.8581372
450.2858509
451.2701796
442.4822287
469.8136351
460.3729439
460.5184764
218.9847588
221.9497679
340.1462649
169.1028173
167.6599295
172.160947
170.6019762
32.10037132
32.11868566
31.65387253
33.537366
32.72272763
32.71132513
32.74721635
32.73474441
33.53628623
36.55541953
36.46390599
34.69610172
44.23183756
39.35337753
39.54197066
38.98948794
39.1684799
43.92350353
65.79368285
65.44084829
52.31605708
125.7995164
87.26922078
87.50851842
86.63124501
86.97877722
125.8814197
327.6750264
332.4397545
198.0295283
413.3007611
417.9095513
410.2406664
434.014913
425.8190384
421.9807481
208.4648775
210.9158716
310.8350474
163.6364637
162.386955
166.2700416
164.9297739
32.03092044
32.04750583
31.56714064
33.56201997
32.68297088
32.67594917
32.70080234
32.69130893
33.55227869
36.96959006
36.86089694
34.85164309
45.33902286
40.10776694
40.28978489
39.73201391
39.92132641
45.08390052
66.84658007
66.63207754
53.59556911
124.7294629
87.9312395
87.9935243
87.69510661
87.8402599
125.0926458
308.6101958
313.3725579
191.8081074
381.8386639
388.6779894
381.8931717
402.8354774
395.6385618
389.2340926
199.6392656
201.708809
287.6096711
158.8756364
157.7786292
161.1785417
160.0082363
31.97244653
31.98569328
31.48390173
33.62699345
32.66404689
32.66382011
32.67041521
32.66648873
33.60689068
37.40897466
37.3003536
35.06637422
46.20727807
40.79879753
40.95382392
40.46621624
40.63615754
46.01251615
67.41424368
67.31097357
54.48512318
122.7585215
87.91951932
87.827382
87.99206159
87.97090677
123.3209753
289.849149
294.4863541
184.6607569
354.8824812
362.7154548
356.6512604
375.3267196
368.9160042
361.2290356
192.2000862
193.9473778
268.8158843
154.6866279
153.7170466
156.7158369
155.6853687
31.92971333
31.9387797
31.40811528
33.72883802
32.67139568
32.67717061
32.66472124
32.66707203
33.70066267
37.81683647
37.71973898
35.31133427
46.85106292
41.3719241
41.49552017
41.10107284
41.24050107
46.70930615
67.59961585
67.58608825
55.0619771
120.1547643
87.37642218
87.17364646
87.70472465
87.55431489
120.8535246
271.8081896
276.2481407
177.0329768
331.6317609
339.4907124
334.0331951
350.7893343
345.0432988
337.1152202
185.7988994
187.3229437
253.3279085
150.9645337
150.0928638
152.775069
151.8577683
31.90388099
31.90882872
31.34255454
33.85226165
32.70223413
32.71271654
32.68431857
32.69272803
33.82032881
38.16657577
38.08508157
35.5545135
47.30542511
41.8218276
41.91643558
41.61158111
41.72032756
47.20754989
67.49009289
67.54138603
55.38843835
117.1295436
86.43767063
86.1566862
86.94786998
86.70223033
117.9139023
254.6961381
258.8836343
169.2387511
311.395317
318.5710777
313.6227966
328.7657097
323.5740489
316.1748748
180.123784
181.4872271
240.2489406
147.5954894
146.7981774
149.241896
148.4092517
31.89265029
31.89430088
31.28821174
33.98108067
32.74876704
32.7618282
32.72406825
32.73614416
33.94908252
38.4532784
38.38733451
35.77615996
47.6075282
42.16246343
42.23263363
42.00459556
42.08657239
47.54439172
67.16383585
67.26135728
55.52184578
113.8985511
85.23708563
84.90930308
85.86187897
85.55513247
114.7153495
238.7243759
242.6187773
161.5883513
293.6044532
299.6080912
295.0857585
308.864271
304.1391773
297.8082672
174.9999333
176.2381029
229.0125102
144.5004574
143.7626392
146.0175029
145.251012
31.89189777
31.89140993
31.24435271
34.10390572
32.80270252
32.81649851
32.77525153
32.78891601
34.0741706
38.68113792
38.62933291
35.96801992
47.78986187
42.41172081
42.46154507
42.29741751
42.35708755
47.75390052
66.68635453
66.81725999
55.5104793
110.6206743
83.88107833
83.5250101
84.57354383
84.23074949
111.4396873
223.9395588
227.5513509
154.2792679
277.7953788
282.3027728
278.1311742
290.765278
286.4279701
281.5250411
170.3088149
171.4519803
219.2181786
141.6247808
140.9322647
143.0390273
142.325318
31.89740472
31.89564787
31.20909916
34.21431894
32.8574366
32.87066116
32.83027365
32.84395958
34.18808041
38.85655921
38.81722636
36.12814925
47.87638547
42.5848568
42.61771292
42.5068955
42.54799555
47.86264045
66.09808229
66.25354794
55.38608978
107.3633068
82.42843698
82.05511556
83.16392563
82.7981652