/*--------------------------------*- C++ -*----------------------------------*\
| =========                 |                                                 |
| \\      /  F ield         | OpenFOAM: The Open Source CFD Toolbox           |
|  \\    /   O peration     | Version:  v2012                                 |
|   \\  /    A nd           | Website:  www.openfoam.com                      |
|    \\/     M anipulation  |                                                 |
\*---------------------------------------------------------------------------*/
FoamFile
{
    version     2.0;
    format      ascii;
    class       volScalarField;
    location    "1";
    object      p;
}
// * * * * * * * * * * * * * * * * * * * * * * * * * * * * * * * * * * * * * //

dimensions      [0 2 -2 0 0 0 0];


internalField   nonuniform List<scalar> 
3259
(
738.9905197
743.1408738
751.7344964
763.9438115
792.1111769
816.1635247
846.3699208
893.1243564
939.0992386
989.4986648
1047.711903
1147.77023
694.9248673
697.6701726
703.5430518
711.4701139
734.325365
749.285382
765.5300424
796.9436202
820.8295542
840.8452806
851.5550268
880.8587331
647.9502705
649.219129
652.0367266
655.4514651
673.2347772
678.5006726
681.932892
696.5349252
698.9671231
689.78558
651.3786698
540.1297062
599.3256503
599.2396153
599.1582497
598.3897903
611.3385728
608.3738682
601.2749742
600.2547063
583.5704199
552.1307721
489.3535677
377.1627173
550.2734456
549.0645408
546.5746662
542.3617071
550.7831396
541.3095649
526.0731394
513.2110271
480.5353509
433.4833551
362.5735587
260.0757544
501.8734779
499.7898339
495.4237951
488.5834842
493.1769961
479.0098471
458.2691634
438.7510301
396.2015593
339.9874122
267.198145
177.9716472
454.9705469
452.2484708
446.511933
437.8194161
439.4870594
422.3230525
398.3994827
375.6430524
331.86477
274.8755601
204.366343
128.7582008
410.1846751
407.0479593
400.4191164
390.5702456
390.1712985
371.4198202
346.0233504
322.4202894
280.1033383
227.8705247
166.1222885
101.4145783
367.9368177
364.5830779
357.4876645
347.0733767
345.3173451
326.0637486
300.5873124
277.4494975
237.9011327
191.0195394
137.6644419
82.27329013
328.4741025
325.0619809
317.8457889
307.3473219
304.7460669
285.8026745
261.2570619
239.2442364
203.0765881
161.4632632
115.1430999
67.97177766
291.8927221
288.5415383
281.4616264
271.2367396
268.2013927
250.1039868
227.1252614
206.6035172
173.9834247
137.2782468
97.04121493
56.66822253
258.1704409
254.9665339
248.2042936
238.4999819
235.3402033
218.4311973
197.2914318
178.5294866
149.3958833
117.1567533
82.21471076
47.52226574
227.2020471
224.2052547
217.8838444
208.8609448
205.803835
190.2799445
171.1084861
154.2058841
128.3932974
100.1800135
69.86726724
39.9928103
198.8270401
196.075858
190.2735548
182.028574
179.2309647
165.1849368
148.0081355
132.9732603
110.2692194
85.67735374
59.4342291
33.70412598
172.8460501
170.362429
165.1233527
157.7058741
155.2788642
142.7348287
127.516648
114.3021529
94.47791375
73.1488015
50.50638215
28.38562705
149.0347747
146.8287092
142.172355
135.5994427
133.6195754
122.5585102
109.2271649
97.75789366
80.58822221
62.20919584
42.77696161
23.83604182
127.1572365
125.2307393
121.1600844
115.427362
113.9492861
104.3271408
92.7935176
82.98115222
68.25647716
52.55847799
36.01073057
19.90142293
106.9737884
105.3237204
101.831267
96.9213768
95.98490543
87.7460206
77.92690947
69.66364959
57.20105506
43.95604833
30.0210582
16.46030915
88.24175748
86.86273999
83.93556257
79.82158835
79.4698292
72.54695849
64.3975781
57.54860593
47.19001166
36.20470135
24.65713847
13.41574344
70.74019016
69.62405854
67.24673982
63.90085728
64.15008188
58.48260917
51.91998351
46.43222548
38.02992408
29.1396876
19.79442845
10.68800964
54.1819369
53.32750924
51.49048024
48.87721564
49.83531704
45.32841821
40.19859932
36.12798461
29.54771355
22.61736988
15.32562493
8.20915232
38.55385855
37.93919611
36.62464607
34.76423551
36.13082714
32.87972281
29.11502889
26.4288072
21.58232048
16.50845035
11.15679315
5.92133376
22.88087433
22.5659672
21.7865883
20.66639183
23.06584561
20.9496309
18.49845909
17.16973568
13.98696138
10.69201616
7.201696138
3.773930016
10.2498896
10.01177666
9.639909822
9.095872946
10.2927153
9.262433695
8.093455676
8.198185069
6.627041771
5.047316077
3.376159312
1.726419662
1161.957137
911.967736
1093.123141
1156.684057
901.5038042
912.6172053
1130.26034
1046.401635
1105.759672
1222.262628
609.2318201
1229.16477
1235.029118
1050.393712
1097.001139
1029.236639
1103.351955
958.2764001
1228.122941
1111.2239
-296.3179421
1164.860213
1126.244067
1076.926709
1184.251175
1141.410514
1171.927112
1270.437027
1236.336613
1197.625018
1248.866773
1277.861917
1282.654252
1274.729789
1058.649011
1001.329705
968.8877065
990.5534632
494.337705
194.775882
1178.532711
-284.2893984
151.1058981
-197.9071378
1172.12752
-232.0997998
118.0281057
698.3389519
644.6394496
875.5811049
757.0179402
771.0563215
993.9691071
1131.915124
1115.35397
1088.243614
902.6220603
674.4692278
1310.9921
1244.908934
829.9541346
983.9966791
938.5870451
1078.531216
1045.41889
1061.134101
161.4115918
1069.819862
452.6028989
722.0592185
531.7108527
616.2552215
1202.556257
1137.885883
1147.656911
1123.96756
1137.021427
1190.710499
1176.816824
1155.603795
1305.232505
1253.156626
1044.258281
1033.032974
996.633273
643.0457748
550.8418185
1054.915809
276.2043665
430.6416899
327.9456605
1193.647349
-439.8945496
-1.625431605
221.0423079
-46.83682734
1136.452213
1205.016033
1184.444721
1198.781906
1243.373733
1230.421003
1212.054939
1240.445487
1248.126723
1240.970718
1094.102127
1221.241585
1228.469037
1234.058801
1116.527589
1256.269591
1237.179446
1249.653033
1298.854722
1281.754771
1263.243057
1287.174109
1296.600313
1290.822542
1267.287802
1271.331115
1278.674658
985.6063758
995.0318097
976.1281575
700.3706455
994.5318784
370.0508903
498.0619597
619.7741021
1185.087565
1187.971416
1183.376259
-349.3064421
-190.3148628
-167.5340132
-183.2502125
1163.600471
1170.826178
1179.485619
-81.78792229
1326.712964
1324.034496
1248.564402
1243.301815
1250.330584
1243.2619
983.0732218
1014.805082
1125.123246
1074.996889
1067.50206
1053.964638
1083.581273
396.9435017
382.1781265
1098.106548
975.694314
746.325269
1204.370056
1218.396663
1212.745094
1127.033272
1302.067241
1290.65388
1320.284248
1313.045786
1258.344147
1264.107476
1259.890379
1267.266977
1261.783748
1281.40325
1274.116671
1038.042703
1020.524954
1025.464109
600.1767889
614.4467966
673.9616487
555.3203322
562.8457306
546.5904058
1038.573821
372.4543484
320.6846964
253.5967204
1187.686869
1189.761201
1193.848486
-417.270195
90.21243615
31.05911639
203.7551124
191.6455607
204.0358216
12.154976
-122.5407456
-103.0909209
-0.2529006914
1149.029311
1163.010726
1155.392161
916.0657615
954.0922094
967.5273253
1010.073776
1025.15741
1074.794597
820.7348367
842.5768014
927.2382995
849.8866762
870.9809826
976.3610823
877.5874038
896.2795062
1032.409499
1000.687317
1007.708393
1084.295377
1106.97741
1131.972027
1174.687182
721.3890891
727.6551742
815.0053213
729.0171679
728.779234
836.5051621
726.5462538
709.2947327
850.3589297
799.2795066
795.3797099
868.2611894
839.141358
830.2401557
906.0408168
623.604894
615.3661885
699.0787239
611.4635044
593.667038
693.9343077
584.86647
545.2490782
665.3575389
526.2949291
448.0096078
582.1688909
411.2114218
533.8127174
513.1402886
588.6521938
504.9573759
474.2261316
562.1417881
461.2587488
411.5612282
509.1056427
391.2226419
314.6075011
409.4460647
286.684188
456.239818
426.6205047
489.6664666
415.1605872
375.7435053
447.1683575
360.6392485
308.7589567
382.8540921
288.0536668
220.8088605
288.0021588
194.9169129
390.4153338
358.8434727
408.1915687
346.6019294
304.4390193
355.3752055
288.7557509
237.4293371
287.9820203
217.0360707
159.8698596
202.461511
138.6210545
334.8747935
303.7674034
344.0170445
292.0508388
252.8556945
290.3120972
238.5592574
191.8610978
224.3691945
174.4927852
124.5913187
149.3883329
106.9695975
287.9868551
258.5447616
291.6285492
247.6841565
212.1476614
241.7752475
199.4556782
158.74708
182.663692
144.1892005
101.3558729
118.1122923
86.44994644
248.2156001
221.0540408
248.5201649
211.1891949
179.4505929
203.3174273
168.286304
132.8158891
151.6827441
120.3065057
83.81957381
96.54070265
71.22294148
214.285003
189.6387823
212.6858736
180.7923368
152.6911759
172.2689921
142.9003506
111.9965177
127.1926721
101.2219
69.99489582
80.06477115
59.26575111
185.1543743
163.0384128
182.5795909
155.174781
130.4342439
146.7506423
121.8613709
94.95662299
107.4239572
85.66252169
58.82848473
66.98543013
49.63949544
159.9621587
140.290297
157.0226798
133.3495694
111.6601205
125.4472185
104.1694255
80.77830203
91.17301821
72.75571011
49.6408717
56.3671706
41.74630974
138.0120267
120.6498107
135.1140533
114.5623437
95.625062
107.4189496
89.10059527
68.80864183
77.59989423
61.88741539
41.96517344
47.59513222
35.17612443
118.7458775
103.5379768
116.1546531
98.23227801
81.77689181
91.97645866
76.11858835
58.57383186
66.10281784
52.61541121
35.46789242
40.24125014
29.6362427
101.7075746
88.49460475
99.59905523
83.90267711
69.69171614
78.60461931
64.81295703
49.71943391
56.24266981
44.61094627
29.9033639
33.99744021
24.91050798
86.52014133
75.14929978
85.01162739
71.20969434
59.0377389
66.90510163
54.86435121
41.97379105
47.68803571
37.62289872
25.08465755
28.63496185
20.83455021
72.86524235
63.19935223
72.04171265
59.85868007
49.5505917
56.56576729
46.01976207
35.12480015
40.18480862
31.45441391
20.86531459
23.97865897
17.2799656
60.47128324
52.39312337
60.39938316
49.60585356
41.01343633
47.3348833
38.07216816
28.99998111
33.53176537
25.94657839
17.12818018
19.88986589
14.1442754
49.12428727
42.52390018
49.84541943
40.24983943
33.24604282
39.00588187
30.84973945
23.4571026
27.56474979
20.96920922
13.77774355
16.25773029
11.34414113
38.63658742
33.40945513
40.1814025
31.61368597
26.0921922
31.40579841
24.20428009
18.37533014
22.1478318
16.41114481
10.73234635
12.99071892
8.808828182
28.80314237
24.87740203
31.22841606
23.53347812
19.41171013
24.38295186
18.00364496
13.64816494
17.16428582
12.17562895
7.922263743
10.01025482
6.478276315
19.4493433
16.7703922
22.81657699
15.85856725
13.07449715
17.80013439
12.12505319
9.177760716
12.51023031
8.17485489
5.286065333
7.249112806
4.300104453
10.42259933
8.947816716
14.79330402
8.452677551
6.95694678
11.52939822
6.450418616
4.872034958
8.089512847
4.32735883
2.770940811
4.647596602
2.230947471
1.835811605
1.499569409
7.019999616
1.390308577
1.054212018
5.445458078
0.9462198485
0.7471203804
3.808243591
0.776658454
0.5919142057
2.150238119
0.302470649
1188.111548
1226.777522
1199.220106
928.5637365
978.3506811
960.3741023
632.0603037
1108.382221
1176.144589
1136.77525
1229.717128
1188.497174
1119.445478
897.3079172
980.7656904
951.1102309
1011.90025
987.6615808
900.5418965
1094.705587
1015.673275
1043.456781
1068.139434
1116.864734
1091.348597
1113.98044
1108.975412
1099.6377
1216.184397
1209.098697
1214.998273
473.4656375
678.8956669
716.3980928
625.4790455
440.0895914
613.7055643
591.7837431
1234.785825
1228.798373
1222.894217
1288.219795
1304.790299
1212.352684
1239.192408
984.4615213
1001.124829
955.7218867
1089.996179
1079.382418
1086.69334
980.9541901
996.1334832
1050.702791
935.5426141
921.0569097
1063.742371
1158.752532
1150.653753
1156.400194
1110.43439
1120.360777
1136.18775
1083.207445
1111.325727
1093.971033
1170.41379
1180.289902
1194.149201
1151.306745
1165.939522
1156.10735
1178.023648
1172.83051
1166.076993
1265.917147
1259.004527
1263.230898
1223.5825
1233.124001
1246.012265
1207.407562
1220.283388
1210.691866
1272.857769
1283.098304
1258.769354
1271.147673
1261.052683
1285.295036
1279.896964
1272.933072
1039.673167
1042.312964
1073.73869
1000.10248
1031.172569
1020.370775
448.4839605
493.9119892
532.2845747
226.4577386
278.8634867
240.9892552
101.9533043
140.8676229
183.3747634
-192.6128123
-30.11837613
684.1080637
738.7080352
747.7405558
722.2140237
728.23614
667.0784599
869.4395823
776.6771612
759.5833951
747.4956307
788.5959341
797.6238226
850.7071022
777.4750627
717.0590819
916.6661855
839.90533
753.111394
1126.188634
1118.144329
1123.841687
1106.327467
1112.100811
1120.515575
1093.718554
1103.136635
1097.419891
707.8821631
677.2339447
700.6958039
612.0655888
641.355367
709.9305363
1317.698811
1322.132927
1316.336832
960.2545222
977.6601
708.4485702
975.7373513
990.5211612
989.9823183
945.0178628
972.0194762
959.5281915
1068.194412
1073.328277
1083.877141
1049.092534
1061.789154
1057.176955
285.2898446
745.6447278
863.3018247
813.8608473
662.7307896
892.5254129
675.7389617
771.7968639
713.1387047
1140.251602
1145.265199
1153.190877
1128.794322
1137.159915
1131.774763
1147.551934
1142.326178
1133.884951
1186.538635
1179.472893
1183.91264
1170.034191
1174.71571
1181.894136
1160.617794
1167.729057
1162.433586
1298.532755
1305.517569
1312.507911
1020.424071
1020.430177
1035.086514
990.0508742
1004.083604
1007.662262
401.6279413
360.2713529
381.5365192
286.0708237
324.8436418
366.7629264
14.82358916
69.09594698
45.16179108
1198.612175
1203.632332
1210.552009
1189.206144
1196.5303
1191.192816
1207.206866
1201.755273
1194.111984
1239.638515
1234.034901
1238.779352
1224.617015
1229.206009
1235.239423
1217.151349
1223.321673
1217.958832
1250.125359
1254.534566
1261.241328
1241.493574
1247.934718
1243.193056
1256.18526
1252.246979
1245.816131
1292.94593
1286.608237
1292.37413
1276.066608
1281.103376
1287.323803
1267.966397
1274.630525
1269.285827
411.9742436
456.3443049
416.6982075
524.7956357
492.3710817
453.2718264
571.7318706
538.3530468
576.3509034
-142.0869077
984.846874
983.7236754
976.454081
1037.921458
1025.561138
1003.159153
1361.164754
1129.198348
1077.710621
1044.481647
1022.982414
1131.151391
948.7705464
1053.223765
1039.346295
767.3482148
796.7999623
732.691806
821.3421243
832.677573
847.8309942
865.1823649
885.2200937
904.1686579
764.8339575
772.5237954
803.3038158
782.8772115
793.9651924
830.3853178
805.4819041
813.718026
882.4681964
869.494147
879.2950566
904.2383926
910.0066455
920.5772698
951.2323762
953.1114557
964.3584065
1003.073711
1135.131479
1142.756643
1156.46487
704.2972378
708.7908222
741.4488639
714.1014446
719.3259528
757.5505158
723.820021
718.804739
790.817834
771.7289461
776.528993
802.9966242
790.1752604
794.1296005
826.4119715
802.47699
803.57387
844.5784912
642.0923842
642.7907521
676.0241881
643.1325177
642.6492738
680.6923358
640.9883725
625.5166471
695.2857942
671.8564574
671.7529661
697.6365256
669.3149515
667.1808023
698.2883829
653.8138283
646.0600788
683.8958462
607.0763554
586.696737
633.3770252
489.0149942
468.7812498
525.2330648
580.5315433
577.9896324
610.4082857
574.3184364
569.2302268
605.4371475
562.8680071
539.754579
603.4337857
577.4422906
573.0330785
596.847009
556.5171544
549.4307031
577.6058471
520.6692086
507.6831321
540.2033491
454.5633516
431.424707
466.3379526
345.56062
296.5894198
328.4052317
521.3237408
516.1789006
546.8880375
509.4657836
500.9469603
534.3136599
491.1644058
464.3423225
520.110039
493.4421836
485.3496879
505.8808787
457.3457062
446.4819303
470.5206913
407.3885265
391.746294
418.2508619
335.8278954
312.2795286
339.1549147
235.8258095
200.9503271
220.572838
465.6154808
458.6593188
487.0940493
449.920981
439.2399669
469.2413546
427.3842628
399.3594675
447.3030593
421.9447855
412.486029
429.4770742
378.6191285
365.4633512
383.4277259
321.1500484
304.797642
323.6806227
248.4226914
226.5222531
244.6723194
163.0609094
137.3097316
151.2606778
414.0940228
406.0280683
431.9632272
396.1341569
384.3198525
410.932223
371.2917695
343.9288608
384.8307534
361.4615664
351.6874733
365.8678682
317.8896914
305.067132
318.8609524
262.0136676
246.3340941
258.8239529
193.8652231
174.0198207
183.9434999
120.1829376
97.26896113
104.8209788
367.0118579
358.4117754
381.8299457
348.054381
335.9479038
359.3501857
322.4938357
296.7029779
331.6135526
310.4491749
300.9146118
312.7716562
268.750922
256.8410774
267.9399301
217.831106
203.8797069
213.4628032
158.4338163
142.3561586
149.1116701
95.97003705
78.22716195
82.67803788
324.3085804
315.6290466
336.6527326
305.3093453
293.472616
314.015227
280.2031395
256.3467121
286.2564525
267.2988659
258.3174359
268.2915964
228.5753786
217.7632488
226.8073127
183.0339448
170.7988321
178.3739704
131.5381136
118.0126921
123.573126
78.35722866
63.65701732
66.90428323
285.788081
277.3480666
296.1545329
267.4006215
256.1770409
274.2250571
243.6098213
221.7418976
247.4325174
230.5887181
222.3225141
230.7741382
195.3199983
185.6378884
193.1138988
154.9727986
144.2592595
150.3874513
110.2546149
98.70162596
103.1338241
64.90525967
52.51054076
55.04728363
251.1322279
243.1410237
259.9501611
233.781212
223.3323823
239.2344909
211.7131489
191.9091942
214.0868444
199.1783402
191.6817084
198.8974923
167.4546398
158.8617183
165.1241463
131.9082662
122.5362031
127.5861491
93.06364947
83.14101177
86.73782996
54.20431266
43.68036183
45.70998816
219.9863867
212.5708895
227.5996239
203.931743
194.358653
208.3952876
183.7817383
166.0158332
185.2875424
172.1130531
165.3882688
171.59978
143.8399462
136.2644155
141.5736265
112.6474744
104.4639654
108.6892139
78.92074377
70.37069236
73.34232594
45.50528072
36.53400494
38.18813439
191.9863022
185.2162787
198.6739117
177.3646578
168.7124729
181.1501401
159.2046602
143.3871602
160.2476808
148.61982
142.6411937
148.0319067
123.6161969
116.9739805
121.5258382
96.34442104
89.21722176
92.80025436
67.09779975
59.71880818
62.21183771
38.31639353
30.65370541
32.02269707
166.7774107
160.683374
172.7628519
153.6422956
145.9162457
156.983931
137.4635816
123.4770691
138.3267926
128.0741402
122.8023642
127.5181107
106.1212662
100.3273167
104.2709325
82.37688703
76.19085144
79.26594265
57.07461103
50.70852699
52.82791438
32.29240163
25.74764364
26.89539687
144.022206
138.6086723
149.4901367
132.3736804
125.554148
135.4537583
118.1197845
105.8343762
119.0053311
109.9733658
105.363171
109.5213618
90.84198624
85.81710278
89.26772486
70.27792172
64.93375706
67.60264921
48.4719162
42.99233272
44.81547614
27.18285199
21.60476582
22.57832168
123.4040078
118.6593554
128.5063327
113.2095683
107.2628343
116.1693907
100.7981617
90.08318202
101.8523983
93.90327018
89.90824382
93.60489022
77.37120121
73.04499098
76.09343404
59.68599074
55.09876632
57.43995934
41.0031388
36.30967056
37.89524358
22.79998237
18.06673503
18.9016573
104.6292657
100.5328746
109.4945616
95.83930775
90.72646591
98.79240695
85.17948194
75.90194576
86.50878707
79.51944255
76.09524116
79.41064219
65.38279164
61.69427807
64.4137349
50.3179235
46.4159591
48.49123601
34.4469256
30.45830143
31.85268967
18.99902721
15.01222172
15.73612226
87.42707722
83.95237874
92.16548876
79.98186453
75.66581385
83.02747224
71.01335772
63.01524001
72.66032556
66.52462855
63.63319707
66.6356494
54.60822585
51.50570755
53.9564265
41.94515942
38.66830506
40.5279933
28.62653022
25.2760776
26.51655178
15.66527351
12.345491
12.98033554
71.54236651
68.66121408
76.25426117
65.38023817
61.81041497
68.60277763
58.04433515
51.21417424
60.04215521
54.67912699
52.2852858
55.02836985
44.82722367
42.2663523
44.49756012
34.38001417
31.67780461
33.3630894
23.39891317
20.63327748
21.74967371
12.706954
9.989764845
10.55321912
56.75083048
54.42329986
61.51159884
51.79861508
48.92173341
55.25775935
45.9825099
40.30984984
48.45866016
43.78505908
41.85438931
44.3854041
35.85236312
33.79478173
35.8497783
27.46351027
25.29421519
26.84061065
18.64415191
16.42032199
17.43867181
10.04739444
7.881218179
8.388280939
42.75793986
40.99031935
47.70686535
39.02040821
36.81724852
42.77928275
34.58375398
30.06055672
37.73384854
33.65001443
32.15314505
34.5206191
27.51392484
25.9283913
27.84662293
21.05623901
19.38661685
20.82551501
14.25873772
12.54249916
13.48519934
7.621392977
5.965762255
6.429151711
29.44232575
28.23611448
34.61086797
26.86334255
25.32094356
31.004866
23.76537243
20.30858158
27.62031593
24.07631857
22.99434032
25.24147583
19.65426063
18.51746139
20.33519692
15.03153046
13.83631213
15.19659711
10.15119647
8.917116329
9.804007932
5.373160131
4.197164679
4.627837872
16.72876352
15.92412859
22.10103197
15.14564461
14.25552775
19.72784613
13.34628706
10.89909385
17.96466955
14.90251315
14.22087058
16.38577473
12.13006161
11.42411489
13.17478132
9.269867377
8.531229828
9.840549045
6.236711371
5.468510474
6.317919432
3.253965393
2.535734743
2.942866994
5.064979809
4.655021186
9.792341191
4.320951913
4.018892201
8.695253212
3.694570054
1.944722914
8.614637335
5.981692654
5.693580994
7.805229632
4.816805605
4.525665308
6.234011878
3.652383006
3.358586882
4.643406978
2.44954034
2.145447857
2.948335934
1.234502413
0.9527133842
1.343361004
1169.82009
1182.896181
1174.03126
914.085582
934.8370586
929.5099701
1182.016087
1168.356236
1143.4622
945.5915838
939.4009364
908.1614039
1117.586775
1090.686119
1102.632931
1052.405158
1068.497264
1060.982851
1236.072905
1244.071671
1014.08803
1019.154752
1035.955647
67.65078929
873.1121316
836.8708008
837.1216768
920.9392826
889.6324982
912.1168763
845.8869607
855.131798
901.0440253
206.5833758
581.6082677
556.8946081
582.887569
928.3446201
952.3455267
938.8023118
980.7225881
966.3068603
940.9846252
981.3189276
1010.881943
995.5739191
1042.981251
1026.667181
995.481697
1040.851218
1077.553632
1059.905515
1115.68174
1096.07068
1057.341388
827.9468031
853.4959393
845.0016784
870.9193691
862.1260054
835.2322974
915.6382909
889.3098277
899.56467
857.092884
888.7024058
879.8039186
906.4588573
897.5947395
864.1413558
963.6447918
931.2862565
942.1309304
883.910331
924.1632779
915.3119257
942.6598317
933.1924358
890.077457
1017.312527
976.0836894
988.5766062
1114.233464
1128.68385
1120.241179
1146.622847
1137.473972
1122.914224
1165.420535
1151.656027
1160.877071
723.6912932
749.9422069
746.428075
756.5407522
753.3508527
725.8216981
809.0252032
781.2565513
785.8473581
729.8078969
761.7090377
759.3697658
764.257574
763.3913617
729.7732313
831.6667148
797.586759
800.4169959
722.7704772
762.6757386
764.1061057
755.0506073
759.7301628
717.1271662
847.7360718
803.6284542
802.4887156
899.6271455
878.3255676
882.4593662
621.2926825
646.3043919
647.5077841
642.7390652
644.7650783
618.5936592
698.5294276
671.4378611
670.6766895
606.6972454
636.5933193
640.0836392
626.2169263
632.0522149
600.8478527
696.6799977
664.0513862
659.6924168
574.1150125
609.4225723
618.7908362
583.2922098
597.7269626
561.0408854
675.8871145
636.036908
623.3222608
503.7623345
543.759519
565.4499719
489.8580047
518.7548696
477.4943177
611.7327099
562.9590479
533.0775684
364.6660495
410.4306806
448.9001794
355.7125829
317.8416407
442.4726925
399.4216276
527.4302988
549.8694454
555.2832108
537.5363555
544.0053111
520.5840951
593.0349671
568.1689623
562.7115212
495.869286
522.2198569
530.3282689
502.4841036
513.0114559
485.6915544
570.5433595
541.252242
531.75369
446.589232
476.4650469
490.3835873
442.2632693
460.4798625
430.0345735
525.9881381
492.4694915
474.7864313
368.0107802
398.7618158
421.8682104
343.5160844
371.3879945
340.8510915
439.2541086
404.0758533
374.9268318
242.6432371
267.9136237
315.3279493
235.2303662
213.1097578
286.3647675
259.3388728
447.2526581
465.8423007
474.4824878
446.3359403
456.4204039
437.3521877
498.073577
476.6602234
467.3602581
402.9216051
423.9402662
435.5449364
397.8316565
411.4074465
389.8122381
459.4561349
434.6292594
421.6442755
344.461617
367.150312
383.105748
331.4994867
349.9644416
327.2358262
401.3661067
374.6678938
356.1799441
264.9631974
287.4972387
310.968645
241.1837441
263.5855859
242.4509408
312.6544808
286.9359201
263.5573451
166.5492705
183.0772947
214.127295
154.1498646
137.0971308
192.3541003
172.6714809
380.7106555
396.236605
405.8572761
374.4391741
385.7858837
370.1993035
419.307806
402.1404602
390.8612281
333.4470708
348.9159081
362.1552376
319.7816593
334.7513966
319.3785747
369.8400523
351.4949981
336.7276795
272.4909547
287.7623652
304.092733
252.3240067
270.7360761
255.626092
306.4764225
287.6580985
269.1685309
196.2105235
210.380088
231.6930591
172.0629507
191.0111346
177.7236392
223.3405095
206.1991334
186.2149208
114.0121647
124.8558222
149.9967114
97.14278714
87.72007998
121.8178041
108.4863773
325.1690031
338.1291545
347.9007664
316.5196261
327.6794739
314.8022576
355.3411721
341.1810573
329.9228822
279.6489871
292.0104563
304.632443
264.6151986
278.6608684
266.5727417
304.9997836
291.455649
277.0827576
223.7066471
234.6590565
249.9349193
201.9917442
218.7235045
208.1746121
242.1922472
230.0648797
212.8964709
156.464187
164.9729681
183.8797762
131.8623598
147.9447613
139.9527629
166.2489614
156.6194473
140.2371326
87.02104948
91.34956164
112.7362405
69.86273539
66.45548681
80.11435778
74.21640866
278.7005373
289.5646826
299.0011677
269.0504025
279.5858928
268.8836372
302.5150249
290.7867188
280.0674738
236.3120905
246.311366
257.9563356
221.4721204
234.1363098
224.4521104
255.1522312
244.3553974
231.3316603
186.388641
194.8768331
208.3785912
166.2490081
180.8624305
172.8483634
198.4234278
189.36277
174.1976262
129.5026675
135.8018131
151.1283035
106.5355288
121.0488137
115.3544989
133.1735605
127.0021184
112.1189881
70.35798529
74.09302228
90.97167454
56.65419328
53.77216416
63.14192965
59.80219958
239.5798852
248.7528532
257.583567
229.8000594
239.4933302
230.5204463
258.6514897
248.8622559
238.9466172
200.9439679
209.1518552
219.6806645
187.0000895
198.2427947
190.3489983
215.2643756
206.5377812
194.9451623
156.8364739
163.6308772
175.4671167
138.7535316
151.4116559
145.0275636
165.2886015
158.1540251
145.0308377
107.8188615
112.7728498
125.76427
87.80351347
100.27976
95.82303571
110.0077495
104.9978541
92.03575709
57.73937396
60.60408285
74.67839789
46.22328562
44.00351831
51.09939324
48.58690161
206.4007178
214.2019837
222.2942986
196.9977121
205.7700052
198.1794034
221.9220417
213.6782948
204.6736742
171.662487
178.4941814
187.8984942
158.911239
168.8181004
162.2827911
182.8296239
175.6601173
165.4301448
132.8782633
138.4297225
148.7921609
116.8032944
127.7712369
122.5792061
138.9746634
133.2296906
121.8620922
90.52063751
94.50332697
105.6207113
73.16875553
83.86033749
80.28601447
91.61170541
87.63000953
76.52028925
47.85209427
50.11571776
62.00759033
38.09232242
36.33645201
41.91659113
39.94963609
178.0456039
184.733549
192.0503722
169.2939068
177.147369
170.6673884
190.8893158
183.8839335
175.8032519
147.1006292
152.858411
161.1895304
135.6375536
144.3322044
138.8461944
156.0350908
150.0572317
141.0717614
113.1012703
117.712298
126.7738025
98.91777662
108.4249566
104.1303072
117.6352141
112.9223372
103.0694017
76.45444671
79.71693244
89.27480264
61.41242553
70.59853395
67.67563815
76.8926805
73.66753116
64.12833441
39.92635863
41.75479036
51.86410873
31.60666154
30.18868652
34.67471483
33.10025221
153.6147462
159.39551
165.943492
145.6601228
152.6328821
147.0510634
164.4297211
158.4221763
151.2338038
126.2514941
131.1608106
138.4949377
116.0716011
123.6821096
119.0182779
133.5843782
128.533734
120.6636459
96.52954587
100.4141917
108.32192
84.09390121
92.33450111
88.72872974
100.0247888
96.09650668
87.55558828
64.81339681
67.53048115
75.77075409
51.7805023
59.68734875
57.25739715
64.88863173
62.22860593
54.02033766
33.45616612
34.95838294
43.58194967
26.3386264
25.17569722
28.84104882
27.55911872
132.3922796
137.4298552
143.2391817
125.303072
131.4491318
126.5985673
141.666167
136.468644
130.121336
108.3546551
112.5866354
119.0089725
99.41017326
106.0520722
102.0409661
114.5317104
110.21268
103.3385912
82.45735575
85.77227167
92.65406771
71.62265811
78.75822729
75.68993014
85.26976442
81.94892664
74.5506168
55.0325303
57.32780884
64.44012815
43.76254261
50.56896548
48.5200681
54.931831
52.70432649
45.63748624
28.09350218
29.34524443
36.71233448
21.9979968
21.0322004
24.06675681
23.00854149
113.8107141
118.2344973
123.3466834
107.6058592
112.985374
108.7355027
121.9097684
117.3745165
111.8090376
92.83225183
96.51668028
102.1112642
85.05891837
90.83197009
87.34665644
98.17237319
94.43835258
88.45665504
70.36493762
73.22582705
79.19268736
60.99089665
67.15568535
64.51402912
72.73781991
69.89506825
63.49878871
46.70659971
48.66957237
54.80331129
36.99638297
42.84562562
41.09688558
46.55305492
44.66300699
38.5862872
23.59172218
24.64732359
30.93751519
18.37907127
17.56842138
20.1087694
19.22514564
97.41070825
101.3272393
105.7883307
92.08310244
96.75680045
93.00110384
104.6181995
100.6273164
95.78266162
79.23534618
82.47476877
87.31875707
72.56715805
77.55732793
74.49816464
83.97626294
80.71496459
75.53645749
59.85701519
62.35341888
67.50092278
51.81965586
57.12444754
54.82418905
61.96488075
59.50323686
53.99272059
39.53564132
41.23353222
46.50802691
31.21805858
36.2261994
34.71676852
39.41304571
37.79058392
32.58181761
19.76848997
20.66884789
26.02530468
15.33000469
14.64259029
16.79123985
16.04567604
82.81580595
86.31259731
90.1688938
78.3438913
82.36924082
79.02098646
89.35426944
85.81215401
81.62976082
67.2093685
70.08507796
74.24652322
61.58237618
65.86359494
63.15197565
71.53224135
68.65563435
64.20351086
50.62794624
52.8293115
57.23897819
43.81861559
48.35488986
46.33035962
52.59815368
50.44301595
45.72230827
33.29105563
34.77585517
39.28609999
26.22795735
30.4895548
29.17226033
33.2591876
31.85104742
27.4106665
16.48553771
17.2619029
21.80012784
12.7350183
12.14624059
13.98183444
13.34645831
69.71170974
72.86280311
76.15761344
66.07064811
69.49922139
66.48596694
75.76269246
72.59020873
69.01679718
56.46910678
59.04725505
62.58476204
51.82551863
55.4608252
53.03308354
60.51678403
57.95425824
54.16282933
42.43724344
44.39895585
48.13938967
36.76297751
40.60666331
38.80562706
44.36616311
42.45924436
38.44878388
27.79235225
29.10558798
32.92894922
21.87079459
25.46282297
24.30025505
27.89681097
26.66103153
22.90800261
13.63558486
14.31247431
18.12571941
10.50410911
9.994523446
11.5789108
11.03189744
57.8328926
60.69921293
63.46883577
54.99929227
57.87517496
55.13726592
63.54650145
60.6771915
57.66687381
46.77933509
49.11443797
52.07762379
43.06897808
46.11160563
43.91526683
50.66772974
48.36137855
45.17512934
35.08840586
36.85602033
39.98482105
30.4714812
33.68540263
32.06495934
37.05344722
35.34738187
31.98129332
22.89447618
24.06937175
27.26909133