/*--------------------------------*- C++ -*----------------------------------*\
| =========                 |                                                 |
| \\      /  F ield         | OpenFOAM: The Open Source CFD Toolbox           |
|  \\    /   O peration     | Version:  v2012                                 |
|   \\  /    A nd           | Website:  www.openfoam.com                      |
|    \\/     M anipulation  |                                                 |
\*---------------------------------------------------------------------------*/
FoamFile
{
    version     2.0;
    format      ascii;
    class       surfaceScalarField;
    location    "1";
    object      phi;
}
// * * * * * * * * * * * * * * * * * * * * * * * * * * * * * * * * * * * * * //

dimensions      [0 3 -1 0 0 0 0];
oriented        oriented;


internalField   nonuniform List<scalar> 
6430
(
-0.007518836094
0.9317779164
-0.01524207377
0.9312647732
-0.02312238249
0.9301157887
-0.008054547988
0.9283008715
-0.0234814975
-0.4587561277
0.4599595668
-0.009257987031
-0.456582906
0.01059766115
0.4580954934
-0.01211024854
-0.4477128839
0.01365677293
0.4464718711
-0.005925202924
-0.006419806877
-0.2003635768
0.004019866302
0.1993319756
-0.002886032085
-0.1882622635
0.00267118552
0.1884470703
-0.002722042444
-0.1989268839
0.004090986752
0.19843941
-0.003518428032
-0.217268083
0.006969125314
0.2184102813
-0.004048235848
-0.004063087787
-0.05276588632
0.002974643529
0.05284591388
-0.003054671082
-0.004002220157
0.9357801366
-0.008129996462
0.9353925495
-0.01251565632
0.9345014486
-0.008560775083
0.9330996363
-0.008753646028
-0.4632039171
0.4644798448
-0.009836702775
-0.4613961875
0.01126469909
0.4629432144
-0.01281172598
-0.4467767287
0.01450375219
0.4503280535
-0.008648151399
-0.009327363363
-0.1976193306
0.009491397128
0.1979113691
-0.009676936946
-0.1875236718
0.009435593021
0.1873987383
-0.009172016645
-0.2021354535
0.008214354317
0.2019160747
-0.007912186151
-0.2224002359
0.007589248091
0.2236109204
-0.004398577947
-0.004401354641
-0.05494196269
0.006686129114
0.1103194613
-0.05490196253
-0.003575036715
-0.003586628467
-0.004170114332
0.9399502509
-0.008461726108
0.9396841613
-0.01299906956
0.939038792
-0.008898348778
0.9380166263
-0.009017710766
-0.4658406317
0.4671892119
-0.01024692899
-0.46450419
0.01170876489
0.4660652066
-0.01326978151
-0.4559346307
0.01495358297
0.4621883707
-0.01061480193
-0.01056684067
-0.20123049
0.0150135668
0.2032301521
-0.01692421874
-0.1880934513
0.02094135489
0.1888631678
-0.02158118697
-0.1995290321
0.02103469213
0.1985638408
-0.01997513428
-0.2227840609
0.01412287181
0.2200626478
-0.0113819119
-0.1135424236
0.01159511558
0.2268595198
-0.01155166746
-0.1133605443
-0.004224550674
0.9441748016
-0.008557511768
0.9440171224
-0.01310548151
0.9435867618
-0.008982337389
0.9428987357
-0.009005253538
-0.4685304385
0.4698758155
-0.01032771435
-0.4676043886
0.01175992705
0.4691133943
-0.01326893276
-0.4666896431
0.01487726128
0.4684734495
-0.008389497406
-0.008271587862
-0.2120974956
0.01597030658
0.2159932233
-0.01981270574
-0.1936760565
0.02974759032
0.1962858055
-0.03225196636
-0.1971470075
0.03656876146
0.1975583022
-0.03688256069
-0.2135636687
0.03491156263
0.2123067879
-0.03360317671
-0.2216754978
0.02957311027
0.2189173009
-0.0268045772
-0.004179086344
0.948353888
-0.00844958147
0.9482876176
-0.01289694072
0.948034121
-0.008848665923
0.9476201222
-0.00876966128
-0.4711704469
0.4724592689
-0.0101374879
-0.4705745435
0.01149318584
0.4719837785
-0.01290242077
-0.4701118097
0.01438201226
0.4716644873
-0.008016043655
-0.007918646227
-0.230053886
0.008918040619
0.2343635893
-0.01322096667
-0.2073932345
0.0286488031
0.2121092231
-0.03330222195
-0.2023558996
0.04461899957
0.2051743874
-0.04736137501
-0.2119859433
0.05261723462
0.2130265853
-0.05360567354
-0.2117571505
0.0516828406
0.2106449962
-0.05055817353
-0.004053551252
0.9524074392
-0.008179515409
0.9524135817
-0.01243940617
0.9522940118
-0.008531813393
0.9520867005
-0.008374171066
-0.473682127
0.4748848567
-0.009734543124
-0.4733291622
0.01098572681
0.4746118339
-0.01226839859
-0.4731247523
0.01359362366
0.4744906634
-0.007543197038
-0.007416337641
-0.2363726266
0.008256972295
0.2367349643
-0.008619309986
-0.2283701328
0.01236210797
0.2341404367
-0.01812135042
-0.2167529064
0.03407573276
0.2213843894
-0.03867057828
-0.2187500555
0.04967157797
0.2212130672
-0.05210322811
-0.2126329077
0.05331046279
0.2145336162
-0.05520519471
-0.003867082354
0.9562745216
-0.0077871162
0.9563336156
-0.01179844959
0.9563053452
-0.008080306423
0.9562389628
-0.0078704055
-0.4760163336
0.4771192586
-0.009183231435
-0.4758242355
0.01031753925
0.4769708704
-0.01146417417
-0.4757649426
0.01263017554
0.4769478306
-0.006974881278
-0.006838182193
-0.2377270839
0.007583031314
0.2380288151
-0.007884762529
-0.2372153588
0.008784484616
0.2375109435
-0.009080069337
-0.2359018328
0.009942149576
0.2366360562
-0.01067571052
-0.2293509487
0.0206901166
0.232219731
-0.02355263355
-0.2206873115
0.0288063572
0.2224143051
-0.0305325166
-0.003638331718
0.9599128533
-0.007311664579
0.9600069485
-0.01103797523
0.9600316559
-0.007542477243
0.9600475994
-0.007304134572
-0.4781494524
0.4791488009
-0.008541825768
-0.4780473563
0.009557531219
0.479060364
-0.01057053888
-0.4780425423
0.01158508822
0.4790542509
-0.00635910322
-0.006237693638
-0.2388527381
0.006881760433
0.2391031786
-0.007132200927
-0.2383013224
0.007862355977
0.2385360942
-0.008097127755
-0.2373653492
0.008769604173
0.2375760348
-0.008980289778
-0.2341308778
0.009433300018
0.2341416227
-0.009444044964
-0.2249885916
0.00982460241
0.2253245086
-0.01016051947
-0.003384464501
0.9632973178
-0.00678856612
0.9634110501
-0.01021370405
0.9634567938
-0.006959822715
0.9635054019
-0.006711683825
-0.4800756076
0.4809748128
-0.007859027867
-0.4800075302
0.008761585634
0.4808964917
-0.00965054714
-0.4799883248
0.01052907184
0.4808501901
-0.005746324676
-0.00564461249
-0.2397867244
0.006195715501
0.2399947816
-0.006403772718
-0.2391666061
0.006999296527
0.2393548748
-0.007187565244
-0.2381277494
0.007717647119
0.2382886474
-0.00787854515
-0.2341533114
0.00819498337
0.2341520978
-0.008193769766
-0.2261468233
0.008562480097
0.2263718253
-0.00878748211
-0.003119144589
0.9664164624
-0.006245388188
0.9665372937
-0.009367931857
0.9665793375
-0.006365017224
0.9666222546
-0.006119767368
-0.4818018519
0.4826055249
-0.007168690267
-0.4817256942
0.007966483609
0.482502877
-0.008743666379
-0.4816445331
0.00950320519
0.4823781276
-0.005162317776
-0.005074481924
-0.2405633306
0.005546819427
0.2407366625
-0.005720151309
-0.2398633834
0.006209268556
0.240016065
-0.006361950151
-0.2387145071
0.006786006106
0.2388398651
-0.006911364071
-0.2341414859
0.007138157145
0.2341370982
-0.007133769496
-0.2269318637
0.007481105826
0.227086114
-0.007635356134
-0.002854086814
0.9692705492
-0.00570544832
0.9693886552
-0.0085348824
0.9694087716
-0.005782962677
0.9694178564
-0.005547521501
-0.4833400884
0.484055517
-0.006498391287
-0.4832272302
0.007201864675
0.4839058556
-0.007880490091
-0.4830566741
0.008537428292
0.4836843648
-0.004623395649
-0.004541723392
-0.2412110933
0.004949440604
0.2413561154
-0.005094462631
-0.2404308468
0.005499421554
0.2405560983
-0.005624673071
-0.2391742574
0.005968777386
0.2392733567
-0.006067876702
-0.234126011
0.006233733114
0.2341237729
-0.006231495062
-0.2274711692
0.006556458848
0.2275773545
-0.006662644096
-0.002597263722
0.971867813
-0.005184396433
0.9719757879
-0.007736853605
0.9719612287
-0.005228269516
0.9719169886
-0.005007716285
-0.4847061269
0.485341396
-0.00586353861
-0.4845381201
0.006483067485
0.4851305609
-0.007075508361
-0.4842654569
0.007643859396
0.4848037217
-0.004129262327
-0.004052861934
-0.2417541921
0.00440716233
0.2418763101
-0.004529280281
-0.2408982369
0.004867498674
0.2410021583
-0.004971419999
-0.2395391711
0.005254122197
0.2396183858
-0.005333336916
-0.2341235457
0.005457466527
0.2341259408
-0.005459861609
-0.2278425191
0.005763204138
0.2279156369
-0.005836321998
-0.002354542
0.974222355
-0.004693602698
0.9743148486
-0.006989645808
0.9742572718
-0.004710897801
0.9741471363
-0.004508895678
-0.4859168759
0.4864803079
-0.00527432982
-0.4856826606
0.005819867934
0.4862003285
-0.006337535872
-0.4853027458
0.006830151906
0.4857657037
-0.003680899952
-0.003612209911
-0.2422123886
0.003918733164
0.242315843
-0.004022187613
-0.2412874442
0.004306979263
0.2413745594
-0.004394094494
-0.2398318254
0.00462864679
0.239895749
-0.004692570346
-0.2341412324
0.004787966134
0.2341490853
-0.004795818982
-0.2280979091
0.005079159675
0.2281480426
-0.00512929313
-0.002129323268
0.9763516783
-0.004239477766
0.9764250031
-0.00630164474
0.9763194388
-0.004236660646
0.9761360684
-0.004053916203
-0.4869893144
0.4874890464
-0.004736392597
-0.4866831297
0.005217214597
0.4871362587
-0.005670343631
-0.4861957014
0.006098482251
0.4865953247
-0.003278804911
-0.003219300679
-0.2426014247
0.003483177501
0.2426896042
-0.00357135708
-0.241614861
0.003813072782
0.2416885539
-0.003886765646
-0.2400687778
0.004082965434
0.2401208166
-0.004135004266
-0.2341807849
0.00421045257
0.2341939674
-0.004223635124
-0.2282725136
0.004489084448
0.2283065397
-0.004523110552
-0.001924334306
0.9782760126
-0.003827088905
0.9783277577
-0.005679338125
0.978171688
-0.003808448054
0.9779114772
-0.003646298932
-0.487939568
0.4883833681
-0.004252248191
-0.4875592958
0.004676866325
0.4879569908
-0.005074561264
-0.4869672156
0.00544796629
0.4873136443
-0.002923313592
-0.002871081339
-0.2429338289
0.003099769054
0.2430095025
-0.00317544261
-0.2418927136
0.003382278573
0.2419555738
-0.003445138768
-0.240262303
0.003610520346
0.2403050378
-0.003653255098
-0.2342408123
0.003714758179
0.2342586956
-0.003732641528
-0.2283903939
0.003982636272
0.2284130877
-0.004005330081
-0.00174063664
0.9800166492
-0.003458221085
0.9800453422
-0.005124480698
0.9798379476
-0.003427099915
0.979499866
-0.003285769521
-0.4887829663
0.4891781056
-0.003822239196
-0.4883288702
0.00419838073
0.4886791875
-0.004548698042
-0.4876368116
0.004875779489
0.4879386441
-0.002612053143
-0.002565558805
-0.2432197867
0.002765204532
0.2432852027
-0.002830620479
-0.2421303684
0.003009041181
0.242184401
-0.003063073793
-0.2404217061
0.00320350273
0.2404571038
-0.003238900383
-0.2343184398
0.003290619675
0.2343402026
-0.003312382487
-0.2284683526
0.003549269895
0.2284830903
-0.003564007627
-0.00157867041
0.9815953196
-0.003133471356
0.9816001431
-0.004637245454
0.9813417217
-0.003092203854
0.9809263852
-0.002971560827
-0.4895336651
0.4898869051
-0.003445443826
-0.4890074742
0.003780109823
0.4893175528
-0.004090188474
-0.4882210181
0.004378215638
0.4884855506
-0.002341291307
-0.002301456813
-0.2434676054
0.002474969936
0.2435245913
-0.002531955911
-0.2423351534
0.002687087794
0.2423819373
-0.002733871594
-0.2405541303
0.002853968431
0.2405837099
-0.00288354801
-0.2344102538
0.002928423812
0.2344350209
-0.00295319085
-0.2285183401
0.00317906824
0.2285275281
-0.003188256216
-0.001438437068
0.9830337567
-0.002852629244
0.9830143353
-0.004216734256
0.9827058267
-0.00280305338
0.982215072
-0.002702367729
-0.4902047494
0.490522296
-0.00312059998
-0.4896089737
0.003420168451
0.4898852457
-0.003696440459
-0.4887337063
0.003951841007
0.4889667579
-0.002109259215
-0.002075633393
-0.2436841973
0.002226734279
0.2437342959
-0.002276832942
-0.2425129799
0.002412909306
0.2425538178
-0.002453747208
-0.2406652006
0.00255731062
0.2406901853
-0.002582295269
-0.234512832
0.002622457221
0.2345397845
-0.002649409696
-0.2285489171
0.002866127041
0.2285543022
-0.00287151208
-0.001319373378
0.98435313
-0.002614334248
0.9843092962
-0.003860427241
0.9839519197
-0.002556667422
0.9833877155
-0.002476403279
-0.4908081551
0.4910959867
-0.002844499022
-0.490145906
0.003114827107
0.4903941605
-0.003363081618
-0.4891865612
0.003591884536
0.4893944824
-0.001915423403
-0.001884382366
-0.2438752248
0.002017447354
0.2439196199
-0.002061842515
-0.2426687138
0.002182265417
0.2427046785
-0.002218230171
-0.2407594505
0.002308391717
0.2407808276
-0.002329768861
-0.2346230412
0.00236674121
0.2346514563
-0.002395156242
-0.2285663575
0.002604083527
0.2285692466
-0.00260697271
-0.001221047412
0.9855741775
-0.002417763111
0.9855060119
-0.003566630732
0.9851007873
-0.002353272454
0.9844668438
-0.002292486558
-0.491355306
0.4916183032
-0.00261626972
-0.4906295779
0.002862597866
0.4908550447
-0.003088064697
-0.4895919483
0.003295404133
0.4897805719
-0.001756917357
-0.001727110331
-0.244045241
0.001845374397
0.2440850104
-0.001885143796
-0.2428064209
0.00199293528
0.2428384587
-0.002024973118
-0.240840558
0.002104445901
0.2408591519
-0.002123039806
-0.234738212
0.002157984091
0.234767519
-0.00218729105
-0.2285754125
0.002389587128
0.2285768182
-0.002390992803
-0.0011434778
0.9867176553
-0.002262227612
0.9866247617
-0.003334086708
0.9861726464
-0.002185541594
0.9854651723
-0.002146873618
-0.491855215
0.4921018738
-0.002432200424
-0.4910701653
0.002660305639
0.491277608
-0.002867748417
-0.4899615118
0.003057541788
0.4901343482
-0.001627292385
-0.001603085881
-0.2441984501
0.001707615112
0.2442347387
-0.001743903775
-0.2429297208
0.001841936616
0.2429586923
-0.001870908048
-0.2409116188
0.001942098516
0.2409281385
-0.0019586183
-0.2348562382
0.001992467471
0.2348859959
-0.002022225104
-0.2285797774
0.002218824776
0.2285804898
-0.002219537086
-0.001084151789
0.987801807
-0.002144410093
0.98768502
-0.003158777042
0.9871870133
-0.00206608977
0.9864146341
-0.00204214916
-0.4923232209
0.4925522753
-0.00229514421
-0.491476737
0.002507093031
0.4916699553
-0.002700311355
-0.4903005824
0.002876917883
0.4904611504
-0.001527204764
-0.001510281129
-0.2443391485
0.001601825221
0.2443728093
-0.001635485986
-0.243041901
0.001726163075
0.2430685578
-0.001752819879
-0.2409753194
0.001817844321
0.2409903799
-0.001832904821
-0.2349755175
0.001866433889
0.2350053976
-0.001896313948
-0.228582361
0.002087819312
0.2285830144
-0.002088472794
-0.001050236907
0.988852044
-0.002072119897
0.988706903
-0.003049996857
0.9881648903
-0.001988251152
0.9873215133
-0.00196862493
-0.4927606078
0.4929698864
-0.002197529735
-0.4918573439
0.002399904396
0.4920410258
-0.002583586315
-0.4906171969
0.002751116858
0.4907691145
-0.001456054752
-0.001446979712
-0.2444705026
0.001526706826
0.2445022883
-0.001558492596
-0.2431458633
0.001643916519
0.2431708778
-0.001668931087
-0.2410340429
0.00172971969
0.2410482074
-0.001743884174
-0.2350949606
0.001777846857
0.2351247607
-0.001807646993
-0.2285855166
0.001994449921
0.2285866233
-0.001995556689
-0.001014646684
-0.002012574662
-0.002966372703
-0.001943471225
-0.001898401615
-0.4931776384
0.4933834954
-0.002149328262
-0.4922196547
0.00234049616
0.4923965602
-0.002517401672
-0.4909193199
0.002678822892
0.4910637951
-0.00141585403
-0.00140744408
-0.2445953872
0.001481700514
0.2446260261
-0.001512339425
-0.2432442267
0.001594453161
0.2432682231
-0.001618449557
-0.2410900662
0.001676923652
0.2411039501
-0.001690807499
-0.23521395
0.001726111602
0.2352435422
-0.001755703775
-0.2285911055
0.001938447583
0.2285929325
-0.001940274551
0.002934033556
-0.003022043147
-0.05267787673
0.003312547303
-0.003430034605
-0.05482447538
0.006696666398
-0.2161536236
-0.003863468972
-0.003947656798
0.1059399126
-0.002914621141
-0.1055750169
0.005483759036
0.02349456299
-0.2209658666
-0.02055136379
-0.004377568461
0.1100121272
-0.003307473192
-0.1095864489
0.006194342161
-0.002991041032
0.005624785281
0.1062808119
0.05349780903
0.003133591869
-0.003233270175
-0.05339813072
0.02634498042
-0.0003192966384
-0.02689610025
0.0008704164737
-0.02784173524
-0.0008382454667
0.001228344488
0.02745163622
0.0062048176
-0.006540643475
-0.1132065977
-0.001374022188
-0.02807343105
0.001605718
0.02726623225
-0.000871141674
-0.02776911276
-0.002953564945
0.04675375682
0.004080393084
-0.02544820466
-0.02243238031
-0.0002421791769
0.0006805519433
0.02590660765
0.003155271131
0.05359240322
-0.003249865317
-0.02246324764
0.02229684178
-7.577331799e-05
0.02647862311
-0.005226323403
-0.012538217
-0.01166764765
0.02678263195
-0.0003546451653
-0.02284861009
6.606581313e-05
0.005439879385
0.02547136862
-0.0242821743
-0.001225337548
0.001652426009
0.02385508584
-0.05219525143
0.003453425333
0.0523059245
-0.003564098402
0.05260066295
0.003514594934
-0.05252593225
-0.001818275519
-0.001771050119
-0.05205043787
0.003277477326
0.05208656824
-0.0033136077
0.003403093964
-0.003454830139
-0.05214351525
-0.0007865698005
-0.02474618854
0.001250584045
-0.0250578236
-0.001143402835
0.001410594403
0.02479063203
-0.05171148646
0.003103363066
0.05177637933
-0.00316825593
0.003254360057
-0.003331295602
-0.05197350232
0.003050225912
-0.003100850412
-0.05166086196
-0.000958362328
-0.02537486732
0.001275406049
0.02474073592
-0.0005284332415
-0.025170665
0.02430886818
-0.0007115350932
0.003523542309
0.05265020983
-0.001801241858
-0.001771847325
0.05302739491
0.01398197825
-0.05285173515
-0.005330585198
-0.008827052805
-0.01229711396
0.02537052248
-0.02462419921
0.0115507907
0.01210129236
-0.01561068777
-0.008787718558
0.02403990957
-0.02399374824
0.005028765602
-0.02437564442
-0.005798649072
0.005769609631
0.02440468386
0.0238012864
-0.0002598383997
-0.0243280178
0.02872092013
-0.02284830403
-0.0004327367088
-0.005929021824
-0.02440155779
0.005954935199
-0.0068530996
0.01358043616
0.02199358357
0.02307688703
-0.0005009381834
0.02529277851
0.02510571065
-0.02522359597
0.0107328962
-0.008577701079
-0.2249306285
0.2268161672
0.01088864372
-0.006267399556
-0.1126059381
-0.1126266556
0.006242185728
0.1104560706
0.1118230482
0.006631761798
-0.007145423513
-0.1113093865
-0.007033681032
0.09448978032
-0.09495732776
0.007501228475
-0.002880018046
0.004141242573
0.04549253229
-0.004784443621
-0.02641837438
0.003705682852
0.02749713515
-0.02642300065
0.002021661337
0.02673985556
-0.002338516243
0.02671086511
0.001727329065
-0.001582633596
-0.02685556058
0.02859439123
-0.004995786161
0.085069712
-0.01047133757
-0.08163205545
0.02641722263
0.0008990919144
-0.0005102015003
-0.02680611304
-0.02480214566
0.004268890334
0.02669764254
-0.006164387212
-0.03183510516
0.02369222063
0.03351340703
0.02414121121
0.05432771287
-0.01904277906
-0.006398750112
0.003778697352
0.05456496563
-0.003887794726
-0.05445586826
0.001682009669
0.02652029092
-0.001491435471
0.02595737726
0.001793303861
-0.001644781477
-0.02610589965
-0.0004609427978
0.02449158285
-0.02496582819
0.0009351881336
0.02495006693
0.0215530861
-0.02182635116
-0.0001876777398
0.02188066205
-0.004187303752
-0.01679483462
-0.0008985236782
-0.008742766341
0.05027852443
-0.04990862746
0.008372869371
0.002578192429
0.02404434086
-0.0197338128
0.02550121641
0.0005079789507
-0.00011882352
-0.02589037184
-0.03084932429
0.02601281195
5.206872334e-05
-0.02560139881
0.001806695254
0.0256240353
-0.001829331742
0.001992630561
-0.002398046444
-0.02601758477
-0.00602316088
-0.02462621259
0.004230999089
-0.0005362957927
-0.02608225439
0.0009806124155
0.02563793776
-0.02593212852
0.001664723013
0.02581972471
-0.001552319202
0.001743055291
-0.001683313893
-0.02566114021
0.0008666820209
0.02601172168
-0.0004611810772
0.003643555306
-0.004628832647
-0.02381686832
-0.001227657896
0.001654062851
0.0240651779
0.002120693653
0.02590303839
-0.002066354779
0.02679420404
0.009358220074
-0.009846671948
-0.02630575217
-0.002167799011
0.02696534784
-0.0214797949
-0.003317753928
-0.004790012845
0.009227340461
0.01744333444
0.02069046702
-0.0003650388159
-0.01806447537
0.0236088261
-0.00481437929
-0.0007299714386
0.02035022431
-0.004867872902
-0.01966965516
0.02419478678
-0.005229051162
-0.02432074959
0.00535501398
0.0251234721
-0.0001585514875
0.01462327202
-0.0008509530665
-0.0239233866
-0.0064071787
0.006190271445
0.02414029386
-0.004471579743
-0.01287948857
-0.0007134070555
-0.006644695964
-0.0238350092
0.006556318566
-0.01477216132
-0.02210032385
-0.02625662583
0.001708417177
0.02616210102
-0.001613892367
0.00160459687
-0.001536824147
-0.02599990124
-0.02653298705
0.0009587116096
-0.02577120582
0.003054110629
0.02698598552
-0.02583712225
0.001786890263
0.02598656283
-0.001936330838
0.001627825563
-0.001684082274
-0.02620036912
-0.02397315342
0.02313415593
-3.21441855e-05
0.002349698961
-0.02631724669
-5.605690593e-06
-0.02782645089
0.00240703709
0.02207512681
0.0001411451518
8.056982081e-05
-0.0001211854722
0.02632114024
0.0005826771809
-0.02283017752
0.02258879686
0.000120195186
-5.066675485e-05
-0.02372882597
0.0008516892609
2.852662305e-05
-0.02558162086
0.001583879957
0.02558006212
-0.001582321213
0.001731103111
-0.001883696659
-0.0256845287
-0.02490120099
0.002773550482
-0.02636556778
0.001193288686
0.02603896112
-0.0257089204
0.00152887405
0.02566955174
-0.00148950539
0.001560349413
-0.001538156892
-0.02560381338
-0.02478981549
0.02438566576
-0.000124283516
0.0004601566587
-8.681300514e-05
-0.02516315914
0.0008836666856
-0.02559417503
-0.001186800139
0.02391757338
0.001578094937
-0.02388889697
0.02320113076
-0.0004990339307
-0.0002147662988
0.006870944334
-0.007395267051
-0.02409987649
0.02557357034
-0.02507181503
0.006369189019
0.02654331563
0.01058104542
0.0002154911612
0.004943910402
-0.005159401564
-0.01861527633
-0.004390678482
0.005224904592
0.0241397366
0.0206200495
-0.005059838038
0.02188022227
-0.002398134582
-0.02164988669
-0.02175848301
0.02147899414
1.965047658e-05
0.0002218338594
-0.0219286406
-5.167627083e-05
-0.02473900558
0.0006328216423
-0.01911455283
-0.000451211851
0.01457851704
-0.0009980808722
-0.00531586852
0.02048824328
-0.0005938577235
0.02322848484
-0.006550769791
-0.001488497327
0.02223540952
0.002329974842
-0.02091396164
0.01942388294
1.581371498e-06
6.409431635e-05
0.02550377579
-0.02559763798
0.02262556337
0.0002093076501
-3.067390226e-05
0.02250068804
0.0001716898002
-4.68144698e-05
0.01505505153
-0.01505340735
-1.644184354e-06
-0.004821817228
0.003693008879
-0.03113814967
-9.142409384e-07
-0.02224748535
0.02002769031
0.02751744334
-0.0207509296
0.02705736747
0.001701036575
-0.001595552094
-0.02716285195
-0.0002607265175
0.02279491644
-0.02358193538
0.001047745465
0.0006575620453
-0.000179150488
-0.02544423975
0.02567244437
-0.02614782898
0.001132946648
0.0252458357
0.001361796811
6.962516519e-05
-0.01199152433
-0.0038118866
-0.0009914236944
-0.01061468891
-0.001376835419
0.01206832301
-0.001788530778
-0.01054051875
0.01848678302
-0.004637727678
-0.01834683075
0.004497775417
0.003166930465
0.003999357074
0.0197990603
-0.02239046329
0.02224071962
3.092014447e-05
6.957125298e-05
0.000128762318
0.0005003396532
0.002408396617
-0.0001244106388
0.02204954061
-0.02219688176
6.052813749e-05
0.02188303911
4.221799078e-05
0.02235075567
0.0001066037494
4.332862142e-05
7.590678521e-05
7.796712904e-05
-0.02237143803
-0.004504879969
0.002325587408
-0.001495894679
0.002426292468
0.01958121055
-0.021098103
2.099776506e-05
2.292323717e-05
0.02163167553
3.659727929e-05
3.453860137e-05
0.02497513692
0.001924761624
-0.003480392849
0.003383714747
-0.003515091442
0.0009524146647
-0.01822113798
-0.004211071586
0.01825439154
-0.01482343743
-0.002478539444
0.01515212877
0.01089276662
-0.001665426156
-0.002461537415
-0.001469133399
-0.003239340957
-0.001439900755
-0.005380839242
0.01837497644
-0.0213918126
-0.005647871825
0.02165884518
-0.02075787038
-0.005448321506
-0.0001866500209
0.0005711165436
-0.0220895696
-2.57210237e-05
-7.40146066e-06
-0.0005196888707
-0.01928731934
0.02525062279
-0.005262945257
-0.0007003581904
-0.01370859034
-0.004886975343
-0.0006917536528
-0.01951180876
-0.005717641365
0.01175069919
-0.006011885161
-0.001128789384
-0.01270831787
-0.00100027247
0.005754088131
-0.006360612496
0.02679673472
-0.000554403306
0.02064473542
-0.0150138994
0.0002417380726
0.00443112408
-2.114053609e-05
0.004566209753
0.006831748934
-0.006903886096
-0.2002013672
-0.004470026628
0.1867968936
-0.1894239344
0.007225231241
-0.003986365256
-0.1886182269
-0.003456171068
0.1944862716
-0.1943564658
0.003426294863
-0.003765708655
-0.1985357475
0.2158856928
-0.2145520116
0.005373373953
0.0211108942
-0.02061821896
-0.1980060813
-0.01922836335
0.1876152907
-0.1878695883
0.01962092138
0.0006350156093
0.1889733891
-0.01896051678
-0.1876537645
-0.01933439523
0.1965664842
-0.196105941
0.01897660422
0.003452081295
0.1952265737
-0.01996240391
-0.2014258517
0.2219659147
-0.2205596706
0.02209298117
0.00557152986
0.2172925147
0.2195833509
0.007133441788
-0.004153593132
-0.004152918201
0.1089854323
-0.004813886957
-0.1086574935
0.004485948207
-0.107703935
-0.004633550892
0.004320905545
0.1080165803
0.0531183694
0.003052894289
-0.00315296656
-0.05301829713
0.05250817794
-0.05243141117
0.003326327195
-0.05223612976
0.003211259366
0.05230234772
0.01386677668
-0.01530981338
-0.1996922734
-0.01808162405
0.1889678474
-0.1881981505
0.01744333887
0.009625793557
0.1875641751
-0.0184083155
-0.1876335485
-0.01736573612
0.1947768476
-0.1953664687
0.01806341862
0.008536640882
0.196348042
-0.0163001133
-0.2005034972
0.2171465072
-0.2193857024
0.01300033075
0.007369090427
0.2221918657
-0.008759401371
0.2247951545
0.007575192298
0.224279876
-0.005041372239
-0.1115275578
-0.1114045343
-0.005065812975
-0.1106971119
-0.005064270269
0.004717277767
0.1110441044
0.1108099905
0.006709747533
-0.003596945524
-0.003603331202
0.05533910382
-0.003954183193
-0.05514300436
0.003758083727
-0.05471594997
-0.003823803078
0.003697134646
0.05484261841
0.0164235192
-0.01979439216
-0.2086629172
-0.02816463366
0.1962191963
-0.1936910767
0.02574340911
0.01992863896
0.1901075614
-0.03012989401
-0.1915975062
-0.0328662975
0.1944836605
-0.1940167584
0.03250712392
0.02164706018
0.1942738307
-0.03266985431
-0.1972446822
-0.02919059773
0.2091490178
-0.2106537405
0.03075548686
0.01650445366
0.2148027912
-0.02738282081
-0.2153250389
-0.02237802968
0.2247505294
-0.2262568529
0.0238983204
0.01031300671
0.228098276
-0.01977066324
-0.2242756087
0.01095403222
-0.01596393452
-0.2250257672
-0.03024734639
0.2115597242
-0.2069687506
0.02572101948
0.02678987239
0.1992748036
-0.0344094389
-0.2031564821
-0.04402913104
0.2019470939
-0.1991800686
0.04134800648
0.0356917064
0.1954652851
-0.0461605239
-0.2001407724
-0.04957337145
0.2086320403
-0.207860739
0.04886617211
0.03597779044
0.2081469066
-0.05000163858
-0.2115029817
-0.04772937291
0.2179186856
-0.2198895256
0.04972388234
0.03106619075
0.2232761223
-0.04579105796
-0.2136822529
0.00841748875
-0.008795680681
-0.2359944347
-0.01787474886
0.2333734957
-0.227587635
0.01210155029
0.02368140205
0.2165791422
-0.02352737142
-0.2226936102
-0.03876578601
0.218314738
-0.2135606674
0.03405654016
0.04134351916
0.2052994941
-0.04302715268
-0.2124442374
-0.05295946359
0.2172758518
-0.2143997202
0.0501258964
0.05130306985
0.2100067324
-0.05516926187
-0.2165026281
-0.05525465803
0.2123451507
-0.2129157562
0.05584155048
0.05369460211
0.2159298228
-0.0566868899
-0.211192864
0.007756982533
-0.008072412943
-0.2374116535
-0.009020836366
0.2373850847
-0.2370695385
0.008705290161
0.009355784811
0.2363829827
-0.009334332209
-0.236901863
-0.01291539711
0.2365860409
-0.23379501
0.01012768623
0.0290737061
0.2233500709
-0.01764458104
-0.2311669173
-0.0299701995
0.231106267
-0.2274875361
0.02636395967
0.04650121727
0.220481344
-0.03276355313
-0.2265454387
-0.03730330443
0.2163645076
-0.2147118121
0.03565586972
0.05314942933
0.2125195755
-0.0392533841
-0.2187355678
0.007055836835
-0.007317496281
-0.2385910787
-0.008086425301
0.2384857423
-0.2382329076
0.007833590591
0.008486060486
0.2376835089
-0.00833486859
-0.2380528791
-0.009049956508
0.2376162769
-0.237383147
0.008816826646
0.009659169602
0.2368690209
-0.009276131086
-0.2371391746
-0.009777195605
0.2362125462
-0.2361022848
0.009666934171
0.01710794249
0.234693971
-0.009792763817
-0.2341153096
-0.01016457257
0.2209168016
-0.2205720568
0.009819827724
0.0270389325
0.2181350181
-0.01054418214
-0.224608982
0.006363515514
-0.006580601577
-0.2395696383
-0.007206758956
0.2393711
-0.2391671565
0.007002815452
0.007622865781
0.2387252325
-0.007405449427
-0.2389679156
-0.007967089648
0.238413222
-0.2382322843
0.007786151932
0.008551055594
0.2378348254
-0.008138799049
-0.23795604
-0.008483807974
0.2365346304
-0.2364680886
0.008417266226
0.009337335424
0.2363085108
-0.00848471132
-0.2341524081
-0.008857830813
0.2221480706
-0.2218606354
0.008570395529
0.009495639071
0.221245765
-0.009105551827
-0.2258991023
0.005706215014
-0.005886927206
-0.2403826184
-0.006400511997
0.2400891963
-0.2399231435
0.006234459237
0.006805704015
0.2395646926
-0.006561259908
-0.2397026355
-0.007009107335
0.2390381611
-0.2388952914
0.006866237651
0.007547327468
0.2385835417
-0.007142351634
-0.2385812628
-0.007388429744
0.2367348143
-0.2366931199
0.007346735346
0.008135863806
0.2365937499
-0.007384202018
-0.2341457136
-0.007737171272
0.2231766272
-0.2229369213
0.007497465388
0.008287512448
0.2224230383
-0.007906605363
-0.2267624296
0.005095577351
-0.005246528236
-0.2410601424
-0.005670874758
0.240677114
-0.2405406459
0.005534406604
0.006051340853
0.240247124
-0.005802374784
-0.2402993468
-0.006164571062
0.2395363308
-0.2394217546
0.006049994835
0.006651019782
0.2391731474
-0.006269576914
-0.2390692515
-0.006448612492
0.2368615279
-0.236834888
0.006421972548
0.007100985492
0.2367719859
-0.006445514724
-0.2341291087
-0.006776136093
0.224029024
-0.2238310678
0.006578179897
0.007252471458
0.2234052615
-0.006892723023
-0.2273545823
0.004537313163
-0.004664131746
-0.2416273735
-0.005017630059
0.2411631785
-0.2410499473
0.004904398844
0.005369314439
0.2408072212
-0.005126385642
-0.2407894814
-0.005422971158
0.2399389811
-0.2398459705
0.005329960528
0.005860151908
0.2396449563
-0.005506654677
-0.2394554875
-0.005639772045
0.2369445199
-0.2369266895
0.005621941673
0.006209781504
0.2368854795
-0.005640881643
-0.2341224361
-0.005949447671
0.2247302848
-0.2245677631
0.005786925939
0.006367993934
0.2242174889
-0.006029714913
-0.2277622518
0.004035258026
-0.004142498748
-0.2421051479
-0.004439539586
0.2415689712
-0.2414740859
0.004344654287
0.004759231214
0.2412714459
-0.004530476456
-0.2411965073
-0.004775972412
0.2402679041
-0.2401916484
0.004699716777
0.005165670658
0.2400274327
-0.004843341615