/*--------------------------------*- C++ -*----------------------------------*\
| =========                 |                                                 |
| \\      /  F ield         | OpenFOAM: The Open Source CFD Toolbox           |
|  \\    /   O peration     | Version:  v2012                                 |
|   \\  /    A nd           | Website:  www.openfoam.com                      |
|    \\/     M anipulation  |                                                 |
\*---------------------------------------------------------------------------*/
FoamFile
{
    version     2.0;
    format      ascii;
    class       pointVectorField;
    location    "1";
    object      pointDisplacement;
}
// * * * * * * * * * * * * * * * * * * * * * * * * * * * * * * * * * * * * * //

dimensions      [0 1 0 0 0 0 0];


internalField   nonuniform List<vector> 
6962
(
(0 0 0)
(0 0 0)
(0 0 0)
(0 0 0)
(0 0 0)
(0 0 0)
(0 0 0)
(0 0 0)
(0 0 0)
(0 0 0)
(-0.0006187877684 -0.001062760689 5.606626274e-15)
(0 0 0)
(0 0 0)
(0 0 0)
(0 0 0)
(0 0 0)
(0 0 0)
(0 0 0)
(0 0 0)
(0 0 0)
(0 0 0)
(0 0 0)
(0 0 0)
(0 0 0)
(0 0 0)
(-0.001100142015 -0.002074690536 9.964251646e-15)
(-0.00100298674 -0.001849121716 9.076073226e-15)
(-0.0008583890865 -0.00154648391 7.771561172e-15)
(-0.004269415181 -0.008432512129 4.242439733e-14)
(-0.004587072593 -0.009269448757 4.557465516e-14)
(-0.006956175304 -0.01475995393 7.260858581e-14)
(-0.006567774978 -0.01362244055 6.857014956e-14)
(-0.0139592 -0.03405317614 1.717653797e-13)
(-0.0142175789 -0.03547264987 1.748323708e-13)
(-0.01615610232 -0.04282670607 2.111921749e-13)
(-0.01594337976 -0.04132725324 2.08569273e-13)
(-0.0189325949 -0.06053897257 3.057692988e-13)
(-0.01899739705 -0.06209725967 3.064215548e-13)
(-0.01888885132 -0.06700016284 3.306105389e-13)
(-0.01878071919 -0.06518435574 3.292088824e-13)
(-0.01519867169 -0.07120958402 0)
(-0.01522935256 -0.0728831779 0)
(-0.01345223807 -0.07291688331 0)
(-0.01343705883 -0.07208037496 0)
(-0.01342211137 -0.0712437843 0)
(-0.008110791662 -0.07134451112 0)
(-0.008117634978 -0.07176239085 0)
(-0.007677608162 -0.07177044279 0)
(-0.007670805995 -0.07135267895 0)
(0 0 0)
(0 0 0)
(0 0 0)
(0 0 0)
(0 0 0)
(0 0 0)
(0 0 0)
(0 0 0)
(0 0 0)
(0 0 0)
(0 0 0)
(0 0 0)
(0 0 0)
(0 0 0)
(-0.001043299106 -0.002153520676 9.492406861e-15)
(-0.001179018269 -0.002383527711 1.072752998e-14)
(-0.001259853286 -0.002493487287 1.146305273e-14)
(-0.005080187859 -0.01102151066 5.069555886e-14)
(-0.004916913814 -0.01089582226 4.907185769e-14)
(-0.007333083151 -0.01706214789 7.688294446e-14)
(-0.007528612711 -0.01715027813 7.893685705e-14)
(-0.01485588754 -0.03978938668 1.83450477e-13)
(-0.01461660964 -0.0399763217 1.804251193e-13)
(-0.01652731528 -0.04801782833 2.168265567e-13)
(-0.01676074791 -0.04769374537 2.200045701e-13)
(-0.01936426504 -0.06796241496 3.136935156e-13)
(-0.01920928175 -0.06879828195 3.108624469e-13)
(-0.01895282398 -0.07367197237 3.328587406e-13)
(-0.01906414171 -0.07263560705 3.352457201e-13)
(-0.01512509271 -0.07792419121 0)
(-0.01515764516 -0.07959802096 0)
(-0.01337557053 -0.07963267854 0)
(-0.01335929809 -0.07879595807 0)
(-0.01334301809 -0.07795884879 0)
(-0.007996871969 -0.07806282002 0)
(-0.008013151974 -0.0788999293 0)
(-0.007122153542 -0.07891725734 0)
(-0.007114009759 -0.07849850829 0)
(-0.007105873537 -0.07808014806 0)
(-0.007551372753 -0.07807148404 0)
(0 0 0)
(0 0 0)
(0 0 0)
(0 0 0)
(0 0 0)
(0 0 0)
(0 0 0)
(0 0 0)
(0 0 0)
(0 0 0)
(0 0 0)
(0 0 0)
(0 0 0)
(0 0 0)
(-0.0002436947768 -0.0005446078852 2.220446049e-15)
(-0.0004421798396 -0.0009693032977 4.024558464e-15)
(-0.0006569296839 -0.001412004948 5.981326545e-15)
(-0.003767857646 -0.008879931675 3.760880496e-14)
(-0.003219307294 -0.007739592378 3.214095656e-14)
(-0.005242574563 -0.01323588124 5.498379529e-14)
(-0.005930130916 -0.01467545964 6.217248938e-14)
(-0.01280885347 -0.0372527613 1.580957587e-13)
(-0.01187572029 -0.03524117012 1.466188282e-13)
(-0.01377609852 -0.04341583356 1.80702675e-13)
(-0.01472367549 -0.04547814364 1.930816618e-13)
(-0.01784246254 -0.0678412671 2.882416528e-13)
(-0.01705819344 -0.06615625202 2.755573547e-13)
(-0.01718546306 -0.07226617442 3.010230953e-13)
(-0.01785553221 -0.07362820446 3.12819215e-13)
(-0.01508284413 -0.08370943922 3.554101458e-13)
(-0.01485321386 -0.08396099254 3.495537193e-13)
(-0.01338507427 -0.08560012307 3.56242813e-13)
(-0.01346479942 -0.08460474164 3.590738817e-13)
(-0.008127096885 -0.08475891664 0)
(-0.008159656895 -0.08643313519 0)
(-0.00637762115 -0.08646779202 0)
(-0.00634506114 -0.08479357346 0)
(-0.007236098453 -0.08477624467 0)
(0 0 0)
(0 0 0)
(0 0 0)
(0 0 0)
(0 0 0)
(0 0 0)
(0 0 0)
(0 0 0)
(0 0 0)
(0 0 0)
(0 0 0)
(0 0 0)
(0 0 0)
(0 0 0)
(0 0 0)
(0 0 0)
(-5.985916777e-06 -1.388727254e-05 5.551115123e-17)
(-0.001432465456 -0.003648545295 1.432187702e-14)
(-0.0008992531797 -0.002333345026 8.992806499e-15)
(-0.002091339171 -0.005702887775 2.19685381e-14)
(-0.002872414911 -0.007686920318 3.017031069e-14)
(-0.008354890702 -0.02631150299 1.033895192e-13)
(-0.007040305472 -0.02260750121 8.720801858e-14)
(-0.008706107282 -0.02970299014 1.146027717e-13)
(-0.01011186151 -0.03382748613 1.329492072e-13)
(-0.01370896191 -0.05643419236 2.21975216e-13)
(-0.01230541784 -0.05168145339 1.995625887e-13)
(-0.01283650436 -0.05843822951 2.256805853e-13)
(-0.01415756751 -0.06317101759 2.484956685e-13)
(-0.01314922495 -0.0786824528 3.094469125e-13)
(-0.01222569213 -0.07462984751 2.881722638e-13)
(-0.01137188376 -0.07841442274 3.027300632e-13)
(-0.01214376727 -0.08209470812 3.227973444e-13)
(-0.007885059053 -0.08771016488 3.445577157e-13)
(-0.007505507408 -0.08511440789 3.283345817e-13)
(-0.005944925704 -0.08601494274 3.316791286e-13)
(-0.006228412632 -0.0884000952 3.471389842e-13)
(0 0 0)
(0 0 0)
(0 0 0)
(0 0 0)
(0 0 0)
(0 0 0)
(0 0 0)
(0 0 0)
(0 0 0)
(0 0 0)
(0 0 0)
(0 0 0)
(0 0 0)
(0 0 0)
(0 0 0)
(0 0 0)
(0 0 0)
(-5.255171958e-06 -1.438174289e-05 5.551115123e-17)
(0 0 0)
(-5.411597018e-05 -0.0001584764237 5.689893001e-16)
(-0.0003198106251 -0.0009206151721 3.358424649e-15)
(-0.003227430354 -0.01097075527 4.012068455e-14)
(-0.002151805802 -0.007449481001 2.678413047e-14)
(-0.003204390598 -0.01180179377 4.243827512e-14)
(-0.004469928949 -0.01615795415 5.910549827e-14)
(-0.007656860365 -0.03415564267 1.250111126e-13)
(-0.006106398702 -0.02778742165 9.997558337e-14)
(-0.006762143194 -0.03339286286 1.201538868e-13)
(-0.008315325133 -0.0402358447 1.47284962e-13)
(-0.008644999858 -0.05620141459 2.05752082e-13)
(-0.007302899607 -0.04852173542 1.746103262e-13)
(-0.00699431135 -0.05256545577 1.891542478e-13)
(-0.008213371558 -0.06036023557 2.209621375e-13)
(-0.005641869088 -0.06848605731 2.505773367e-13)
(-0.004866581333 -0.06061136867 2.180200465e-13)
(-0.003867106062 -0.06181610347 2.222944051e-13)
(-0.004483363782 -0.06968577973 2.549072065e-13)
(0 0 0)
(0 0 0)
(0 0 0)
(0 0 0)
(0 0 0)
(0 0 0)
(0 0 0)
(0 0 0)
(0 0 0)
(0 0 0)
(0 0 0)
(0 0 0)
(0 0 0)
(0 0 0)
(0 0 0)
(0 0 0)
(0 0 0)
(0 0 0)
(0 0 0)
(0 0 0)
(0 0 0)
(-0.0001388545987 -0.0005062991977 1.720845688e-15)
(0 0 0)
(-0.0001009366915 -0.0003985989659 1.346145417e-15)
(-0.0005003781172 -0.001943658036 6.661338148e-15)
(-0.002133185438 -0.0102844224 3.520794767e-14)
(-0.001189858024 -0.005841462067 1.967870311e-14)
(-0.001602814498 -0.008558923197 2.883804306e-14)
(-0.002640625445 -0.01383863448 4.736488979e-14)
(-0.003455347889 -0.0245115728 8.393286066e-14)
(-0.002380665126 -0.01724808321 5.812017534e-14)
(-0.002415364945 -0.01986742218 6.694644838e-14)
(-0.003431232854 -0.02760559293 9.452161276e-14)
(-0.002519795854 -0.03406088603 1.166011732e-13)
(-0.001831139841 -0.02543908131 8.57092175e-14)
(-0.00145643997 -0.02631246423 8.863743073e-14)
(-0.002001651765 -0.03506001201 1.20015109e-13)
(0 0 0)
(0 0 0)
(0 0 0)
(0 0 0)
(0 0 0)
(0 0 0)
(0 0 0)
(0 0 0)
(0 0 0)
(0 0 0)
(0 0 0)
(0 0 0)
(0 0 0)
(0 0 0)
(0 0 0)
(0 0 0)
(0 0 0)
(0 0 0)
(0 0 0)
(0 0 0)
(0 0 0)
(0 0 0)
(0 0 0)
(0 0 0)
(0 0 0)
(0 0 0)
(0 0 0)
(0 0 0)
(-1.560987809e-05 -8.770703088e-05 2.775557562e-16)
(-0.0002796084233 -0.002145601103 6.911138328e-15)
(-3.14885981e-05 -0.0002456213826 7.771561172e-16)
(-6.875805869e-05 -0.000611101895 1.942890293e-15)
(-0.0003539233142 -0.003092253084 9.93649607e-15)
(-0.0003626406442 -0.005427659424 1.745825706e-14)
(-0.0001174832562 -0.001794521223 5.689893001e-15)
(-0.0001006241265 -0.002021848826 6.411537967e-15)
(-0.0002965531658 -0.005826818116 1.873501354e-14)
(0 0 0)
(0 0 0)
(0 0 0)
(0 0 0)
(0 0 0)
(0 0 0)
(0 0 0)
(0 0 0)
(0 0 0)
(0 0 0)
(0 0 0)
(0 0 0)
(0 0 0)
(0 0 0)
(0 0 0)
(0 0 0)
(0 0 0)
(0 0 0)
(0 0 0)
(0 0 0)
(0 0 0)
(0 0 0)
(0 0 0)
(0 0 0)
(0 0 0)
(0 0 0)
(0 0 0)
(0 0 0)
(0 0 0)
(0 0 0)
(0 0 0)
(0 0 0)
(0 0 0)
(0 0 0)
(0 0 0)
(0 0 0)
(0 0 0)
(0 0 0)
(0 0 0)
(0 0 0)
(0 0 0)
(0 0 0)
(0 0 0)
(0 0 0)
(0 0 0)
(0 0 0)
(0 0 0)
(0 0 0)
(0 0 0)
(0 0 0)
(0 0 0)
(0 0 0)
(0 0 0)
(0 0 0)
(0 0 0)
(0 0 0)
(0 0 0)
(0 0 0)
(0 0 0)
(0 0 0)
(0 0 0)
(0 0 0)
(0 0 0)
(0 0 0)
(0 0 0)
(0 0 0)
(0 0 0)
(0 0 0)
(0 0 0)
(0 0 0)
(0 0 0)
(0 0 0)
(0 0 0)
(0 0 0)
(0 0 0)
(0 0 0)
(0 0 0)
(0 0 0)
(0 0 0)
(0 0 0)
(0 0 0)
(0 0 0)
(0 0 0)
(0 0 0)
(0 0 0)
(0 0 0)
(0 0 0)
(0 0 0)
(0 0 0)
(0 0 0)
(0 0 0)
(0 0 0)
(0 0 0)
(0 0 0)
(0 0 0)
(0 0 0)
(0 0 0)
(0 0 0)
(0 0 0)
(0 0 0)
(0 0 0)
(0 0 0)
(0 0 0)
(0 0 0)
(0 0 0)
(0 0 0)
(0 0 0)
(0 0 0)
(0 0 0)
(0 0 0)
(0 0 0)
(0 0 0)
(0 0 0)
(0 0 0)
(0 0 0)
(0 0 0)
(0 0 0)
(0 0 0)
(0 0 0)
(0 0 0)
(0 0 0)
(0 0 0)
(0 0 0)
(0 0 0)
(0 0 0)
(0 0 0)
(0 0 0)
(0 0 0)
(0 0 0)
(0 0 0)
(0 0 0)
(0 0 0)
(0 0 0)
(0 0 0)
(0 0 0)
(0 0 0)
(0 0 0)
(0 0 0)
(0 0 0)
(0 0 0)
(0 0 0)
(0 0 0)
(0 0 0)
(0 0 0)
(0 0 0)
(0 0 0)
(0 0 0)
(0 0 0)
(0 0 0)
(0 0 0)
(0 0 0)
(0 0 0)
(0 0 0)
(0 0 0)
(0 0 0)
(0 0 0)
(0 0 0)
(0 0 0)
(0 0 0)
(0 0 0)
(0 0 0)
(0 0 0)
(0 0 0)
(0 0 0)
(0 0 0)
(0 0 0)
(0 0 0)
(0 0 0)
(0 0 0)
(0 0 0)
(0 0 0)
(0 0 0)
(0 0 0)
(0 0 0)
(0 0 0)
(0 0 0)
(0 0 0)
(0 0 0)
(0 0 0)
(0 0 0)
(0 0 0)
(0 0 0)
(0 0 0)
(0 0 0)
(0 0 0)
(0 0 0)
(0 0 0)
(0 0 0)
(0 0 0)
(0 0 0)
(0 0 0)
(0 0 0)
(0 0 0)
(0 0 0)
(0 0 0)
(0 0 0)
(0 0 0)
(0 0 0)
(0 0 0)
(0 0 0)
(0 0 0)
(0 0 0)
(0 0 0)
(0 0 0)
(0 0 0)
(0 0 0)
(0 0 0)
(0 0 0)
(0 0 0)
(0 0 0)
(0 0 0)
(0 0 0)
(0 0 0)
(0 0 0)
(0 0 0)
(0 0 0)
(0 0 0)
(0 0 0)
(0 0 0)
(0 0 0)
(0 0 0)
(0 0 0)
(0 0 0)
(0 0 0)
(0 0 0)
(0 0 0)
(0 0 0)
(0 0 0)
(0 0 0)
(0 0 0)
(0 0 0)
(0 0 0)
(0 0 0)
(0 0 0)
(0 0 0)
(0 0 0)
(0 0 0)
(0 0 0)
(0 0 0)
(0 0 0)
(0 0 0)
(0 0 0)
(0 0 0)
(0 0 0)
(0 0 0)
(0 0 0)
(0 0 0)
(0 0 0)
(0 0 0)
(0 0 0)
(0 0 0)
(0 0 0)
(0 0 0)
(0 0 0)
(0 0 0)
(0 0 0)
(0 0 0)
(0 0 0)
(0 0 0)
(0 0 0)
(0 0 0)
(0 0 0)
(0 0 0)
(0 0 0)
(0 0 0)
(0 0 0)
(0 0 0)
(0 0 0)
(0 0 0)
(0 0 0)
(0 0 0)
(0 0 0)
(0 0 0)
(0 0 0)
(0 0 0)
(0 0 0)
(0 0 0)
(0 0 0)
(0 0 0)
(0 0 0)
(0 0 0)
(0 0 0)
(0 0 0)
(0 0 0)
(0 0 0)
(0 0 0)
(0 0 0)
(0 0 0)
(0 0 0)
(0 0 0)
(0 0 0)
(0 0 0)
(0 0 0)
(0 0 0)
(0 0 0)
(0 0 0)
(0 0 0)
(0 0 0)
(0 0 0)
(0 0 0)
(0 0 0)
(0 0 0)
(0 0 0)
(0 0 0)
(0 0 0)
(0 0 0)
(0 0 0)
(0 0 0)
(0 0 0)
(0 0 0)
(0 0 0)
(0 0 0)
(0 0 0)
(0 0 0)
(0 0 0)
(0 0 0)
(0 0 0)
(0 0 0)
(0 0 0)
(0 0 0)
(0 0 0)
(0 0 0)
(0 0 0)
(0 0 0)
(0 0 0)
(0 0 0)
(0 0 0)
(0 0 0)
(0 0 0)
(0 0 0)
(0 0 0)
(0 0 0)
(0 0 0)
(0 0 0)
(0 0 0)
(0 0 0)
(0 0 0)
(0 0 0)
(0 0 0)
(0 0 0)
(0 0 0)
(0 0 0)
(0 0 0)
(0 0 0)
(0 0 0)
(0 0 0)
(0 0 0)
(0 0 0)
(0 0 0)
(0 0 0)
(0 0 0)
(0 0 0)
(0 0 0)
(0 0 0)
(0 0 0)
(0 0 0)
(0 0 0)
(0 0 0)
(0 0 0)
(0 0 0)
(0 0 0)
(0 0 0)
(0 0 0)
(0 0 0)
(0 0 0)
(0 0 0)
(0 0 0)
(0 0 0)
(0 0 0)
(0 0 0)
(0 0 0)
(0 0 0)
(0 0 0)
(0 0 0)
(0 0 0)
(0 0 0)
(0 0 0)
(0 0 0)
(0 0 0)
(0 0 0)
(0 0 0)
(0 0 0)
(0 0 0)
(0 0 0)
(0 0 0)
(0 0 0)
(0 0 0)
(0 0 0)
(0 0 0)
(0 0 0)
(0 0 0)
(0 0 0)
(0 0 0)
(0 0 0)
(0 0 0)
(0 0 0)
(0 0 0)
(0 0 0)
(0 0 0)
(0 0 0)
(0 0 0)
(0 0 0)
(0 0 0)
(0 0 0)
(0 0 0)
(0 0 0)
(0 0 0)
(0 0 0)
(0 0 0)
(0 0 0)
(0 0 0)
(0 0 0)
(0 0 0)
(0 0 0)
(0 0 0)
(0 0 0)
(0 0 0)
(0 0 0)
(0 0 0)
(0 0 0)
(0 0 0)
(0 0 0)
(0 0 0)
(0 0 0)
(0 0 0)
(0 0 0)
(0 0 0)
(0 0 0)
(0 0 0)
(0 0 0)
(0 0 0)
(0 0 0)
(0 0 0)
(0 0 0)
(0 0 0)
(0 0 0)
(0 0 0)
(0 0 0)
(0 0 0)
(0 0 0)
(0 0 0)
(0 0 0)
(0 0 0)
(0 0 0)
(0 0 0)
(0 0 0)
(0 0 0)
(0 0 0)
(0 0 0)
(0 0 0)
(0 0 0)
(0 0 0)
(0 0 0)
(0 0 0)
(0 0 0)
(0 0 0)
(0 0 0)
(0 0 0)
(0 0 0)
(0 0 0)
(0 0 0)
(0 0 0)
(0 0 0)
(0 0 0)
(0 0 0)
(0 0 0)
(0 0 0)
(0 0 0)
(0 0 0)
(0 0 0)
(0 0 0)
(0 0 0)
(0 0 0)
(0 0 0)
(0 0 0)
(0 0 0)
(0 0 0)
(0 0 0)
(0 0 0)
(0 0 0)
(0 0 0)
(0 0 0)
(0 0 0)
(0 0 0)
(0 0 0)
(0 0 0)
(0 0 0)
(0 0 0)
(0 0 0)
(0 0 0)
(0 0 0)
(0 0 0)
(0 0 0)
(0 0 0)
(0 0 0)
(0 0 0)
(0 0 0)
(0 0 0)
(0 0 0)
(0 0 0)
(0 0 0)
(0 0 0)
(0 0 0)
(0 0 0)
(0 0 0)
(0 0 0)
(0 0 0)
(0 0 0)
(0 0 0)
(0 0 0)
(0 0 0)
(0 0 0)
(0 0 0)
(0 0 0)
(0 0 0)
(0 0 0)
(0 0 0)
(0 0 0)
(0 0 0)
(0 0 0)
(0 0 0)
(0 0 0)
(0 0 0)
(0 0 0)
(0 0 0)
(0 0 0)
(0 0 0)
(0 0 0)
(0 0 0)
(0 0 0)
(0 0 0)
(0 0 0)
(0 0 0)
(0 0 0)
(0 0 0)
(0 0 0)
(0 0 0)
(0 0 0)
(0 0 0)
(0 0 0)
(0 0 0)
(0 0 0)
(0 0 0)
(0 0 0)
(0 0 0)
(0 0 0)
(0 0 0)
(0 0 0)
(0 0 0)
(0 0 0)
(0 0 0)
(0 0 0)
(0 0 0)
(0 0 0)
(0 0 0)
(0 0 0)
(0 0 0)
(0 0 0)
(0 0 0)
(0 0 0)
(0 0 0)
(0 0 0)
(0 0 0)
(0 0 0)
(0 0 0)
(0 0 0)
(0 0 0)
(0 0 0)
(0 0 0)
(0 0 0)
(0 0 0)
(0 0 0)
(0 0 0)
(0 0 0)
(0 0 0)
(0 0 0)
(0 0 0)
(0 0 0)
(0 0 0)
(0 0 0)
(0 0 0)
(0 0 0)
(0 0 0)
(0 0 0)
(0 0 0)
(0 0 0)
(0 0 0)
(0 0 0)
(0 0 0)
(0 0 0)
(0 0 0)
(0 0 0)
(0 0 0)
(0 0 0)
(0 0 0)
(0 0 0)
(0 0 0)
(0 0 0)
(0 0 0)
(0 0 0)
(0 0 0)
(0 0 0)
(0 0 0)
(0 0 0)
(0 0 0)
(0 0 0)
(0 0 0)
(0 0 0)
(0 0 0)
(0 0 0)
(0 0 0)
(0 0 0)
(0 0 0)
(0 0 0)
(0 0 0)
(0 0 0)
(0 0 0)
(0 0 0)
(0 0 0)
(0 0 0)
(0 0 0)
(0 0 0)
(0 0 0)
(0 0 0)
(0 0 0)
(0 0 0)
(0 0 0)
(0 0 0)
(0 0 0)
(-0.007664032879 -0.07093440889 0)
(-0.008103979665 -0.07092624181 0)
(-0.00754322897 -0.077652735 0)
(-0.007988728186 -0.07764407098 0)
(-0.0134074674 -0.07040679879 0)
(-0.0133926679 -0.0695698163 0)
(-0.0151686099 -0.06953582252 0)
(-0.008097238624 -0.07050762107 0)
(-0.008978607407 -0.07049114154 0)
(-0.008992629286 -0.07132813915 0)
(-0.008056312638 -0.06799722841 0)
(-0.01332673808 -0.07712173951 0)
(-0.01344254383 -0.07630641019 0)
(-0.01522193144 -0.07626958781 0)
(-0.007980591964 -0.07722571074 0)
(-0.008871629277 -0.07720838195 0)
(-0.008887909282 -0.07804549123 0)
(-0.009006642847 -0.07216470907 0)
(-0.008124649698 -0.07218108406 0)
(-0.008168257722 -0.07469138567 0)
(-0.007727999888 -0.0746995588 0)
(-0.007720449151 -0.07428130386 0)
(-0.008160706229 -0.07427309186 0)
(-0.004641041689 -0.07475698759 0)
(-0.004623679391 -0.07454942737 0)
(-0.004851560002 -0.07454452882 0)
(-0.004864165311 -0.0747526872 0)
(-0.004564711839 -0.07141234689 0)
(-0.004801622467 -0.07140676709 0)
(-0.004809558268 -0.0716148218 0)
(-0.004576072413 -0.07162010162 0)
(-0.007219818448 -0.08393913539 0)
(-0.00811081688 -0.08392180736 0)
(-0.004557965365 -0.07120364671 0)
(-0.004796937552 -0.07119787123 0)
(-0.008063129928 -0.06841576987 0)
(-0.007623183898 -0.06842397583 0)
(-0.004330829398 -0.07141763443 0)
(-0.004319757622 -0.07120932954 0)
(-0.00443351329 -0.07812978607 0)
(-0.004426121843 -0.07770752177 0)
(-0.004646856768 -0.07770439582 0)
(-0.004869053192 -0.07770201936 0)
(-0.004878121486 -0.07812230625 0)
(-0.00487847685 -0.07496057902 0)
(-0.004659212713 -0.07496453208 0)
(-0.008175961715 -0.07510952094 0)
(-0.007735663488 -0.07511761706 0)
(-0.004467538899 -0.07496736513 0)
(-0.004447819545 -0.07476000633 0)
(-0.00398909108 -0.07813842914 0)
(-0.003984464076 -0.07771611108 0)
(-0.004206526134 -0.07771062557 0)
(-0.004346398629 -0.07162499615 0)
(-0.004427046408 -0.07455286251 0)
(-0.002298660071 -0.07323535366 0)
(-0.002071144728 -0.07324063406 0)
(-0.002059512314 -0.07303370142 0)
(-0.002285230596 -0.07302841708 0)
(-0.004673484972 -0.07307800423 0)
(-0.004879346271 -0.07307528423 0)
(-0.004884574764 -0.07328413061 0)
(-0.004682401873 -0.07328650662 0)
(-0.006384122792 -0.07305010356 0)
(-0.006391165051 -0.0734682128 0)
(-0.005955720907 -0.07347590335 0)
(-0.00594887381 -0.07305782922 0)
(-0.006413359008 -0.07472341437 0)
(-0.005977837102 -0.07473110643 0)
(-0.005973694253 -0.07452208335 0)
(-0.005970018734 -0.07431309008 0)
(-0.006405731264 -0.07430519983 0)
(-0.006355741204 -0.07137673724 0)
(-0.006362697383 -0.0717944203 0)
(-0.005926281968 -0.07180216864 0)
(-0.005918978128 -0.07138460903 0)
(-0.005941522014 -0.07263980379 0)
(-0.006377042408 -0.07263203396 0)
(-0.004661041236 -0.07287015388 0)
(-0.004870900479 -0.07286700606 0)
(-0.004594268201 -0.06973271956 0)
(-0.004808203906 -0.06972918129 0)
(-0.004813905778 -0.06993836853 0)
(-0.004602377674 -0.06994170439 0)
(-0.006328274613 -0.06970241963 0)
(-0.006335251208 -0.07012115248 0)
(-0.005898876187 -0.07012897782 0)
(-0.005891822586 -0.06971028536 0)
(-0.005912166887 -0.07096637861 0)
(-0.006348929963 -0.07095850682 0)
(-0.006307306385 -0.06844824441 0)
(-0.005870156768 -0.0684562404 0)
(-0.005884618754 -0.0692918681 0)
(-0.006321265942 -0.06928403746 0)
(-0.004584676496 -0.06952391913 0)
(-0.004801454514 -0.06952013111 0)
(-0.004382099315 -0.06973610677 0)
(-0.004368686251 -0.06952761404 0)
(-0.004394021616 -0.06994474519 0)
(-0.0064212155 -0.07514139108 0)
(-0.005986118261 -0.07514891931 0)
(-0.005981822157 -0.07494001589 0)
(-0.006352389594 -0.07644639907 0)
(-0.005915076404 -0.07643798423 0)
(-0.005966256796 -0.07620365316 0)
(-0.005990333477 -0.07598766347 0)
(-0.006425937487 -0.07598619313 0)
(-0.004598758237 -0.07646179462 0)
(-0.004676159257 -0.07622551448 0)
(-0.004883698174 -0.0762250567 0)
(-0.004811534667 -0.07646644702 0)
(-0.004490298998 -0.07640847746 0)
(-0.004542071508 -0.07621859274 0)
(-0.00241622283 -0.0765715689 0)
(-0.002408786326 -0.07636338779 0)
(-0.002618954578 -0.07636392905 0)
(-0.002626524897 -0.07657199088 0)
(-0.002337134652 -0.07491089634 0)
(-0.002553945184 -0.0749087802 0)
(-0.00256081921 -0.075117439 0)
(-0.002344778737 -0.0751191512 0)
(-0.004470021986 -0.07308044422 0)
(-0.004453041371 -0.07287310995 0)
(-0.002505763071 -0.0730102813 0)
(-0.002565518349 -0.07318146633 0)
(-0.002329976579 -0.07470263202 0)
(-0.002548362873 -0.0746999407 0)
(-0.002511483329 -0.07344681394 0)
(-0.002300051984 -0.07344672509 0)
(-0.004485154671 -0.07328835897 0)
(-0.002076394394 -0.07345056911 0)
(-0.002122566473 -0.07491211316 0)
(-0.00211401538 -0.07470442047 0)
(-0.01344069055 -0.08298111565 0)
(-0.01518220469 -0.08273573067 3.583799923e-13)
(-0.008094544437 -0.08308508689 0)
(-0.00898558175 -0.0830677581 0)
(-0.009876619063 -0.08305042931 0)
(-0.009909171511 -0.08472425905 0)
(-0.008904189287 -0.07888260051 0)
(-0.008061984427 -0.08141086833 0)
(-0.007170985995 -0.08142819636 0)
(-0.00715470599 -0.08059108709 0)
(-0.008045704422 -0.08057375905 0)
(-0.004497901272 -0.08148018221 0)
(-0.004481621268 -0.08064307293 0)
(-0.005372631364 -0.08062574467 0)
(-0.005388911369 -0.08146285395 0)
(-0.004886428355 -0.07854144108 0)
(-0.004441201521 -0.07854971084 0)
(-0.004631846892 -0.07391919598 0)
(-0.004855763039 -0.0739146468 0)
(-0.004844350877 -0.07412583939 0)
(-0.004611287313 -0.07413103321 0)
(-0.005525914767 -0.07390149708 0)
(-0.00552813171 -0.07411149111 0)
(-0.005304837767 -0.07411583371 0)
(-0.005305067306 -0.07390563651 0)
(-0.005540179762 -0.07473899561 0)
(-0.005317701565 -0.07474328344 0)
(-0.005311385158 -0.07453449711 0)
(-0.005535260804 -0.07453006541 0)
(-0.003995974472 -0.07855836957 0)
(-0.003606875624 -0.08149751077 0)
(-0.003590595619 -0.08066040149 0)
(-0.004554430062 -0.06889906341 0)
(-0.004327354397 -0.06890375182 0)
(-0.00431434613 -0.06869587355 0)
(-0.004544858232 -0.06869088493 0)
(-0.004591389891 -0.07057171836 0)
(-0.004573262213 -0.07078300266 0)
(-0.004344389379 -0.0707878816 0)
(-0.004378956615 -0.07057511072 0)
(-0.004635937455 -0.07669993048 0)
(-0.004347637978 -0.07674832264 0)
(-0.006190031187 -0.0768420149 0)
(-0.005743754349 -0.07685069404 0)
(-0.005778557641 -0.07665826105 0)
(-0.006214797343 -0.07809747761 0)
(-0.005769173922 -0.07810575508 0)
(-0.005760804414 -0.07768739938 0)
(-0.006206536916 -0.07767873083 0)
(-0.005545562267 -0.07494776121 0)
(-0.005324869575 -0.07495185873 0)
(-0.005561533526 -0.07557499493 0)
(-0.005346200371 -0.07557867705 0)
(-0.005339954164 -0.0753695004 0)
(-0.005556764043 -0.07536575066 0)
(-0.004714324122 -0.07558793184 0)
(-0.004697457449 -0.07537985634 0)
(-0.004908391321 -0.07537676541 0)
(-0.004921043073 -0.07558531184 0)
(-0.002131637816 -0.07511975683 0)
(-0.002390509148 -0.07615938487 0)
(-0.004529593925 -0.075590202 0)
(-0.004510209271 -0.07538225325 0)
(-0.003238665301 -0.07573712937 0)
(-0.003226035483 -0.07553111074 0)
(-0.003433197541 -0.07552027512 0)
(-0.003497374118 -0.07568620103 0)
(-0.002651017675 -0.07816639662 0)
(-0.002643270479 -0.07774763987 0)
(-0.003089909339 -0.07773817577 0)
(-0.003096956462 -0.0781573351 0)
(-0.002652995388 -0.07677388966 0)
(-0.002442188301 -0.07677409983 0)
(-0.004618881967 -0.0722449464 0)
(-0.004400662973 -0.07224884023 0)
(-0.004382574893 -0.07204036063 0)
(-0.004604280113 -0.07203612672 0)
(-0.004388926022 -0.07414893229 0)
(-0.00437135377 -0.07397377633 0)
(-0.002277507071 -0.0723638775 0)
(-0.002218908834 -0.0721941869 0)
(-0.002227872085 -0.07262727255 0)
(-0.005516147559 -0.07306527243 0)
(-0.005519667554 -0.07327426873 0)
(-0.005304954984 -0.073277861 0)
(-0.005301473114 -0.07306882506 0)
(-0.005305972191 -0.0736961652 0)
(-0.005523636697 -0.07369235994 0)
(-0.004663166588 -0.07370683831 0)
(-0.004871771484 -0.07370379268 0)
(-0.004840322795 -0.07224071763 0)
(-0.004850846675 -0.07244984999 0)
(-0.004633280883 -0.07245373112 0)
(-0.005499137132 -0.07222860521 0)
(-0.005503486484 -0.07243824661 0)
(-0.005286522593 -0.07244207714 0)
(-0.005281085327 -0.0722324958 0)
(-0.005296909379 -0.07286016023 0)
(-0.005512242534 -0.0728564781 0)
(-0.00456439081 -0.06910703984 0)
(-0.004340910995 -0.06911142495 0)
(-0.004400241542 -0.07036357054 0)
(-0.004604248214 -0.0703608866 0)
(-0.004927832858 -0.07579443903 0)
(-0.004724912909 -0.07579640171 0)
(-0.005563660608 -0.07578436837 0)
(-0.005349028068 -0.07578807577 0)
(-0.005475421763 -0.07644517323 0)
(-0.0052540708 -0.07645142282 0)
(-0.005313318793 -0.07621592357 0)
(-0.005530808872 -0.07621114931 0)
(-0.003307279905 -0.07655365628 0)
(-0.00327631769 -0.07635499541 0)
(-0.003525830612 -0.07634041897 0)
(-0.003620794975 -0.0765152367 0)
(-0.003453980289 -0.0759467131 0)
(-0.00324417147 -0.07594585367 0)
(-0.004547664721 -0.07579759286 0)
(-0.003193935135 -0.07489372774 0)
(-0.003256381729 -0.07506209883 0)
(-0.002998079651 -0.07511294147 0)
(-0.002987329617 -0.07490498039 0)
(-0.003019122513 -0.07574015435 0)
(-0.003010006025 -0.07553258935 0)
(-0.00237217195 -0.07574429579 0)
(-0.002362142943 -0.07553600952 0)
(-0.002576112572 -0.07553581563 0)
(-0.002584567545 -0.07574436589 0)
(-0.00441838946 -0.07245732687 0)
(-0.002380905677 -0.07265517961 0)
(-0.002312928422 -0.07407522477 0)
(-0.002532958737 -0.0740722681 0)
(-0.002537413824 -0.07428194634 0)
(-0.002317756768 -0.07428489574 0)
(-0.002973181062 -0.07469906908 0)
(-0.003131177166 -0.07472454588 0)
(-0.002309797775 -0.0738652485 0)
(-0.002531963952 -0.0738613168 0)
(-0.004473882549 -0.07370795237 0)
(-0.005482141071 -0.07139267673 0)
(-0.005485612356 -0.07160116833 0)
(-0.005265153706 -0.0716053002 0)
(-0.005260750788 -0.07139690451 0)
(-0.005275607668 -0.07202283745 0)
(-0.005494397457 -0.07201889361 0)
(-0.00482968076 -0.07203150978 0)
(-0.004810936349 -0.07056768202 0)
(-0.004803086121 -0.07077802742 0)
(-0.005469904697 -0.07055548881 0)
(-0.005472383221 -0.07076493322 0)
(-0.00525281808 -0.07076900882 0)
(-0.005251465594 -0.07055946472 0)
(-0.005256997507 -0.07118791275 0)
(-0.005478077498 -0.0711837299 0)
(-0.004129412965 -0.07142170714 0)
(-0.004111232009 -0.07121525192 0)
(-0.004093743491 -0.07101800153 0)
(-0.004321427058 -0.07099957109 0)
(-0.004560088953 -0.07099384054 0)
(-0.004678381467 -0.07517197938 0)
(-0.004488754524 -0.07517446145 0)
(-0.004589733989 -0.07182777271 0)
(-0.004364158377 -0.07183239306 0)
(-0.004167660828 -0.07183559218 0)
(-0.004147622543 -0.07162843407 0)
(-0.004610910133 -0.0743410388 0)
(-0.004406928311 -0.07434660054 0)
(-0.002159634383 -0.07202252576 0)
(-0.002060395187 -0.07173129835 0)
(-0.005456728372 -0.06971796911 0)
(-0.00546052734 -0.06992731004 0)
(-0.005243795979 -0.06993109716 0)
(-0.005239841487 -0.06972175925 0)
(-0.005249763179 -0.07034992743 0)
(-0.005467076999 -0.07034609009 0)
(-0.004816494862 -0.07035749787 0)
(-0.004780068641 -0.06889448074 0)
(-0.004787113202 -0.06910270836 0)
(-0.00544121206 -0.06888212854 0)
(-0.005444995149 -0.06909065297 0)
(-0.005226905219 -0.06909458319 0)
(-0.005222656314 -0.06888610672 0)
(-0.005235615583 -0.06951246551 0)
(-0.005452851642 -0.06950862969 0)
(-0.004171432859 -0.06973934808 0)
(-0.004154381932 -0.06953119837 0)
(-0.004137092967 -0.06932320887 0)
(-0.004354794842 -0.06931932509 0)
(-0.004574559033 -0.06931528452 0)
(-0.004606875745 -0.07015099283 0)
(-0.004401956124 -0.07015373342 0)
(-0.004201672096 -0.0701560338 0)
(-0.004187754334 -0.06994758977 0)
(-0.004716653894 -0.07600772745 0)
(-0.004919737685 -0.07600618944 0)
(-0.005128898581 -0.076003133 0)
(-0.005096921922 -0.07622090995 0)
(-0.005031928288 -0.07645897137 0)
(-0.003849786286 -0.0765098498 0)
(-0.003778040373 -0.07629611261 0)
(-0.003974443382 -0.07653325227 0)
(-0.004557134173 -0.07600810707 0)
(-0.002593075112 -0.07595202052 0)
(-0.002381470315 -0.07595201284 0)
(-0.003025755691 -0.07594842888 0)
(-0.003080895679 -0.07655949812 0)
(-0.003052295593 -0.07635989671 0)
(-0.004283801887 -0.07308270446 0)
(-0.00426438084 -0.0728758844 0)
(-0.004245706631 -0.07266846638 0)
(-0.004435848638 -0.07266546864 0)
(-0.004647400827 -0.07266217121 0)
(-0.002253743266 -0.07282875513 0)
(-0.002442851808 -0.07283001713 0)
(-0.00267121007 -0.07347147917 0)
(-0.0027328838 -0.07364110996 0)
(-0.002523671958 -0.0736533468 0)
(-0.002304157898 -0.07365644901 0)
(-0.004682157967 -0.07349596507 0)
(-0.00449204803 -0.07349721187 0)
(-0.004323427975 -0.07349605706 0)
(-0.004303888991 -0.07329017279 0)
(-0.002092364467 -0.07407854188 0)
(-0.002087142345 -0.0738694231 0)
(-0.00407154225 -0.06849242542 0)
(-0.004087134381 -0.0687005646 0)
(-0.003888364344 -0.06870431357 0)
(-0.003871174957 -0.06849624435 0)
(-0.004103144373 -0.06890819002 0)
(-0.003905498106 -0.06891172266 0)
(-0.004186512844 -0.07057675297 0)
(-0.004078224701 -0.07084323348 0)
(-0.004052683066 -0.07055609601 0)
(-0.005330716927 -0.07666852644 0)
(-0.005103144993 -0.07667489702 0)
(-0.005304883629 -0.07727619178 0)
(-0.005080509651 -0.07727899955 0)
(-0.005073167969 -0.07706949414 0)
(-0.005298754821 -0.07706705174 0)
(-0.004416865155 -0.07727634772 0)
(-0.004403937099 -0.07705839389 0)
(-0.004621217263 -0.07706622594 0)
(-0.00463360399 -0.07727874489 0)
(-0.004893565254 -0.07516841684 0)
(-0.005112743098 -0.07516442657 0)
(-0.005123376815 -0.07537320673 0)
(-0.005132225028 -0.07558217719 0)
(-0.003208911233 -0.0753261908 0)
(-0.003366950541 -0.0753522891 0)
(-0.004210421811 -0.07727413929 0)
(-0.004221502549 -0.07704210501 0)
(-0.003537805189 -0.07730394544 0)
(-0.003541873358 -0.07709032855 0)
(-0.003775262089 -0.07707645465 0)
(-0.003766222988 -0.07729366883 0)
(-0.003630514489 -0.07673620901 0)
(-0.003390535155 -0.07673659757 0)
(-0.004207682649 -0.07225189317 0)
(-0.004188082095 -0.07204344298 0)
(-0.003961222754 -0.06953425478 0)
(-0.003942418184 -0.06932633365 0)
(-0.003979916838 -0.06974229475 0)
(-0.004119881549 -0.06911560682 0)
(-0.003923658436 -0.0691189173 0)
(-0.004207059787 -0.07036526604 0)
(-0.004035598175 -0.07036439986 0)
(-0.004017231131 -0.07015837612 0)
(-0.003998575928 -0.0699503354 0)
(-0.005136491325 -0.07579154794 0)
(-0.003265322603 -0.07614863382 0)
(-0.003481618935 -0.07614687775 0)
(-0.003686307192 -0.07613784054 0)
(-0.003612193806 -0.07597276911 0)
(-0.003002772132 -0.07532362638 0)
(-0.002785078672 -0.07532494288 0)
(-0.002779437927 -0.07511489874 0)
(-0.00277176522 -0.07490637216 0)
(-0.004226812742 -0.07246035251 0)
(-0.002764195472 -0.07448733969 0)
(-0.002754405478 -0.07427994337 0)
(-0.00296211295 -0.07426855259 0)
(-0.003024122344 -0.07443584311 0)
(-0.002740938312 -0.07407366874 0)
(-0.002899327978 -0.07409898231 0)
(-0.002766541478 -0.07469737011 0)
(-0.002793365602 -0.07380905252 0)
(-0.004341329256 -0.07368653156 0)
(-0.006572738263 -0.01331509109 6.86395385e-14)
(-0.00424369957 -0.008186123369 4.217459715e-14)
(-0.01385612672 -0.03302643772 1.705857677e-13)
(-0.0115519142 -0.02600323112 1.342259637e-13)
(-0.01145565667 -0.02639902932 1.330602295e-13)
(-0.01583675831 -0.04011503913 2.073202721e-13)
(-0.01883692435 -0.05889016434 3.046035646e-13)
(-0.01839327614 -0.05331971504 2.757516437e-13)
(-0.01849639249 -0.05485132969 2.770006446e-13)
(-0.01869643348 -0.06345692157 3.282096817e-13)
(-0.01679141151 -0.06888498594 3.560901574e-13)
(-0.01684141812 -0.07062591974 3.56506491e-13)
(-0.01513925477 -0.06786239734 0)
(-0.01336381822 -0.06789638129 0)
(-0.01159059789 -0.06793032213 0)
(-0.01247685813 -0.06791335852 0)
(-0.007406528866 -0.01646292486 7.741030039e-14)
(-0.004965511043 -0.01051241925 4.94049246e-14)
(-0.01476484358 -0.03857386449 1.817018758e-13)
(-0.01247706993 -0.03079632059 1.449812492e-13)
(-0.01258603458 -0.03184395691 1.467437283e-13)
(-0.0119411568 -0.02814289893 1.386113446e-13)
(-0.01669319769 -0.04632790757 2.183392356e-13)
(-0.01938198078 -0.06630122946 3.126804371e-13)
(-0.01906118184 -0.06048627792 2.852301728e-13)
(-0.01907247377 -0.06207874885 2.865208071e-13)
(-0.01860662958 -0.05641330518 2.783467901e-13)
(-0.01910906574 -0.0709378191 3.345101973e-13)
(-0.01693812891 -0.07595906207 3.579914143e-13)
(-0.01685047218 -0.07763834523 3.581301922e-13)
(-0.01689298861 -0.07237373149 3.569367024e-13)
(-0.01526129815 -0.07456180363 0)
(-0.01348351047 -0.07459089353 0)
(-0.01346772836 -0.07375338561 0)
(-0.01170787498 -0.07462464797 0)
(-0.01169229105 -0.07378733068 0)
(-0.01257971772 -0.07377034438 0)
(-0.01259541829 -0.0746076594 0)
(-0.01164756984 -0.07127778974 0)
(-0.01253449105 -0.07126081326 0)
(-0.01254932112 -0.07209736731 0)
(-0.0116622055 -0.07211434756 0)
(-0.008138748583 -0.07301804128 0)
(-0.007698607392 -0.07302621214 0)
(-0.007691603258 -0.07260806326 0)
(-0.008131665931 -0.07259985503 0)