/*--------------------------------*- C++ -*----------------------------------*\
| =========                 |                                                 |
| \\      /  F ield         | OpenFOAM: The Open Source CFD Toolbox           |
|  \\    /   O peration     | Version:  v2012                                 |
|   \\  /    A nd           | Website:  www.openfoam.com                      |
|    \\/     M anipulation  |                                                 |
\*---------------------------------------------------------------------------*/
FoamFile
{
    version     2.0;
    format      ascii;
    class       volVectorField;
    location    "1";
    object      U;
}
// * * * * * * * * * * * * * * * * * * * * * * * * * * * * * * * * * * * * * //

dimensions      [0 1 -1 0 0 0 0];


internalField   nonuniform List<vector> 
3259
(
(101.4359609 -0.2147863652 7.286737962e-21)
(101.3676909 -0.6496654133 1.150166382e-19)
(101.2352856 -1.101597227 -2.317629752e-19)
(101.0180595 -1.606496624 -5.599605195e-22)
(100.6381624 -1.97770561 -1.837201695e-21)
(100.1961444 -2.564254572 0)
(99.66545823 -3.304013504 2.587458485e-22)
(98.90986544 -3.980666052 0)
(97.93257337 -4.883712212 -6.563902277e-19)
(96.67389872 -6.029899878 4.112800748e-20)
(94.9700425 -7.679948033 0)
(92.96267314 -9.52477046 5.135183266e-19)
(101.8602407 -0.2309761798 0)
(101.8049913 -0.6998417747 0)
(101.6984286 -1.184965246 0)
(101.52285 -1.723604756 0)
(101.1945391 -2.150346355 0)
(100.8415859 -2.789286486 0)
(100.4455863 -3.582046288 0)
(99.85213563 -4.301110975 0)
(99.10292783 -5.245093238 5.092161357e-19)
(98.15473411 -6.447107497 0)
(96.92371027 -8.241002589 -9.806538693e-19)
(95.66398683 -10.80729293 7.170573674e-19)
(102.3091966 -0.2403552849 0)
(102.2677438 -0.7291439097 0)
(102.1891961 -1.233060386 0)
(102.0568467 -1.782605768 0)
(101.7797276 -2.238899607 0)
(101.5240218 -2.894649647 0)
(101.2519867 -3.677737316 -5.328654813e-20)
(100.8190087 -4.425580374 -9.026249503e-19)
(100.2775754 -5.35443001 9.429852947e-19)
(99.6323045 -6.481132172 2.240797806e-19)
(98.96263209 -8.04048724 -2.10941692e-19)
(98.66948638 -10.38753752 -5.833312568e-20)
(102.7701842 -0.243294619 0)
(102.7416492 -0.7381754143 0)
(102.6892995 -1.246952131 0)
(102.5971997 -1.791028807 0)
(102.3679669 -2.258039201 0)
(102.1966181 -2.901311421 0)
(102.0251119 -3.642624792 0)
(101.7289735 -4.385398666 1.854985425e-19)
(101.3491097 -5.260352616 -3.910731895e-19)
(100.9134836 -6.239834583 8.700509646e-20)
(100.5545218 -7.413929522 -7.687018709e-19)
(97.52439372 -8.376568782 2.429895968e-20)
(103.2314341 -0.2406855655 0)
(103.2139873 -0.7297180609 0)
(103.1835244 -1.23125677 0)
(103.1252895 -1.756709132 0)
(102.9390495 -2.219153084 0)
(102.8349396 -2.828686026 0)
(102.740102 -3.505180888 0)
(102.5340116 -4.205490491 1.467829514e-19)
(102.2635998 -4.999037494 1.636560092e-19)
(101.9234809 -5.814542222 1.039032322e-18)
(101.705705 -6.66797819 -9.196649151e-19)
(94.36993197 -6.574560178 -6.591407032e-19)
(103.6828603 -0.2335987008 0)
(103.6743883 -0.7072312278 0)
(103.6609397 -1.191857793 0)
(103.6290601 -1.688721351 0)
(103.4784067 -2.134140325 0)
(103.4228411 -2.69704805 0)
(103.3776944 -3.300076014 0)
(103.2237588 -3.919428626 0)
(102.9979449 -4.604485871 -1.170180845e-19)
(102.6528071 -5.271141714 -3.977153308e-19)
(102.3586042 -5.916176954 -6.25114211e-19)
(95.04442289 -5.976615162 -2.543108543e-20)
(104.1166805 -0.2230949234 0)
(104.1150461 -0.6741365232 0)
(104.1138534 -1.134697842 0)
(104.1008388 -1.596798944 0)
(103.9771941 -2.016500062 0)
(103.9525817 -2.526917654 0)
(103.9334601 -3.057200217 0)
(103.8013372 -3.591936923 0)
(103.5793426 -4.149128693 0)
(103.2017883 -4.683107942 0)
(102.1615694 -5.106894734 2.409990186e-19)
(97.36593384 -5.404464688 0)
(104.5273159 -0.2102011258 0)
(104.5304539 -0.6337177353 0)
(104.5370643 -1.065420314 0)
(104.5360133 -1.489924463 0)
(104.4314335 -1.878788355 0)
(104.4229613 -2.3356337 0)
(104.4113277 -2.800297246 0)
(104.2810797 -3.254624692 0)
(104.0395051 -3.706921705 0)
(103.6260307 -4.123218824 0)
(102.1684654 -4.395321418 0)
(98.25393462 -4.673115643 0)
(104.9111572 -0.1958575218 0)
(104.9172103 -0.5889661516 0)
(104.9277219 -0.9890690073 0)
(104.93267 -1.37550272 0)
(104.8406947 -1.731273299 0)
(104.8368412 -2.136878644 0)
(104.8188819 -2.542989444 0)
(104.6791481 -2.926337988 0)
(104.4065855 -3.295323605 0)
(103.9473324 -3.623244055 0)
(102.1745326 -3.813227856 0)
(98.73450073 -4.056560809 0)
(105.2662737 -0.1808543202 0)
(105.2736953 -0.5423903107 0)
(105.2849672 -0.9098748858 0)
(105.2910825 -1.259200472 0)
(105.2067936 -1.581729214 0)
(105.1991941 -1.940208027 0)
(105.1656601 -2.293613334 0)
(105.0102549 -2.61761345 0)
(104.7026062 -2.920782791 0)
(104.195297 -3.183015829 0)
(102.1684271 -3.319781057 0)
(99.06080214 -3.534261652 0)
(105.5921347 -0.165809262 0)
(105.599705 -0.4959242131 0)
(105.6093955 -0.8311055074 0)
(105.6130481 -1.145244599 0)
(105.5325898 -1.435713441 0)
(105.5157164 -1.751743686 0)
(105.4616004 -2.05773793 0)
(105.2865682 -2.333548049 0)
(104.9440465 -2.584586974 0)
(104.389973 -2.797256731 0)
(102.1620305 -2.897865033 0)
(99.28513818 -3.089153866 0)
(105.8892898 -0.1511835357 0)
(105.8960793 -0.4509754537 0)
(105.9025337 -0.755110939 0)
(105.9011716 -1.036604989 0)
(105.8216759 -1.29696239 0)
(105.7920159 -1.575121846 0)
(105.7151474 -1.839947695 0)
(105.5184229 -2.075804561 0)
(105.1431985 -2.285463468 0)
(104.5447182 -2.460031826 0)
(102.1619168 -2.535892164 0)
(99.43962783 -2.708474261 0)
(106.1590308 -0.1373085167 0)
(106.1643547 -0.408528325 0)
(106.1664588 -0.6835015618 0)
(106.1583924 -0.935245223 0)
(106.0777797 -1.167857333 0)
(106.0332887 -1.412582178 0)
(105.932867 -1.642151585 0)
(105.714182 -1.844582563 0)
(105.3092586 -2.02115243 0)
(104.6689744 -2.165901515 0)
(102.1708122 -2.22477562 0)
(99.54582704 -2.382271092 0)
(106.403137 -0.1244101644 0)
(106.4065125 -0.3692359952 0)
(106.4035684 -0.6173186333 0)
(106.387763 -0.8423453123 0)
(106.3045978 -1.049748257 0)
(106.2442753 -1.26520318 0)
(106.1204629 -1.46473329 0)
(105.880523 -1.639078392 0)
(105.4491213 -1.788990925 0)
(104.7696963 -1.91004261 0)
(102.1892423 -1.957163037 0)
(99.61834672 -2.102459086 0)
(106.6237079 -0.1126295961 0)
(106.6248129 -0.3334922059 0)
(106.6164358 -0.5571721425 0)
(106.5923368 -0.7585202778 0)
(106.5056138 -0.9432931728 0)
(106.429163 -1.133299463 0)
(106.2827178 -1.307318014 0)
(106.0227727 -1.458012133 0)
(105.5679403 -1.58629447 0)
(104.8520512 -1.688295635 0)
(102.2164793 -1.727200026 0)
(99.6672031 -1.862620059 0)
(106.8230425 -0.1020435276 0)
(106.8216751 -0.3014966238 0)
(106.8077034 -0.5033549422 0)
(106.7750916 -0.6839860134 0)
(106.6841219 -0.8486424176 0)
(106.5916997 -1.016669515 0)
(106.4237152 -1.169087907 0)
(106.1452583 -1.299858539 0)
(105.6696694 -1.410485808 0)
(104.9199603 -1.497053566 0)
(102.251221 -1.530181845 0)
(99.69940712 -1.657594822 0)
(107.0035 -0.09268462289 0)
(106.999545 -0.2733173168 0)
(106.9799674 -0.4559482286 0)
(106.9388474 -0.6187130825 0)
(106.8431553 -0.765652846 0)
(106.73519 -0.9148384607 0)
(106.5469115 -1.049036346 0)
(106.2515098 -1.163061067 0)
(105.757409 -1.259239 0)
(104.9764381 -1.333258767 0)
(102.2919622 -1.362344612 0)
(99.71995287 -1.483259164 0)
(107.1675051 -0.08455456783 0)
(107.1609012 -0.2489331584 0)
(107.1357956 -0.4148933632 0)
(107.0863151 -0.5625079234 0)
(106.9855115 -0.6940097492 0)
(106.8625774 -0.8272041323 0)
(106.6551795 -0.945986957 0)
(106.3444794 -1.046137436 0)
(105.8336763 -1.130489758 0)
(105.0238722 -1.194312591 0)
(102.3372202 -1.220609939 0)
(99.7324245 -1.336198269 0)
(107.3172594 -0.07764201602 0)
(107.3079943 -0.2282804542 0)
(107.2774946 -0.3800498729 0)
(107.2198895 -0.5151515103 0)
(107.1137562 -0.6333058479 0)
(106.9765218 -0.7531177267 0)
(106.7510723 -0.8585579479 0)
(106.4265603 -0.947808208 0)
(105.9005424 -1.022450667 0)
(105.0641875 -1.078026474 0)
(102.3856471 -1.102439146 0)
(99.73945884 -1.213571157 0)
(107.4556061 -0.07191081148 0)
(107.4436401 -0.2112455318 0)
(107.4078562 -0.3512266302 0)
(107.3423721 -0.4762359936 0)
(107.2302974 -0.5831148045 0)
(107.0794344 -0.6918409792 0)
(106.837262 -0.7861299642 0)
(106.4997118 -0.8667687883 0)
(105.9597519 -0.93356499 0)
(105.098952 -0.9825565575 0)
(102.4361113 -1.005769524 0)
(99.74306196 -1.113126082 0)
(107.5827135 -0.06737778734 0)
(107.5681598 -0.19781277 0)
(107.5272886 -0.3282780395 0)
(107.454247 -0.4459249487 0)
(107.3373469 -0.5429140865 0)
(107.1734751 -0.6426664567 0)
(106.9160657 -0.728865574 0)
(106.5657747 -0.8017386951 0)
(106.0128644 -0.8624903183 0)
(105.1294898 -0.9063755597 0)
(102.4877226 -0.9289453573 0)
(99.74479613 -1.033077416 0)
(107.708471 -0.06387553021 0)
(107.6909551 -0.1876475102 0)
(107.6448053 -0.3108891247 0)
(107.563557 -0.421976826 0)
(107.4375616 -0.51247666 0)
(107.2605246 -0.6054029712 0)
(106.9886131 -0.686013599 0)
(106.6265768 -0.7519844163 0)
(106.0612915 -0.8081707461 0)
(105.1569522 -0.8482679178 0)
(102.5398065 -0.8706620869 0)
(99.74589498 -0.972011113 0)
(107.8050668 -0.06188396027 0)
(107.7856259 -0.1815960683 0)
(107.7354032 -0.3000840342 0)
(107.6488389 -0.4096542444 0)
(107.5305477 -0.4910756455 0)
(107.3422048 -0.5793778226 0)
(107.0564894 -0.6565321719 0)
(106.6834645 -0.7168211678 0)
(106.1062809 -0.7697595694 0)
(105.1823666 -0.8072684485 0)
(102.5919148 -0.82994036 0)
(99.74735797 -0.9288540091 0)
(107.9870127 -0.05973724766 0)
(107.9634863 -0.1762661429 0)
(107.9054488 -0.2910331021 0)
(107.8049272 -0.3947371838 0)
(107.6165273 -0.4794478611 0)
(107.4163509 -0.5647833064 0)
(107.1184316 -0.6405512724 0)
(106.7376572 -0.6956417131 0)
(106.1489344 -0.7465359754 0)
(105.2067036 -0.7826352063 0)
(102.6436693 -0.8061113372 0)
(99.74992464 -0.9029783158 0)
(92.82568681 -9.430302638 -5.229515261e-19)
(95.39685463 -10.62243116 8.517765528e-19)
(94.51484694 -7.466852865 0)
(92.92562096 -9.182752922 -6.219672018e-19)
(96.41560281 -8.171958025 0)
(95.41416788 -10.32878885 -4.924629343e-19)
(93.19815693 -9.342035668 4.671724292e-19)
(94.02278448 -10.06542786 0)
(91.38986456 -11.22618793 4.935136407e-19)
(91.00385533 -10.4510745 0)
(98.65855601 -10.46168509 6.844754154e-19)
(90.95970934 -10.39570385 4.973019192e-19)
(90.2458272 -10.40074087 -5.237231636e-19)
(82.39534496 -10.2765002 1.089000391e-18)
(91.44808012 -11.28988742 0)
(94.18748262 -10.14809926 4.662808694e-19)
(90.06207803 -11.21814003 -8.850761213e-19)
(44.15916797 -7.576212757 1.375323588e-19)
(90.27524781 -10.45282769 1.599853908e-18)
(90.01172465 -11.15450407 -1.467170634e-18)
(85.47396191 -28.81159314 4.223792868e-19)
(91.41331413 -10.85108032 5.484150802e-19)
(92.95770841 -10.48418725 5.541380628e-19)
(93.44560648 -10.76524912 -2.634144592e-19)
(92.38069346 -10.09807894 0)
(92.80762068 -10.38713989 -1.176306214e-21)
(91.37072033 -10.78367899 -1.640458737e-18)
(90.77812323 -10.08454734 1.115350952e-18)
(91.85318554 -9.717931455 0)
(92.24586723 -10.00196304 5.883813624e-19)
(91.72477959 -9.622219831 0)
(90.71634306 -10.03878408 -5.518658691e-19)
(90.31742345 -10.07876503 -5.820485319e-19)
(90.37962575 -10.12114864 -5.848026121e-19)
(93.62299341 -10.85299524 -5.220210123e-19)
(94.1718049 -11.07476629 1.14234729e-18)
(92.76529057 -12.13172085 3.115678159e-18)
(92.6683085 -12.39185974 -5.35237948e-18)
(88.43821753 -24.41914018 3.264827093e-19)
(86.92752187 -27.03538959 1.278348041e-19)
(90.63028679 -10.7576659 2.296263074e-18)
(77.63271437 -27.01997502 5.026854239e-19)
(86.37754894 -27.24519191 1.950391839e-19)
(79.14532312 -27.18060406 5.434430524e-19)
(90.66666029 -10.83330383 0)
(86.37568884 -28.80231837 0)
(90.21322203 -27.82116444 -6.087712957e-20)
(98.48308679 -8.150396012 4.169193116e-19)
(98.23107642 -9.936846091 -9.882080067e-20)
(95.79338654 -10.39383448 0)
(96.96034829 -10.80072309 -2.244837986e-20)
(82.07006888 -9.264277808 0)
(80.00094417 -9.922453905 -1.067296188e-18)
(91.3279182 -11.09151839 -4.741303723e-19)
(92.68720984 -10.92198925 4.437608076e-19)
(92.91874068 -11.09021537 0)
(47.90277497 -7.865649395 4.939039722e-19)
(72.48737541 -11.8183182 4.021233859e-19)
(90.08921175 -9.841913201 5.560127041e-19)
(90.39032777 -10.25646456 -5.334622687e-19)
(91.90884169 -11.31243072 -4.487813955e-18)
(94.23029599 -11.19033614 3.694774447e-18)
(94.68240118 -11.47860832 0)
(93.00376993 -11.14418037 8.739686094e-19)
(93.29566175 -11.29075288 0)
(91.73057636 -11.53025486 -7.515645665e-19)
(90.39524204 -27.51120516 -8.092845345e-20)
(90.34959554 -11.48511499 -3.942540087e-21)
(61.25456954 -20.60127001 -1.380691962e-18)
(86.42453894 -19.89131312 0)
(88.42064279 -23.92439622 1.078780731e-18)
(87.71500006 -11.88204527 0)
(90.47278282 -10.61500685 1.098303836e-18)
(90.0434473 -11.10666029 1.000820383e-18)
(92.4052501 -10.71627804 0)
(92.61133875 -10.86897402 -3.412003047e-19)
(91.39127856 -11.03123815 -4.951657771e-19)
(91.24604797 -10.64233827 1.055734684e-18)
(92.14483984 -10.50947705 4.750072077e-19)
(92.33960161 -10.6538085 -3.672223789e-22)
(90.13327467 -9.90580987 -5.651082618e-19)
(90.4894351 -10.25295803 5.635544459e-19)
(91.82232066 -11.61734731 1.269017411e-18)
(93.40293942 -11.3258296 -6.451212251e-19)
(93.64847399 -11.34940941 2.928200956e-18)
(64.74700042 -20.30808803 3.205454931e-18)
(63.00092281 -20.6407291 5.636589741e-20)
(90.41433393 -11.61286359 -2.849250264e-19)
(66.15907319 -22.57922334 0)
(70.86109583 -22.84421104 6.524784476e-19)
(87.998202 -26.09546147 2.410689659e-19)
(90.54231154 -10.63089679 -5.484736142e-19)
(78.09427511 -27.38731015 -6.905818416e-18)
(84.14590831 -27.61659958 0)
(66.64927365 -22.92147898 -3.325837648e-19)
(83.07647439 -27.59878933 -5.540718396e-21)
(90.18318832 -11.05819804 -2.213951808e-19)
(91.88507902 -10.30794176 4.771031077e-19)
(92.07949777 -10.45230798 -4.735898012e-19)
(91.18475672 -10.60780031 -5.220403221e-19)
(90.93111001 -10.24343876 0)
(91.65101643 -10.10783485 4.804859537e-19)
(91.82452271 -10.24940507 -9.512973414e-19)
(88.94138618 -10.29522372 3.105700661e-18)
(88.9631641 -10.25668956 -1.184489593e-18)
(90.24433743 -10.3494231 -6.389035494e-19)
(90.13671467 -11.296967 0)
(90.32121398 -10.5161828 -5.418071538e-19)
(88.99945584 -10.45214724 6.416996105e-19)
(88.95510627 -10.35733683 -3.814887101e-18)
(89.98870254 -11.09006433 -5.70673499e-19)
(91.40783755 -9.920449699 0)
(91.59291208 -10.05448092 4.844654261e-19)
(90.91670368 -10.21317909 6.667752593e-20)
(90.5357517 -9.87351763 0)
(91.16002753 -9.717335899 -9.899415625e-19)
(91.3451283 -9.865145367 4.936480943e-19)
(89.65699055 -10.08913019 1.21409499e-18)
(89.57815929 -10.04220907 -1.808070567e-18)
(90.25060013 -10.02967568 5.729550032e-19)
(90.43356094 -10.16224503 5.885387253e-19)
(89.77881748 -10.16009048 1.557396092e-18)
(89.72421648 -10.12567815 -9.210703447e-19)
(91.71832821 -11.75951804 0)
(92.81638091 -11.54828164 1.284116207e-18)
(92.87728611 -11.69950423 0)
(36.3537507 -13.3503514 -1.222796546e-18)
(90.06581116 -12.01188346 -6.368041313e-19)
(88.17906408 -25.77683903 -2.634899758e-19)
(72.14154255 -22.66971007 -4.470206919e-19)
(74.5471663 -22.25428918 -1.227483495e-18)
(89.35700769 -10.66759029 -1.297737065e-18)
(89.3481158 -10.59820312 0)
(90.6064234 -10.6947468 0)
(78.22470276 -27.20304911 5.248309418e-20)
(73.7252216 -26.0561143 1.517954371e-18)
(74.47375258 -26.07304451 0)
(80.93095349 -27.45645394 4.458162259e-20)
(90.6781615 -10.91248056 2.942590345e-19)
(89.42419053 -10.82118326 0)
(89.3961482 -10.7480041 -1.318881668e-18)
(88.7026875 -28.7470384 -6.738680664e-20)
(88.18214542 -9.686891015 0)
(88.19099098 -9.749492595 6.873475386e-19)
(88.25038483 -10.13143919 0)
(90.29870852 -10.2935977 0)
(89.08977396 -10.23534709 -1.081820014e-18)
(89.2894655 -10.21621898 2.372782008e-19)
(93.5673838 -11.35652916 -5.236103887e-18)
(93.31162878 -11.57089033 0)
(81.73662949 -10.41915114 1.063762266e-18)
(91.6156939 -11.44517818 -2.523666644e-18)
(92.42100691 -11.41533714 9.56574004e-19)
(92.53182104 -11.48209813 1.435656994e-18)
(90.23131132 -11.39723616 2.650373847e-18)
(62.00155096 -21.0268308 5.115914303e-19)
(61.31895991 -21.11642204 7.292044709e-19)
(45.99444533 -3.220287065 0)
(60.24658219 -16.39150761 0)
(64.79332343 -19.79593979 6.005205711e-19)
(89.22607341 -10.5623112 -9.536498083e-19)
(89.09881672 -10.53689093 9.594572647e-19)
(90.39012841 -10.5782315 -1.634700977e-18)
(89.98711198 -11.08552753 5.419734467e-19)
(88.38664491 -10.00899949 1.034507772e-18)
(88.49234754 -10.0510336 3.461925586e-19)
(88.21771671 -9.840587446 6.959190205e-19)
(88.28467136 -9.937631143 0)
(89.80622876 -10.23513991 -3.093160669e-19)
(89.78837881 -10.19683056 0)
(90.46519005 -10.20111355 0)
(88.65953669 -10.12840807 0)
(88.66788465 -10.13089681 0)
(88.57523413 -10.08067681 0)
(88.63971498 -10.10514623 -1.394948385e-18)
(92.64444358 -11.53717019 3.31804821e-21)
(92.80106184 -11.60863667 6.877035222e-19)
(92.04006469 -11.74396148 -2.278188801e-21)
(65.6975175 -20.71419638 6.011073433e-19)
(54.60861425 -18.10369973 -1.003116655e-18)
(51.35052588 -16.90089659 -2.539404501e-18)
(55.70561953 -18.98817066 1.144217063e-18)
(55.99608567 -18.74039452 2.008922401e-18)
(64.60044336 -20.68025177 -7.153271075e-20)
(90.64072217 -11.76966378 3.019557127e-19)
(67.74880277 -22.60022708 -7.499997153e-19)
(76.09539718 -24.51173359 1.612961111e-19)
(74.93464607 -24.63990584 0)
(90.58313674 -10.65277415 -1.114260639e-18)
(89.34622415 -10.56059862 0)
(89.31620211 -10.55360442 0)
(78.4986848 -27.41282445 -1.19580665e-18)
(70.25805165 -24.31692908 5.722152868e-20)
(70.73678642 -24.60572261 -7.780693443e-20)
(73.70357264 -24.51987884 -2.098151607e-19)
(71.77947306 -24.34376524 0)
(65.84634104 -22.97602761 0)
(69.97030863 -24.61779039 2.089835264e-20)
(82.02672474 -27.64368921 -5.155294125e-20)
(74.06301564 -25.82351632 2.232975381e-19)
(75.55196251 -25.8789982 -2.024608717e-20)
(89.02673569 -10.97645076 0)
(89.44061798 -10.86136554 1.575522014e-18)
(90.70556442 -10.98285794 1.156002656e-18)
(98.67959093 -3.875603762 -7.493664579e-20)
(97.92711515 -4.523050595 -4.947883279e-19)
(97.64514444 -4.757141409 -4.693872587e-21)
(96.682024 -5.561369889 0)
(96.31343819 -5.875283008 5.890804473e-19)
(95.01635341 -7.007758126 0)
(99.61665942 -4.238752121 5.553381135e-19)
(99.03264566 -4.928522348 -6.010131799e-19)
(98.19962382 -4.643341522 0)
(98.81329536 -5.17886913 -5.86813478e-19)
(98.06915532 -6.040102158 5.873049014e-19)
(97.02201231 -5.708934384 0)
(97.78581987 -6.379074354 -5.714864122e-19)
(96.79490296 -7.630942349 5.313308594e-19)
(95.44559426 -7.194409962 6.092059534e-19)
(95.44622079 -7.861179578 7.218417936e-19)
(94.97740335 -8.547041312 -1.100453091e-18)
(94.1960952 -8.239170777 5.851082465e-19)
(93.39655844 -9.7602179 0)
(92.99809584 -10.23393325 0)
(92.56392945 -9.956026787 -5.414758848e-21)
(100.5807116 -4.41124356 9.352822954e-19)
(100.1509083 -5.100732199 0)
(99.30695904 -4.993979465 7.093451533e-20)
(99.99150898 -5.347669842 -5.107225864e-19)
(99.46707676 -6.181445808 -1.183164831e-19)
(98.41469972 -6.107773967 6.799786747e-20)
(99.27710105 -6.503178706 0)
(98.67694247 -7.668493351 -2.073429583e-19)
(97.25917433 -7.704046891 1.00179081e-18)
(97.45332412 -8.25609608 4.810250616e-19)
(97.19309671 -8.816237531 -3.454265906e-19)
(96.37054271 -8.948628581 -4.756032645e-19)
(96.08042452 -10.85641861 -9.234620455e-19)
(95.96513534 -11.57125883 4.147950205e-19)
(95.18964222 -11.35910867 0)
(101.5102157 -4.409686025 -3.866160865e-19)
(101.2068207 -5.070795835 -4.678237749e-21)
(100.4238572 -5.110696585 -4.741035585e-19)
(101.0942474 -5.301147277 -1.224691639e-18)
(100.7378013 -6.046330724 0)
(99.80173949 -6.169928291 5.806185577e-19)
(100.6167016 -6.319612667 0)
(100.2870625 -7.244756685 -8.189427655e-20)
(99.11615404 -7.591060949 2.093403214e-19)
(100.2092789 -7.592430185 1.552500796e-19)
(100.2430373 -8.761517366 2.40755727e-20)
(98.90678383 -9.669132838 2.107226914e-20)
(98.15729163 -8.938613091 2.573617002e-19)
(102.3430887 -4.263426187 0)
(102.1343168 -4.871642131 0)
(101.4526093 -5.035284997 0)
(102.0519903 -5.078064681 -1.541672227e-19)
(101.7888475 -5.716157088 -1.218547599e-18)
(101.0228779 -5.979670369 0)
(101.6998943 -5.935976501 -1.074405866e-18)
(101.4606662 -6.614665959 -2.043713234e-18)
(100.6238863 -7.103396771 7.034203638e-19)
(101.4416762 -6.852159584 9.284890714e-19)
(99.50921193 -7.386621649 -9.141638109e-20)
(100.4387311 -8.462323125 2.127797633e-20)
(94.98143427 -6.905732907 6.37207696e-19)
(103.0622297 -3.996650481 0)
(102.90112 -4.533465152 1.808469047e-19)
(102.3413175 -4.799293723 -7.357817468e-19)
(102.830099 -4.712894886 -1.878318683e-19)
(102.5817028 -5.241174376 5.029961544e-19)
(102.0107862 -5.608103076 -1.105515822e-18)
(102.4917051 -5.413528545 -4.465043937e-19)
(102.3315414 -5.930360025 6.103102882e-21)
(101.70071 -6.44505261 9.310041426e-19)
(102.2880818 -6.111058458 -6.729590251e-19)
(96.17746804 -5.940517509 5.020287425e-19)
(98.69685115 -6.978512366 7.56950937e-19)
(94.48473391 -6.073540671 -5.276642381e-19)
(103.6667509 -3.675862922 0)
(103.5178417 -4.116732278 0)
(103.0684643 -4.432307375 5.770051786e-20)
(103.4466151 -4.262985104 0)
(103.1749723 -4.692071272 0)
(102.7446092 -5.108266257 0)
(103.0762931 -4.830789309 -9.201274874e-20)
(102.8150106 -5.216099832 -9.094438782e-21)
(102.4981923 -5.755364046 0)
(102.22882 -5.307462987 -4.190799398e-21)
(95.60815913 -5.210916509 1.769817671e-19)
(95.70622058 -5.705010133 5.128980157e-19)
(96.90671654 -5.580592952 -1.773569847e-19)
(104.1694101 -3.338893887 0)
(104.0113802 -3.698488712 0)
(103.6516797 -4.011042633 0)
(103.9341777 -3.815020055 0)
(103.6386881 -4.150961419 0)
(103.3022677 -4.552679325 0)
(103.5308017 -4.257879511 0)
(103.0532162 -4.526155523 0)
(102.878173 -5.035139021 -1.265503125e-19)
(102.1623166 -4.559696757 0)
(96.32634034 -4.599620443 0)
(95.80082097 -5.065467371 -1.86909859e-19)
(98.10165439 -4.844447099 0)
(104.5864452 -3.007186793 0)
(104.4080345 -3.301311487 0)
(104.1187022 -3.596705461 0)
(104.3222371 -3.394885214 0)
(103.9973952 -3.660197546 0)
(103.737145 -4.023244007 0)
(103.8748656 -3.74247007 0)
(103.2022256 -3.934429226 0)
(103.0981489 -4.368697432 0)
(102.1745391 -3.949498586 0)
(96.87474627 -4.027984123 0)
(96.47245752 -4.451516757 0)
(98.63182598 -4.201066573 0)
(104.9330541 -2.692919758 0)
(104.7293784 -2.934896014 0)
(104.4946941 -3.20660475 0)
(104.6342801 -3.010811589 0)
(104.2780705 -3.223231285 0)
(104.0739396 -3.545965275 0)
(104.1389427 -3.287731589 0)
(103.2946833 -3.428641556 0)
(103.2295921 -3.80061812 0)
(102.1703419 -3.435908078 0)
(97.33371671 -3.529032636 0)
(96.99738151 -3.896123046 0)
(98.99034474 -3.657032525 0)
(105.2220323 -2.402434462 0)
(104.9921711 -2.602845399 0)
(104.8000077 -2.848615521 0)
(104.8880718 -2.665085963 0)
(104.5013987 -2.837490693 0)
(104.3386279 -3.122150645 0)
(104.3454874 -2.888918613 0)
(103.3530414 -2.99401062 0)
(103.3118276 -3.313782067 0)
(102.1632154 -2.997320731 0)
(97.7145899 -3.099585647 0)
(97.43585655 -3.415587188 0)
(99.23664095 -3.193946621 0)
(105.4641409 -2.138009387 0)
(105.2091826 -2.305314843 0)
(105.050289 -2.52526411 0)
(105.0968289 -2.356880797 0)
(104.6816477 -2.498599943 0)
(104.5500523 -2.748561077 0)
(104.5092102 -2.540094281 0)
(103.391034 -2.619679194 0)
(103.3640373 -2.895150306 0)
(102.1611596 -2.62129435 0)
(98.0281382 -2.728968266 0)
(97.79885229 -3.001793606 0)
(99.40623449 -2.798183071 0)
(105.6682371 -1.90017754 0)
(105.3901369 -2.040949094 0)
(105.2574761 -2.236187449 0)
(105.2704351 -2.084109504 0)
(104.8287187 -2.201890776 0)
(104.7212075 -2.420648792 0)
(104.6403535 -2.235668333 0)
(103.4174192 -2.296947949 0)
(103.3984589 -2.534462923 0)
(102.1676873 -2.298214452 0)
(98.28536086 -2.408582808 0)
(98.09730424 -2.644455761 0)
(99.52291217 -2.459185408 0)
(105.8413875 -1.688323412 0)
(105.5424719 -1.807691412 0)
(105.4306552 -1.979806668 0)
(105.4163065 -1.844163811 0)
(104.9498 -1.942936347 0)
(104.861189 -2.133776204 0)
(104.7464154 -1.970655592 0)
(103.4376658 -2.01867335 0)
(103.4228991 -2.223461616 0)
(102.1837659 -2.020329001 0)
(98.49647608 -2.131539708 0)
(98.34209042 -2.335498672 0)
(99.60276525 -2.168437561 0)
(105.9892183 -1.501261719 0)
(105.6718525 -1.60326275 0)
(105.576779 -1.753973359 0)
(105.5399754 -1.634350717 0)
(105.0502665 -1.717817292 0)
(104.9766695 -1.883627771 0)
(104.8329523 -1.740740876 0)
(103.4550494 -1.779041096 0)
(103.4421873 -1.955344475 0)
(102.2089097 -1.781435428 0)
(98.67040739 -1.892301895 0)
(98.5431234 -2.06837749 0)
(99.65678344 -1.919133251 0)
(106.1162839 -1.337507786 0)
(105.7826472 -1.42534549 0)
(105.7011465 -1.556386309 0)
(105.645656 -1.452052659 0)
(105.1342463 -1.523083614 0)
(105.0726682 -1.666409477 0)
(104.9041585 -1.542184024 0)
(103.4714834 -1.573314351 0)
(103.4591934 -1.724595492 0)
(102.2419116 -1.576571324 0)
(98.81483815 -1.686352349 0)
(98.70900727 -1.837851311 0)
(99.69261493 -1.705832112 0)
(106.2262998 -1.195492057 0)
(105.8782755 -1.271745934 0)
(105.8078617 -1.384743286 0)
(105.7366394 -1.29486612 0)
(105.2049599 -1.355745716 0)
(105.1530606 -1.478783466 0)
(104.9632508 -1.37178397 0)
(103.4880592 -1.397619508 0)
(103.4755846 -1.526705239 0)
(102.2812962 -1.401746464 0)
(98.93629263 -1.510012961 0)
(98.84712756 -1.639613524 0)
(99.71569348 -1.524162412 0)
(106.3223417 -1.073706082 0)
(105.9614755 -1.140491616 0)
(105.9001452 -1.236909907 0)
(105.8155653 -1.160669709 0)
(105.264968 -1.21325827 0)
(105.2208766 -1.317885657 0)
(105.0127496 -1.226844885 0)
(103.5053716 -1.248794104 0)
(103.4923032 -1.358005798 0)
(102.3255578 -1.253743175 0)
(99.04021944 -1.360264022 0)
(98.96372645 -1.470192682 0)
(99.72990575 -1.370571739 0)
(106.4069536 -0.9708145858 0)
(106.0344923 -1.029840526 0)
(105.9806063 -1.110960591 0)
(105.8846081 -1.047606819 0)
(105.3163637 -1.093444211 0)
(105.2785511 -1.181256902 0)
(105.0546855 -1.105079199 0)
(103.5236891 -1.124205517 0)
(103.509852 -1.215467688 0)
(102.3733078 -1.12989213 0)
(99.1310751 -1.234484351 0)
(99.06400379 -1.326665032 0)
(99.7380907 -1.242068831 0)
(106.4821643 -0.8855288549 0)
(106.0991823 -0.9382605494 0)
(106.0513784 -1.005214459 0)
(105.9455798 -0.9540685167 0)
(105.3608744 -0.994463563 0)
(105.3280757 -1.06681204 0)
(105.0907056 -1.004561616 0)
(103.5430861 -1.021681978 0)
(103.5284369 -1.096582251 0)
(102.4233541 -1.028017747 0)
(99.21247678 -1.130525557 0)
(99.15218368 -1.206523156 0)
(99.74238949 -1.136262324 0)
(106.5498123 -0.8165897194 0)
(106.1571918 -0.8643901929 0)
(106.1142495 -0.9181815062 0)
(106.0000781 -0.8786514053 0)
(105.3999746 -0.9147648654 0)
(105.3711033 -0.9727853127 0)
(105.1221862 -0.9236830137 0)
(103.5635638 -0.9394584107 0)
(103.5481061 -0.9992836098 0)
(102.4747483 -0.9463663626 0)
(99.28740812 -1.046674704 0)
(99.2317104 -1.107736808 0)
(99.74446421 -1.051259597 0)
(106.6117955 -0.76306418 0)
(106.210035 -0.8071427225 0)
(106.1708315 -0.8485553087 0)
(106.0495536 -0.820228637 0)
(105.4349597 -0.8531029967 0)
(105.4090592 -0.8977014449 0)
(105.1503171 -0.8611572735 0)
(103.5850919 -0.87614492 0)
(103.5688506 -0.9219054852 0)
(102.5267611 -0.8835525818 0)
(99.35827417 -0.9815619391 0)
(99.30541958 -1.028688305 0)
(99.74561951 -0.985562896 0)
(106.6695364 -0.72431507 0)
(106.2590306 -0.7656766013 0)
(106.2225967 -0.7953270858 0)
(106.0952925 -0.7779115157 0)
(105.4669901 -0.8084825427 0)
(105.4432015 -0.8403843568 0)
(105.1761514 -0.8159577534 0)
(103.6076618 -0.8306603193 0)
(103.5906399 -0.8631385892 0)
(102.5788891 -0.8385118433 0)
(99.42699175 -0.9341145674 0)
(99.3755844 -0.9680791659 0)
(99.7469092 -0.9380077624 0)
(106.7243073 -0.6996978952 0)
(106.3053581 -0.7392761306 0)
(106.2708181 -0.7576899254 0)
(106.1384582 -0.7509565837 0)
(105.4971558 -0.7801129752 0)
(105.4746629 -0.7998944868 0)
(105.2006861 -0.7872947685 0)
(103.6313617 -0.8022594664 0)
(103.613481 -0.8219816737 0)
(102.630873 -0.8105330362 0)
(99.49509511 -0.9036154281 0)
(99.44400603 -0.9249243537 0)
(99.74917934 -0.9077975098 0)
(106.7836251 -0.6881111432 0)
(106.3552316 -0.7267189812 0)
(106.3166111 -0.734953516 0)
(106.1849072 -0.7380314774 0)
(105.5301826 -0.766498236 0)
(105.5044978 -0.775474517 0)
(105.2281668 -0.7737943455 0)
(103.659873 -0.7908513186 0)
(103.6374116 -0.7977608087 0)
(102.6887614 -0.7998920119 0)
(99.5719104 -0.8879363926 0)
(99.51186124 -0.8987085193 0)
(99.75357847 -0.8928512318 0)
(92.42640426 -9.863070184 1.126010784e-18)
(92.02767149 -9.585074729 0)
(92.42646099 -9.184505244 -4.562521953e-21)
(94.97045085 -11.27931347 4.534981595e-19)
(94.46811782 -11.02063335 4.544422667e-19)
(94.8693557 -10.46963053 -4.402747111e-19)
(90.41464808 -20.56350401 1.625136617e-21)
(93.95107175 -8.116397118 1.20185003e-18)
(93.25853073 -7.740822123 0)
(94.07614125 -7.230925112 0)
(92.16943206 -8.687799592 -4.936730629e-19)
(92.984348 -7.959648893 -6.509561238e-19)
(93.68602532 -8.373729295 -6.14587228e-19)
(96.07305129 -8.905874718 -1.509891258e-20)
(95.25452771 -8.636872738 5.299500448e-19)
(95.9395612 -8.019941775 -5.657223853e-19)
(94.41489337 -9.915140048 -6.989133174e-19)
(95.03155247 -8.93371567 -5.992238538e-21)
(95.89278777 -9.229793863 -9.722724139e-19)
(93.93762533 -8.501236458 -6.012338332e-19)
(94.74274222 -8.840852945 -4.485608749e-21)
(94.0887511 -9.787092936 -5.90644172e-21)
(93.64080241 -10.5913902 5.191879603e-19)
(93.15072562 -10.32582333 0)
(93.54635725 -9.851533856 -4.906255923e-19)
(91.34612269 -11.17518587 8.442082235e-22)
(92.10963743 -11.16450749 -4.619696136e-19)
(92.17323365 -11.22056581 0)
(91.41918476 -10.41671912 2.499375702e-21)
(91.47676657 -10.4706698 0)
(91.05676463 -10.50824442 -5.093638521e-19)
(81.43298566 -8.012210695 -3.123709026e-19)
(82.01439796 -9.184089166 -7.656540994e-19)
(97.40864331 -10.74387521 -4.079214787e-19)
(75.12655192 -11.46780249 7.240516573e-19)
(80.99128475 -11.51185185 0)
(90.94065019 -19.69781883 3.217373226e-19)
(92.14679926 -17.4368972 3.273997001e-19)
(90.93232626 -10.33920294 1.240589502e-19)
(91.32247523 -10.30591233 0)
(91.36656321 -10.3616862 -9.740926657e-19)
(91.10195622 -9.658870103 0)
(90.48514204 -9.814825671 0)
(92.29919178 -9.088686144 -5.392289176e-19)
(91.89871932 -9.491382296 0)