/*--------------------------------*- C++ -*----------------------------------*\
| =========                 |                                                 |
| \\      /  F ield         | OpenFOAM: The Open Source CFD Toolbox           |
|  \\    /   O peration     | Version:  v2012                                 |
|   \\  /    A nd           | Website:  www.openfoam.com                      |
|    \\/     M anipulation  |                                                 |
\*---------------------------------------------------------------------------*/
FoamFile
{
    version     2.0;
    format      ascii;
    class       surfaceVectorField;
    location    "1";
    object      Uf;
}
// * * * * * * * * * * * * * * * * * * * * * * * * * * * * * * * * * * * * * //

dimensions      [0 1 -1 0 0 0 0];


internalField   nonuniform List<vector> 
6430
(
(101.40182 -0.4319082138 6.115863609e-20)
(101.6503482 -0.2228769657 3.645307401e-21)
(101.3014955 -0.8773309746 -5.575472989e-20)
(101.5888266 -0.6747303161 5.756167773e-20)
(101.1263886 -1.349101298 -1.073604737e-19)
(101.4690218 -1.143230084 -1.160236923e-19)
(100.7657355 -1.834803689 -1.631057825e-21)
(101.2710273 -1.665007715 -2.80185746e-22)
(100.9468674 -1.889421109 3.364762212e-19)
(100.5175383 -1.908727825 -9.156027737e-22)
(100.7672299 -2.012209363 2.328025456e-19)
(100.5356909 -2.097559421 -9.188243865e-22)
(100.04054 -2.49265633 0)
(100.3146768 -2.403752504 0)
(100.3587985 -2.629778041 0)
(100.0691499 -2.737956378 0)
(99.47400078 -3.212224903 -3.957661893e-22)
(99.80250672 -3.105430318 1.305863708e-22)
(99.86412344 -3.387648561 -2.495001796e-19)
(99.41836615 -3.477359378 -4.796422492e-20)
(99.56358267 -3.534774247 4.495253351e-20)
(98.7944715 -3.9284597 -3.727144519e-20)
(99.01084003 -3.877858409 0)
(99.02779491 -4.026029544 2.147368517e-19)
(98.79764267 -4.08882063 -3.046115946e-19)
(97.7884302 -4.8206139 -3.313025499e-19)
(98.06650681 -4.763069918 -3.27199213e-19)
(98.08028112 -4.936581172 -9.55124495e-19)
(97.79115889 -5.010863057 1.564540814e-19)
(96.49398961 -5.952643061 3.149447283e-19)
(96.84993961 -5.867539497 2.032980328e-20)
(96.85941338 -6.093461839 1.695234079e-20)
(96.48911104 -6.202800482 3.354326117e-19)
(94.74275412 -7.573421841 0)
(95.20942323 -7.427081691 3.062329056e-19)
(95.20715722 -7.770449216 3.605791261e-19)
(94.62774868 -7.881568911 2.746714054e-21)
(94.79281827 -7.937432774 6.115202105e-21)
(92.89805293 -9.47770703 -4.447086147e-21)
(93.04137145 -9.454849087 5.016841467e-19)
(93.02960867 -9.56076792 2.545144181e-19)
(92.90545211 -9.591834347 5.170956234e-19)
(101.8326168 -0.4647799508 0)
(102.0869619 -0.2356657323 0)
(101.7517085 -0.9441408039 0)
(102.0391131 -0.7144928422 0)
(101.6106393 -1.453449811 0)
(101.9474662 -1.209012816 0)
(101.3039801 -1.988334708 0)
(101.7945384 -1.753105262 0)
(101.498026 -2.033131118 0)
(101.0589979 -2.098126553 2.329924911e-19)
(101.337372 -2.161244546 0)
(101.1106971 -2.284683027 0)
(100.675581 -2.741533057 0)
(100.9342154 -2.616350967 0)
(101.0131387 -2.822612628 0)
(100.7446919 -2.975665074 0)
(100.2434411 -3.52631394 -2.490328919e-19)
(100.5453938 -3.368656878 0)
(100.6498615 -3.614882175 1.984157613e-20)
(100.248769 -3.774939788 0)
(100.3989647 -3.803037451 0)
(99.73137342 -4.269841016 2.7967006e-19)
(99.93006974 -4.19336317 0)
(99.97504673 -4.325300282 -1.854653589e-19)
(99.76584911 -4.414342235 2.700163192e-19)
(98.95412981 -5.211865775 -4.817162851e-20)
(99.20498195 -5.119632767 2.900195405e-19)
(99.25366643 -5.269252689 5.22798407e-19)
(98.99549411 -5.377843798 3.23706837e-19)
(97.96578052 -6.412826964 -2.877650404e-19)
(98.28664647 -6.274989486 3.450398799e-20)
(98.34642111 -6.467581783 -4.827825898e-20)
(98.01789522 -6.631433838 1.271281135e-19)
(96.66599377 -8.206166296 -4.86913896e-19)
(97.09224066 -7.966937337 6.990253571e-21)
(97.19302857 -8.248725186 -2.431779016e-19)
(96.66350236 -8.506396845 -1.959984667e-20)
(96.86265838 -8.527626738 -9.346239017e-19)
(95.49367692 -10.68437241 8.068562548e-19)
(95.72883867 -10.59662614 3.585365062e-19)
(95.87073798 -10.83180248 -1.022712773e-19)
(95.42270008 -10.83582849 -6.208772497e-19)
(95.46740552 -11.01859221 2.316278789e-19)
(95.61763162 -11.04430527 -3.275488261e-19)
(102.2884708 -0.4842775906 0)
(102.5418918 -0.2418249093 0)
(102.2284689 -0.9826647437 0)
(102.5072719 -0.7336595309 0)
(102.1230214 -1.509588847 0)
(102.4424581 -1.240006057 0)
(101.872104 -2.066739932 0)
(102.3309471 -1.786817165 0)
(102.0694125 -2.094463074 0)
(101.6342602 -2.205521172 0)
(101.9284852 -2.231453686 0)
(101.7178604 -2.379962603 0)
(101.3537399 -2.875294209 0)
(101.5900039 -2.719490163 0)
(101.6943501 -2.902046573 0)
(101.4568261 -3.08205354 0)
(101.0522816 -3.662770376 -7.330489713e-21)
(101.3204654 -3.473135053 -2.677471732e-20)
(101.448601 -3.676609093 -2.666370734e-20)
(101.102842 -3.881587537 -1.599224532e-19)
(101.248901 -3.898772743 -1.534900074e-19)
(100.6995333 -4.418398765 1.850877745e-20)
(100.8745948 -4.31767108 -1.418004398e-19)
(100.9363873 -4.42816985 -3.020776927e-20)
(100.7565176 -4.53862002 -2.133810168e-19)
(100.1343199 -5.351035969 2.144083643e-19)
(100.3505903 -5.233796076 2.346187673e-19)
(100.4172026 -5.351593557 -2.050141008e-19)
(100.201362 -5.482623984 4.722879862e-19)
(99.45457414 -6.492162715 1.11965973e-19)
(99.71799198 -6.324091305 4.04364411e-19)
(99.80376131 -6.461548797 8.391768575e-20)
(99.5468777 -6.648207744 -4.976919724e-20)
(98.72345705 -8.095373669 1.021546766e-19)
(99.04035373 -7.813491423 1.837790982e-21)
(99.18709282 -7.973415853 -1.053280248e-19)
(98.91028584 -8.285800071 -2.003860077e-19)
(98.7010198 -10.43847975 4.368725684e-19)
(98.79055167 -9.966200245 7.922976692e-20)
(98.61533263 -10.17925945 -9.43195013e-20)
(93.52286979 -9.741036648 1.153812203e-19)
(98.53821774 -10.6750647 -4.089806925e-20)
(102.7559171 -0.4905708266 0)
(103.0027602 -0.2419900544 0)
(102.7154736 -0.993730682 0)
(102.9799414 -0.7339466148 0)
(102.6432496 -1.521858156 0)
(102.9386093 -1.239104223 0)
(102.4443806 -2.086247216 0)
(102.8635505 -1.773868471 0)
(102.6374997 -2.091326878 0)
(102.2211058 -2.241023483 0)
(102.5146319 -2.23572178 0)
(102.3258446 -2.398725898 0)
(102.0301961 -2.90537746 0)
(102.2401678 -2.73137314 0)
(102.3594576 -2.887717392 0)
(102.1540948 -3.081856406 0)
(101.8351263 -3.659050243 0)
(102.0683388 -3.455408496 0)
(102.2086723 -3.613493367 0)
(101.9150412 -3.863309243 0)
(102.0468354 -3.842781817 0)
(101.6193321 -4.397568735 -1.011512262e-19)
(101.7645318 -4.282367304 9.419596162e-20)
(101.8345465 -4.369560371 3.54042545e-19)
(101.6863681 -4.493559048 -9.776966627e-20)
(101.2214394 -5.280797702 -8.090826383e-19)
(101.4005555 -5.148726609 -1.967512614e-19)
(101.4714623 -5.234718036 -1.959700654e-19)
(101.2955307 -5.376585589 -1.94947136e-19)
(100.7648748 -6.279783159 4.343757263e-20)
(100.9685107 -6.109288992 4.326189917e-20)
(101.0536678 -6.194817776 1.041857643e-18)
(100.8610677 -6.375811866 5.424397067e-20)
(100.3816712 -7.503187978 -3.064958316e-19)
(100.5895663 -7.257575624 -2.452595049e-20)
(100.7113449 -7.320490782 -3.844417348e-19)
(100.5438878 -7.575035535 -6.605800181e-19)
(97.83618944 -8.657454607 1.408452243e-19)
(98.99167158 -8.444848166 -1.645107298e-20)
(97.10694125 -8.103936145 1.215006621e-20)
(93.98168812 -7.949774273 1.909053045e-19)
(103.2227109 -0.4853195151 0)
(103.4586688 -0.2371421331 0)
(103.1987554 -0.9812543804 0)
(103.4457966 -0.7184746444 0)
(103.154407 -1.497728571 0)
(103.4237845 -1.211557282 0)
(103.0011318 -2.055200539 0)
(103.3786202 -1.722715241 0)
(103.1845113 -2.036850837 0)
(102.7970867 -2.216277593 0)
(103.078274 -2.185122585 0)
(102.9129839 -2.354543699 0)
(102.678277 -2.851402586 0)
(102.8609275 -2.669419543 0)
(102.9857688 -2.798978739 0)
(102.8113231 -2.996729943 0)
(102.5661197 -3.544767563 0)
(102.763903 -3.340381432 0)
(102.9048734 -3.457172497 0)
(102.6564405 -3.724062093 0)
(102.7733632 -3.677959232 0)
(102.4384318 -4.23448703 7.331921683e-20)
(102.5565049 -4.108409088 7.37747045e-20)
(102.6257378 -4.17315824 7.342926709e-20)
(102.5057974 -4.305608055 -4.000178632e-20)
(102.1578582 -5.038608545 4.681277825e-21)
(102.3021345 -4.900267054 -2.82789828e-19)
(102.3636123 -4.955166953 8.195740814e-20)
(102.2224345 -5.100550228 3.066668594e-19)
(101.8117181 -5.875343474 -1.920578424e-20)
(101.9671726 -5.711452508 -3.462670049e-20)
(102.0260704 -5.750494436 5.528645448e-19)
(101.8802546 -5.91830226 4.870143359e-19)
(101.5735037 -6.760132608 5.061269914e-21)
(101.7034991 -6.557577411 2.247627094e-20)
(101.8254573 -6.576481729 -4.872171379e-19)
(101.7168713 -6.790887511 -8.856549047e-19)
(94.66880458 -6.739995482 -1.085352036e-20)
(96.55319197 -6.795335601 1.609974092e-19)
(94.2163135 -6.457285756 -3.002576189e-20)
(93.91369683 -6.802521119 -3.631355405e-19)
(103.6786244 -0.4707410582 0)
(103.9008825 -0.2283468121 0)
(103.6676638 -0.9498914654 0)
(103.8958854 -0.6906838755 0)
(103.6449999 -1.444594841 0)
(103.8885084 -1.163277817 0)
(103.5286263 -1.981608035 0)
(103.8658922 -1.642760148 0)
(103.6988577 -1.94499386 0)
(103.3450697 -2.142616206 0)
(103.6074739 -2.091981694 0)
(103.4641974 -2.260955319 0)
(103.2793284 -2.733159751 0)
(103.4364139 -2.55155657 0)
(103.5592044 -2.656519143 0)
(103.4117474 -2.849471278 0)
(103.2234651 -3.35462006 0)
(103.3891734 -3.157269459 0)
(103.5214712 -3.24082274 0)
(103.3117025 -3.504388868 0)
(103.4127135 -3.444652876 0)
(103.1429186 -3.95803507 0)
(103.2397577 -3.835991775 0)
(103.3010273 -3.879740062 0)
(103.202808 -4.004325197 0)
(102.9139418 -4.658711035 -1.524195679e-19)
(103.0329756 -4.519083573 -3.018129109e-20)
(103.0770274 -4.548179358 -5.852126105e-20)
(102.9584782 -4.69051717 5.317854375e-20)
(102.5720899 -5.342375015 -4.221230242e-19)
(102.6985635 -5.189964911 -1.994860279e-19)
(102.7276689 -5.198632049 -3.841742162e-19)
(102.6111682 -5.351851526 2.670126901e-20)
(102.3222139 -6.013642902 -6.490152197e-19)
(102.428456 -5.834742031 -3.117024807e-19)
(102.357117 -5.815903901 -3.126451719e-19)
(101.9061528 -5.959462192 2.509266931e-20)
(94.76204169 -6.025037437 -2.764934377e-19)
(95.3766975 -5.837538698 2.452544717e-19)
(95.36810876 -5.922519909 3.86345096e-19)
(96.31941565 -6.270142948 1.472417546e-19)
(104.1158633 -0.4490863261 0)
(104.3227537 -0.2166480246 0)
(104.1144497 -0.904321937 0)
(104.3235099 -0.6539271293 0)
(104.1073461 -1.370160212 0)
(104.3261163 -1.100059078 0)
(104.0184105 -1.876740547 0)
(104.3188745 -1.543361704 0)
(104.1738276 -1.827988735 0)
(103.8543326 -2.033161563 0)
(104.0949621 -1.969621091 0)
(103.9707873 -2.132907081 0)
(103.8237476 -2.571453945 0)
(103.9584808 -2.396362617 0)
(104.0739407 -2.480103395 0)
(103.9484061 -2.662681261 0)
(103.7994857 -3.119384842 0)
(103.9388451 -2.933497978 0)
(104.0575609 -2.993352696 0)
(103.8767948 -3.23961044 0)
(103.9624601 -3.176855839 0)
(103.7339459 -3.633899922 0)
(103.8154563 -3.522076783 0)
(103.8656086 -3.549859675 0)
(103.7819685 -3.662221332 0)
(103.5129094 -4.206056899 0)
(103.6155108 -4.080113616 0)
(103.6418928 -4.092730792 0)
(103.5376934 -4.217403315 0)
(103.1386349 -4.756933673 -4.599696978e-20)
(103.2520055 -4.617812158 0)
(103.2601209 -4.610560652 0)
(103.1576826 -4.747086506 0)
(102.1947458 -5.207132064 1.184621934e-19)
(102.5194036 -5.067943974 6.225429834e-20)
(102.1488447 -5.010788117 1.287718975e-19)
(101.1380978 -5.094797329 5.282415991e-20)
(97.13517723 -5.492470441 -8.862160313e-20)
(96.58197295 -5.233517568 -9.361097615e-20)
(97.53486876 -5.310276116 1.690747632e-23)
(98.38669982 -5.49800174 0)
(104.5288849 -0.4225213933 0)
(104.7196698 -0.203029532 0)
(104.5337592 -0.849107488 0)
(104.7242226 -0.6113425931 0)
(104.5365388 -1.281845922 0)
(104.7326303 -1.027245769 0)
(104.4662947 -1.75182377 0)
(104.7343696 -1.432715252 0)
(104.606525 -1.696466049 0)
(104.3197234 -1.900765237 0)
(104.5377552 -1.829985024 0)
(104.429373 -1.98393352 0)
(104.3088275 -2.384461417 0)
(104.4251367 -2.219842346 0)
(104.5298634 -2.286227046 0)
(104.4211675 -2.45512458 0)
(104.2963984 -2.86490121 0)
(104.4153506 -2.690764887 0)
(104.5171269 -2.73568053 0)
(104.3588126 -2.953601124 0)
(104.4313392 -2.897883223 0)
(104.2251334 -3.296764183 0)
(104.2964391 -3.196358771 0)
(104.3344149 -3.213035716 0)
(104.2601473 -3.312680412 0)
(103.9867879 -3.760977157 0)
(104.0791032 -3.651814202 0)
(104.0892345 -3.653843757 0)
(103.9938358 -3.760858223 0)
(103.5783602 -4.190556987 0)
(103.6815878 -4.073202124 0)
(103.6702964 -4.057805108 0)
(103.571184 -4.171058884 0)
(102.1647152 -4.477518632 0)
(102.6333122 -4.381467728 0)
(102.1694038 -4.317506483 0)
(101.0436439 -4.386458414 0)
(98.17755397 -4.75879132 0)
(97.36320579 -4.563215239 0)
(98.32413703 -4.591153785 0)
(99.00561369 -4.719238028 0)
(104.9141837 -0.3930168381 0)
(105.0888908 -0.1883557032 0)
(104.9224662 -0.7883140126 0)
(105.0955656 -0.5656775551 0)
(104.9301959 -1.186054004 0)
(105.1062885 -0.949470797 0)
(104.8713542 -1.616308108 0)
(105.1115913 -1.317349907 0)
(104.9969596 -1.558862809 0)
(104.7399602 -1.756228945 0)
(104.9361433 -1.682635677 0)
(104.8402146 -1.8251342 0)
(104.7365329 -2.186852419 0)
(104.8382878 -2.034738884 0)
(104.9305022 -2.087493252 0)
(104.8341832 -2.241186052 0)
(104.7209174 -2.607030347 0)
(104.8252033 -2.445209438 0)
(104.9089539 -2.479978241 0)
(104.7676258 -2.668984987 0)
(104.8289053 -2.621742912 0)
(104.6326851 -2.966767085 0)
(104.6974887 -2.877712727 0)
(104.7234724 -2.886845582 0)
(104.6549279 -2.974348684 0)
(104.3643689 -3.345110191 0)
(104.4506393 -3.250950547 0)
(104.4465232 -3.246707731 0)
(104.3562074 -3.338395376 0)
(103.9110464 -3.682863985 0)
(104.010636 -3.584601542 0)
(103.9812569 -3.565497286 0)
(103.8784234 -3.659333558 0)
(102.1745043 -3.881371133 0)
(102.7020681 -3.806309043 0)
(102.1739747 -3.747799486 0)
(101.0279872 -3.805745363 0)
(98.68296785 -4.128822082 0)
(97.8659506 -3.976999581 0)
(98.78115126 -3.987243963 0)
(99.31523368 -4.081505857 0)
(105.2699844 -0.3622279165 0)
(105.4291673 -0.1733317911 0)
(105.2793314 -0.7252802448 0)
(105.436598 -0.5191572619 0)
(105.2880248 -1.087902898 0)
(105.4469358 -0.8704901966 0)
(105.2348909 -1.478345657 0)
(105.4516178 -1.202222535 0)
(105.3467303 -1.421383665 0)
(105.1165816 -1.607866459 0)
(105.2919221 -1.534732135 0)
(105.205816 -1.665007611 0)
(105.1114323 -1.989160811 0)
(105.2020161 -1.850303939 0)
(105.2810118 -1.892581808 0)
(105.193576 -2.030813234 0)
(105.0822588 -2.355293844 0)
(105.1768087 -2.207224525 0)
(105.2423099 -2.233621341 0)
(105.113939 -2.398289327 0)
(105.1657789 -2.356935404 0)
(104.9715629 -2.655262231 0)
(105.0324442 -2.576919595 0)
(105.0471975 -2.581064258 0)
(104.9819506 -2.65744544 0)
(104.6684194 -2.965791963 0)
(104.7513064 -2.88467761 0)
(104.7350446 -2.876977389 0)
(104.6474717 -2.955609826 0)
(104.1670879 -3.235367629 0)
(104.2669625 -3.152616077 0)
(104.22179 -3.132366105 0)
(104.1120441 -3.210854388 0)
(102.1693441 -3.377837825 0)
(102.7401336 -3.316217024 0)
(102.1674295 -3.263947426 0)
(101.0223502 -3.314178628 0)
(99.02553344 -3.59563996 0)
(98.24833821 -3.475542776 0)
(99.09284316 -3.47528873 0)
(99.51588357 -3.547203779 0)
(105.5959198 -0.3314466164 0)
(105.7405279 -0.1584963988 0)
(105.6045504 -0.6625767414 0)
(105.7476443 -0.4734498334 0)
(105.6112218 -0.9911604227 0)
(105.755607 -0.7931082232 0)
(105.5594102 -1.34315705 0)
(105.7565981 -1.090924794 0)
(105.6586728 -1.288473232 0)
(105.4521847 -1.461724249 0)
(105.6082725 -1.391313038 0)
(105.529727 -1.509323258 0)
(105.439064 -1.798349638 0)
(105.52129 -1.672712734 0)
(105.5871385 -1.706887027 0)
(105.5059613 -1.830330993 0)
(105.3903511 -2.115683639 0)
(105.4789028 -1.982912157 0)
(105.5272968 -2.002075738 0)
(105.4073259 -2.147919001 0)
(105.4511308 -2.109486016 0)
(105.2542188 -2.367987255 0)
(105.3128099 -2.299391686 0)
(105.3175003 -2.300228311 0)
(105.2540152 -2.36676545 0)
(104.9160416 -2.624831794 0)
(104.9971672 -2.554899676 0)
(104.9706972 -2.545503237 0)
(104.8844423 -2.613088534 0)
(104.3677077 -2.84308235 0)
(104.4700126 -2.772951167 0)
(104.4109514 -2.752946662 0)
(104.29278 -2.818990338 0)
(102.1625915 -2.947587107 0)
(102.7630404 -2.896043259 0)
(102.1616149 -2.850010595 0)
(101.0307206 -2.895003513 0)
(99.26086846 -3.141544159 0)
(98.54200334 -3.045973913 0)
(99.30720418 -3.038770222 0)
(99.64791688 -3.095305039 0)
(105.8926845 -0.3016216144 0)
(106.0238709 -0.1442462276 0)
(105.8993066 -0.6020667092 0)
(106.0298667 -0.4297525055 0)
(105.9018527 -0.8984849152 0)
(106.0340619 -0.7193072899 0)
(105.8481754 -1.214323427 0)
(106.0292357 -0.9859265775 0)
(105.9361094 -1.1630975 0)
(105.7502186 -1.321937512 0)
(105.8888177 -1.255744689 0)
(105.8160449 -1.361871701 0)
(105.7250971 -1.618576107 0)
(105.8012143 -1.505764135 0)
(105.8543663 -1.533674833 0)
(105.7774225 -1.643365082 0)
(105.6540759 -1.89318062 0)
(105.7389874 -1.775370897 0)
(105.7715112 -1.789224393 0)
(105.6569011 -1.917910974 0)
(105.6941449 -1.882862687 0)
(105.491204 -2.106910586 0)
(105.548683 -2.046986683 0)
(105.544491 -2.045793402 0)
(105.4817523 -2.103706587 0)
(105.1199952 -2.321176279 0)
(105.2003367 -2.260798269 0)
(105.165343 -2.25083929 0)
(105.079553 -2.309066418 0)
(104.5269439 -2.500067702 0)
(104.6329628 -2.440372595 0)
(104.5615106 -2.421340758 0)
(104.4344035 -2.477165312 0)
(102.1615158 -2.578598216 0)
(102.7801946 -2.534819567 0)
(102.1625609 -2.494770769 0)
(101.0549521 -2.535932006 0)
(99.42291322 -2.753333875 0)
(98.76847336 -2.676824959 0)
(99.45481942 -2.665312518 0)
(99.73426529 -2.710785879 0)
(106.1616927 -0.2734183359 0)
(106.2807347 -0.1308591533 0)
(106.1654068 -0.5450389245 0)
(106.2850277 -0.3888815897 0)
(106.1624256 -0.8116641477 0)
(106.2845439 -0.6504091369 0)
(106.1046516 -1.094158124 0)
(106.2725289 -0.8887939192 0)
(106.1825071 -1.047119294 0)
(106.0143724 -1.191192161 0)
(106.1372986 -1.130131276 0)
(106.0688524 -1.225021442 0)
(105.9748332 -1.452404999 0)
(106.0466061 -1.351728704 0)
(106.0877872 -1.374878392 0)
(106.0134771 -1.471962809 0)
(105.8803852 -1.690326338 0)
(105.9632652 -1.586378331 0)
(105.9813906 -1.596530916 0)
(105.8701052 -1.709660916 0)
(105.9019242 -1.6781463 0)
(105.6911413 -1.87238328 0)
(105.7482766 -1.820126876 0)
(105.7362844 -1.817823472 0)
(105.673667 -1.868178176 0)
(105.2898323 -2.052634623 0)
(105.3699562 -2.000454837 0)
(105.3278465 -1.990675374 0)
(105.2420033 -2.04091709 0)
(104.6546486 -2.200788975 0)
(104.7650817 -2.149859169 0)
(104.6825427 -2.1322087 0)
(104.5466329 -2.179549627 0)
(102.1692335 -2.2614993 0)
(102.7968625 -2.223857935 0)
(102.1726602 -2.189407876 0)
(101.094406 -2.227505333 0)
(99.53435695 -2.420732716 0)
(98.9439653 -2.35910807 0)
(99.55623352 -2.345255205 0)
(99.78950446 -2.382393465 0)
(106.4048247 -0.2472794411 0)
(106.5130288 -0.1185198802 0)
(106.4050404 -0.492332803 0)
(106.515218 -0.3513641006 0)
(106.3956657 -0.731813348 0)
(106.5095117 -0.5872453879 0)
(106.3323205 -0.9840112985 0)
(106.4895073 -0.8004327951 0)
(106.4012806 -0.9415668803 0)
(106.2483505 -1.07107331 0)
(106.3573789 -1.015624373 0)
(106.292096 -1.100079572 0)
(106.1931333 -1.301184614 0)
(106.2619337 -1.2117558 0)
(106.292005 -1.231356378 0)
(106.2191431 -1.31700003 0)
(106.0752048 -1.507816618 0)
(106.1572356 -1.416439961 0)
(106.1623922 -1.424151702 0)
(106.05303 -1.523254314 0)
(106.0803444 -1.49526274 0)
(105.8609001 -1.663698043 0)
(105.9181818 -1.618200929 0)
(105.8993779 -1.615433375 0)
(105.8365049 -1.659167052 0)
(105.4327061 -1.816574164 0)
(105.5129494 -1.771462384 0)
(105.4648633 -1.762327921 0)
(105.3786121 -1.805698326 0)
(104.7580467 -1.940345582 0)
(104.8731829 -1.896848053 0)
(104.7807548 -1.880803903 0)
(104.6365384 -1.921024049 0)
(102.1864925 -1.988742351 0)
(102.8157216 -1.956075526 0)
(102.1922448 -1.926757176 0)
(101.1472842 -1.962199825 0)
(99.61054856 -2.135444492 0)
(99.08074093 -2.08552123 0)
(99.62539642 -2.070719572 0)
(99.82321114 -2.101328944 0)
(106.6242604 -0.2234739642 0)
(106.72296 -0.1073365618 0)
(106.6206242 -0.4444418657 0)
(106.7227837 -0.3174944149 0)
(106.6043863 -0.6595445506 0)
(106.7115789 -0.5302635423 0)
(106.5345225 -0.8845541875 0)
(106.6831918 -0.7212531456 0)
(106.5957094 -0.8468932601 0)
(106.455671 -0.9623968306 0)
(106.5524966 -0.9127508174 0)
(106.4894329 -0.9876316784 0)
(106.3843107 -1.16540452 0)
(106.4512063 -1.086253937 0)
(106.4710868 -1.103285841 0)
(106.398788 -1.178622985 0)
(106.2435291 -1.345444064 0)
(106.3255637 -1.265350433 0)
(106.3191108 -1.27159113 0)
(106.2106782 -1.358101553 0)
(106.234248 -1.333525936 0)
(106.0059471 -1.479634415 0)
(106.0636814 -1.440078539 0)
(106.0389678 -1.437292876 0)
(105.9756168 -1.475234662 0)
(105.5539518 -1.610319803 0)
(105.6345427 -1.571325702 0)
(105.5813819 -1.563108972 0)
(105.4944539 -1.600529044 0)
(104.8424947 -1.71451521 0)
(104.9623597 -1.677361369 0)
(104.8611428 -1.663028102 0)
(104.7092911 -1.697214912 0)
(102.2126859 -1.754314578 0)
(102.8378431 -1.725787772 0)
(102.2204894 -1.701112832 0)
(101.2112831 -1.734095948 0)
(99.66198762 -1.890873374 0)
(99.18811041 -1.850237525 0)
(99.67189045 -1.83545227 0)
(99.84186091 -1.860780525 0)
(106.8223588 -0.2021410568 0)
(106.9128511 -0.09736407525 0)
(106.8146891 -0.4016050499 0)
(106.9101497 -0.2874069703 0)
(106.7913975 -0.5951086631 0)
(106.893356 -0.4796515854 0)
(106.7144462 -0.795981864 0)
(106.8564737 -0.6513495479 0)
(106.7688939 -0.7631563166 0)
(106.6396785 -0.8654254398 0)
(106.7258876 -0.8215794406 0)
(106.6642707 -0.8877573327 0)
(106.55223 -1.044970867 0)
(106.6180582 -0.9751203646 0)
(106.6286684 -0.9903836335 0)
(106.5562664 -1.056485435 0)
(106.3896175 -1.202476077 0)
(106.4722722 -1.132453719 0)
(106.4554694 -1.137972426 0)
(106.34725 -1.21321558 0)
(106.3677086 -1.191897238 0)
(106.1307268 -1.318683162 0)
(106.1890923 -1.284349527 0)
(106.1592716 -1.281865895 0)
(106.0953194 -1.314733153 0)
(105.6576564 -1.431269233 0)
(105.7387648 -1.397603893 0)
(105.6812345 -1.390469255 0)
(105.5934281 -1.422700322 0)
(104.912053 -1.519618795 0)
(105.0365104 -1.487925095 0)
(104.9274993 -1.475344823 0)
(104.7687571 -1.504366179 0)
(102.2465592 -1.553376585 0)
(102.8634095 -1.528388144 0)
(102.2560556 -1.507897133 0)
(101.2840103 -1.538496278 0)
(99.69600619 -1.681713467 0)
(99.27327199 -1.648522942 0)
(99.70243725 -1.634433359 0)
(99.84995337 -1.65536815 0)
(107.0015226 -0.1833318326 0)
(107.0850728 -0.08861971337 0)
(106.989756 -0.3638916915 0)
(107.0797582 -0.2611255915 0)
(106.9594074 -0.5385257757 0)
(107.057407 -0.4354213918 0)
(106.8750538 -0.7181985493 0)
(107.0120968 -0.5906113188 0)
(106.9237161 -0.6901778717 0)
(106.8034614 -0.7800846548 0)
(106.8805291 -0.7419227833 0)
(106.8197128 -0.8002424401 0)
(106.7002998 -0.9394681062 0)
(106.7657285 -0.8779723198 0)
(106.7679583 -0.8921351175 0)
(106.6949363 -0.9499915164 0)
(106.5170761 -1.077946646 0)
(106.6007949 -1.016889011 0)
(106.5747901 -1.022255792 0)
(106.4662666 -1.087455321 0)
(106.4841523 -1.069201772 0)
(106.2388643 -1.179278445 0)
(106.297958 -1.149544791 0)
(106.2637306 -1.147608473 0)
(106.1991092 -1.176012964 0)
(105.7470178 -1.277054629 0)
(105.8287763 -1.248066788 0)
(105.7674327 -1.242125831 0)
(105.6786006 -1.269796375 0)
(104.9698385 -1.352523606 0)
(105.0986574 -1.325577534 0)
(104.982746 -1.314769193 0)
(104.8178727 -1.339316307 0)
(102.286623 -1.382047826 0)
(102.8921393 -1.36015969 0)
(102.2974302 -1.343455748 0)
(101.3631443 -1.371663191 0)
(99.7178191 -1.503713163 0)
(99.34184379 -1.476576052 0)
(99.72182843 -1.463656169 0)
(99.85069702 -1.480843575 0)
(107.1642032 -0.1670367611 0)
(107.241996 -0.08109819158 0)
(107.148348 -0.3312581134 0)
(107.2340281 -0.2386065065 0)
(107.1110553 -0.4896631546 0)
(107.2062212 -0.3974711123 0)
(107.0191139 -0.6509645564 0)
(107.1526834 -0.5388290294 0)
(107.0628604 -0.6276547971 0)
(106.9498744 -0.7061019369 0)
(107.0191548 -0.6734384704 0)
(106.9585955 -0.7247097027 0)
(106.8315456 -0.8483191792 0)
(106.8971266 -0.7942797146 0)
(106.8918276 -0.8079245218 0)
(106.8177514 -0.8584394934 0)
(106.6289312 -0.9707325339 0)
(106.71405 -0.9177522079 0)
(106.679777 -0.9231796694 0)
(106.5707504 -0.9796837968 0)
(106.5865847 -0.9640656725 0)
(106.3333758 -1.05992336 0)
(106.3932719 -1.034247227 0)
(106.3552367 -1.033056542 0)
(106.2898868 -1.057516462 0)
(105.8246154 -1.145581486 0)
(105.9071405 -1.120719603 0)
(105.8424357 -1.116044975 0)
(105.7524622 -1.13968751 0)
(105.0183059 -1.210580627 0)
(105.1512117 -1.187789419 0)
(105.0292083 -1.178752075 0)
(104.8589347 -1.199393994 0)
(102.3313837 -1.237178481 0)
(102.9235425 -1.218047943 0)
(102.3431446 -1.204776784 0)
(101.4465961 -1.23056651 0)
(99.73116189 -1.353387 0)
(99.39821779 -1.331224822 0)
(99.73351174 -1.319771842 0)
(99.84640142 -1.333726001 0)
(107.312627 -0.1532195306 0)
(107.3859303 -0.07477641375 0)
(107.292744 -0.3036040236 0)
(107.3752914 -0.219762993 0)
(107.2486921 -0.4483134642 0)
(107.3421611 -0.3656382516 0)
(107.1491352 -0.5938142892 0)
(107.2806104 -0.495693752 0)
(107.1887954 -0.5751720541 0)
(107.0815218 -0.6430877141 0)
(107.1443191 -0.6157297037 0)
(107.0835136 -0.6606663621 0)
(106.948703 -0.7708824384 0)
(107.0148943 -0.7234530501 0)
(107.0028716 -0.7370852359 0)
(106.9273979 -0.7811129063 0)
(106.7277323 -0.8794664891 0)
(106.8146705 -0.8342549148 0)
(106.7730953 -0.8395186367 0)
(106.6632281 -0.8898598851 0)
(106.677289 -0.8752356554 0)
(106.416732 -0.959310061 0)
(106.4774512 -0.9372577719 0)
(106.4361042 -0.9369299371 0)
(106.3700044 -0.9578827017 0)
(105.8925725 -1.035027283 0)
(105.9759596 -1.0138283 0)
(105.9082663 -1.010471918 0)
(105.8170661 -1.030536665 0)
(105.0594334 -1.091551266 0)
(105.1961316 -1.072423562 0)
(105.0687616 -1.065151212 0)
(104.8937694 -1.082354872 0)
(102.3794743 -1.116164044 0)
(102.9570482 -1.09953134 0)
(102.3918734 -1.089384781 0)
(101.5325496 -1.112732284 0)
(99.73877227 -1.227818339 0)
(99.44582446 -1.209794902 0)
(99.74003301 -1.200015831 0)
(99.83879288 -1.211137147 0)
(107.4496233 -0.141800884 0)
(107.5191379 -0.06964429941 0)
(107.4257476 -0.2807761133 0)
(107.5058374 -0.2045291509 0)
(107.3751141 -0.4141947198 0)
(107.4674944 -0.3397523348 0)
(107.267657 -0.5465735581 0)
(107.3983357 -0.4610804712 0)
(107.303902 -0.5324553614 0)
(107.2008958 -0.590634182 0)
(107.2582749 -0.5683223481 0)
(107.1968732 -0.6076575822 0)
(107.0542391 -0.7064468622 0)
(107.1214394 -0.6648700188 0)
(107.1034355 -0.6788678804 0)
(107.0263085 -0.7172371844 0)
(106.8161772 -0.8033046449 0)
(106.9052194 -0.7653940618 0)
(106.85733 -0.770856566 0)
(106.7458936 -0.8162217687 0)
(106.7584638 -0.8021877987 0)
(106.4909198 -0.8761477323 0)
(106.5524756 -0.8573167929 0)
(106.5082735 -0.8579332521 0)
(106.4413944 -0.8757927043 0)
(105.9526633 -0.9438155628 0)
(106.0369999 -0.9258700486 0)
(105.9666436 -0.923870307 0)
(105.8741418 -0.9407540616 0)
(105.094826 -0.9935578089 0)
(105.2350277 -0.9776752152 0)
(105.1029398 -0.9721573567 0)
(104.9238408 -0.9863134989 0)
(102.4297299 -1.016892343 0)
(102.9921148 -1.002547777 0)
(102.4425182 -0.995265766 0)
(101.6194682 -1.016163089 0)
(99.74272359 -1.12469286 0)
(99.48738897 -1.110145007 0)
(99.74333698 -1.102195831 0)
(99.82920887 -1.11079805 0)
(107.5754369 -0.1327926838 0)
(107.6438832 -0.06562670962 0)
(107.5477237 -0.2627136932 0)
(107.6278784 -0.1927302877 0)
(107.4907678 -0.3871892588 0)
(107.5844266 -0.3195838345 0)
(107.3763151 -0.5076162103 0)
(107.5072462 -0.433951235 0)
(107.4102361 -0.4986351453 0)
(107.3099629 -0.5482219891 0)
(107.3637774 -0.5308573067 0)
(107.3009188 -0.5649054521 0)
(107.1503743 -0.6542806192 0)
(107.2189804 -0.6178854115 0)
(107.1956378 -0.6326763063 0)
(107.1165629 -0.6660662913 0)
(106.8968063 -0.7422243709 0)
(106.9878551 -0.7101479011 0)
(106.9345147 -0.7172953372 0)
(106.8208067 -0.7558255386 0)
(106.8323452 -0.7447553452 0)
(106.5577737 -0.8091650695 0)
(106.6202328 -0.7931328901 0)
(106.5736086 -0.7948332675 0)
(106.5058559 -0.8099878194 0)
(106.0064673 -0.8705718002 0)
(106.0918471 -0.8555209551 0)
(106.0191095 -0.8549319274 0)
(105.925228 -0.8689772634 0)
(105.1258346 -0.9150302917 0)
(105.2692745 -0.9020429709 0)
(105.1330432 -0.8982849397 0)
(104.9503675 -0.9097158846 0)
(102.4812315 -0.9376568715 0)
(103.0282925 -0.9254377479 0)
(102.4942165 -0.9208116003 0)
(101.706128 -0.9392592216 0)
(99.7446283 -1.042169562 0)
(99.52511025 -1.030573514 0)
(99.74493913 -1.024577425 0)
(99.81869828 -1.03090436 0)
(107.6997133 -0.1258958125 0)
(107.7621564 -0.06287971633 0)
(107.6678796 -0.249017023 0)
(107.7435388 -0.1846217014 0)
(107.6041812 -0.3668091554 0)
(107.6950868 -0.3054864226 0)
(107.4795616 -0.4798722029 0)
(107.6108257 -0.4158153564 0)
(107.5114019 -0.4742566558 0)
(107.4120696 -0.5156385934 0)
(107.4620433 -0.5026317971 0)
(107.3979068 -0.5330726303 0)
(107.2390873 -0.6140445635 0)
(107.3093857 -0.5823000886 0)
(107.2812471 -0.5982539981 0)
(107.1999465 -0.6271771816 0)
(106.9707827 -0.6958693497 0)
(107.0639875 -0.6681960011 0)
(107.0058144 -0.6778128479 0)
(106.8900332 -0.7093380231 0)
(106.9007635 -0.701640478 0)
(106.6191685 -0.7575249415 0)
(106.6826617 -0.7439968512 0)
(106.6338567 -0.7469361923 0)
(106.5651393 -0.759631206 0)
(106.055419 -0.8142003917 0)
(106.1419433 -0.8017478284 0)
(106.0670511 -0.8026379911 0)
(105.9717129 -0.8141290658 0)
(105.1536314 -0.8547133441 0)
(105.3000769 -0.8443308503 0)
(105.1602033 -0.8423565834 0)
(104.9743973 -0.8513259734 0)
(102.5332799 -0.8771080828 0)
(103.0652289 -0.866899159 0)
(102.5463183 -0.8647624863 0)
(101.7915997 -0.8807774957 0)
(99.74575566 -0.9787877914 0)
(99.56074171 -0.9697256444 0)
(99.74604082 -0.9657929989 0)
(99.80810237 -0.9700291657 0)
(107.7953466 -0.1219645693 0)
(107.8767298 -0.06081060396 0)
(107.7605139 -0.2406363834 0)
(107.8550129 -0.1789311056 0)
(107.6921211 -0.3541977537 0)
(107.8017662 -0.2955585682 0)
(107.5699795 -0.4617933229 0)
(107.7097598 -0.4021957141 0)
(107.6004205 -0.4572349159 0)
(107.507496 -0.4919306685 0)
(107.5531551 -0.4849144711 0)
(107.4884155 -0.5104005889 0)
(107.3221348 -0.5852406683 0)
(107.3942412 -0.5574043423 0)
(107.3622138 -0.5750079397 0)
(107.2781405 -0.6000664999 0)
(107.0398597 -0.6630712784 0)
(107.1352793 -0.6389773216 0)
(107.0730041 -0.65145078 0)