/*--------------------------------*- C++ -*----------------------------------*\
| =========                 |                                                 |
| \\      /  F ield         | OpenFOAM: The Open Source CFD Toolbox           |
|  \\    /   O peration     | Version:  v2012                                 |
|   \\  /    A nd           | Website:  www.openfoam.com                      |
|    \\/     M anipulation  |                                                 |
\*---------------------------------------------------------------------------*/
FoamFile
{
    version     2.0;
    format      ascii;
    class       volScalarField;
    location    "2.93";
    object      omega;
}
// * * * * * * * * * * * * * * * * * * * * * * * * * * * * * * * * * * * * * //

dimensions      [0 0 -1 0 0 0 0];


internalField   nonuniform List<scalar> 
3259
(
31.99470947
31.99245187
31.98710048
31.98063791
31.97520063
31.97099121
31.96919284
31.96769058
31.93388526
31.93273959
31.9316992
31.93073458
31.98162956
31.97670864
31.95274744
31.92218425
31.89512053
31.87609504
31.84865185
31.84103948
31.80403498
31.80037761
31.79715024
31.79429945
32.01547313
32.00343488
31.95211157
31.88458543
31.82467345
31.78045409
31.7357836
31.71912473
31.67703559
31.67082212
31.66523472
31.66047189
32.205269
32.17189175
32.05263728
31.9181341
31.79635145
31.71002634
31.63727045
31.6056358
31.55462085
31.54430459
31.53582419
31.52894835
32.8865361
32.78687971
32.44104749
32.11468041
31.8446578
31.67959044
31.56082283
31.50310593
31.43658288
31.42073009
31.40880073
31.39954106
35.58979284
34.9996376
33.61118844
32.66548311
32.04078041
31.70513379
31.50886901
31.41416954
31.32465985
31.29960076
31.28306368
31.27108897
48.47065056
45.0985941
36.86271511
33.88559581
32.46604237
31.81630957
31.48425277
31.3406922
31.21844165
31.18127265
31.15882456
31.14371404
77.1936804
44.34629714
36.09299554
33.17558103
32.02340876
31.49164374
31.28050517
31.11886577
31.06604108
31.03606016
31.01736578
148.9654617
55.24598743
39.12457122
34.12764013
32.30856643
31.52437572
31.23161461
31.02604252
30.95515815
30.91627644
30.89355648
186.7018811
64.7384658
42.17308502
35.12148362
32.62104468
31.57602266
31.19205263
30.94057152
30.84987215
30.80095671
30.77372404
186.8224698
70.18159945
44.39480022
35.94343891
32.91086364
31.63123836
31.15953647
30.86220447
30.75177198
30.69229556
30.66011271
172.9123067
71.96662143
45.56698875
36.48430098
33.13470608
31.67672323
31.13026591
30.79095576
30.66068667
30.59085374
30.55357482
176.2244815
87.43313261
225.508686
183.0081435
222.0814506
227.1643001
200.3214684
219.3920658
197.2842627
47.98771323
79.77625956
44.7715473
545.8684348
185.4409955
140.8277787
60.70290691
48.76917881
1869.128123
1322.115712
184.5584931
74.80300737
64.64773128
1041.307223
1446.555107
188.0780831
82.61659632
77.36231009
580.0706835
774.4092207
2297.820296
375.922973
436.4036173
1286.675327
576.3006379
137.8428428
462.0469401
898.190107
1464.084224
1870.686287
206.9688313
1296.087023
1118.979717
928.80659
1292.581303
204.2019948
810.3587993
1018.199695
227.0301334
770.0354494
603.8400163
1106.749284
798.6555223
228.0293158
449.3865629
558.2284187
3274.427915
3690.802873
369.5995655
2007.864665
3285.548931
580.5966884
5963.235394
175.1029586
85.01204061
83.61167509
5961.823372
838.949439
931.5266264
154.8737505
408.706692
127.1932943
951.0601388
1215.316279
208.3875067
461.3290715
393.4174705
583.6684581
474.0708444
211.466235
79.79338867
162.0988492
75.33896003
81.26175911
4558.271592
382.2367061
3226.365337
430.3263056
2365.133949
344.1975672
1518.128363
1497.96046
1206.502162
1234.877536
2331.239796
5057.978914
653.2052074
2813.807615
1528.343693
5675.101976
3316.599783
681.6446476
706.2863773
800.1760432
5371.652958
902.0750472
853.9755343
1557.680729
1574.428928
1191.238249
401.6779623
391.3597991
403.7231454
403.2635157
1182.173134
1097.897944
356.4499988
326.2903877
386.2129108
365.3304957
1117.896771
860.8025145
5869.35723
876.8777886
1443.317897
1055.611301
504.0632056
1288.428828
2157.212976
6137.809769
677.7142151
4036.960086
2179.033758
2952.34789
1221.096174
3369.397849
4592.41681
155.9909421
457.7301568
143.5122349
169.3483077
1758.665571
4380.633897
4549.39092
1411.322133
1113.923077
3122.118493
2272.287474
5247.520667
5158.839652
1378.946534
1116.388148
3980.874746
4375.559339
620.5546121
261.669923
219.3220009
314.0481772
276.1747915
649.8185587
1507.198791
5183.835218
5256.507102
1776.795715
2146.132908
1968.351576
957.4267499
693.6224193
360.7547367
375.0588937
985.2861037
395.5397823
402.5502307
380.0550186
391.8830242
966.3229986
487.8399799
1016.814972
824.7925274
5227.316717
2008.871508
2443.198265
1816.844556
5920.937418
6000.025099
1470.26637
1932.075713
6174.875433
1485.578922
589.6465255
1473.844808
4583.295751
3241.724665
1073.033344
5292.543026
6116.426502
4659.716191
1338.113914
818.2591929
2184.2279
1474.205394
736.1043006
461.9548571
1341.078901
4724.956726
5990.772734
1671.738859
1432.045175
4600.024814
4735.325625
3432.141561
3233.208834
1141.165018
5520.78333
5420.676558
4029.414632
5367.543511
5378.870959
1341.42926
5299.853716
3528.661589
3428.777361
3852.480853
2100.411349
983.9558246
1063.363405
4362.258901
1242.574518
1407.413107
1095.655567
1194.006506
4090.868591
4018.366365
1140.392955
1350.773071
2837.702082
2958.291576
1058.154507
4235.224704
4285.147558
5420.976226
2907.354203
2423.269078
4144.710328
2872.050747
716.3175841
2030.018975
2708.838923
5066.146669
5133.496974
1520.753
1704.632607
5359.039289
5046.168698
1844.102982
2163.53074
1466.888385
1714.63683
6102.556494
3439.271133
3781.264541
2315.591406
3319.630171
6185.477953
1533.762682
6089.729135
5257.655958
6068.253458
1645.104797
6075.674247
71.26253511
45.36555686
38.07589025
6115.304322
6089.883411
84.99700707
6357.790493
383.6703472
320.1187781
189.8131162
378.0066665
256.4526578
604.5293614
2178.656745
368.9307171
407.2434747
58.23122894
69.27372123
140.415392
476.1261806
950.6919594
1405.702183
977.0090248
1088.2393
3520.397651
787.6907594
693.043738
408.5111526
1528.57526
1952.602655
673.6320972
4863.654322
4187.626951
6032.358708
5447.103588
953.0029746
3525.445845
5778.736858
3976.136742
4399.374703
5896.664594
1772.556668
1422.505883
849.8192843
204.3459559
161.2342855
292.3422413
1037.011976
2801.814865
1964.495967
105.3047925
136.4449415
359.303597
3705.311501
2427.884561
1873.265247
4858.576849
3759.393213
2563.849963
4525.326369
4140.92501
6292.65381
5974.953371
4446.11848
893.3265177
961.8125926
1928.262779
5828.401976
3262.786527
3607.40636
4735.576533
2992.467395
3452.020752
5799.087482
5737.530989
3787.790457
3996.30249
5828.677994
5783.247607
5988.394563
938.3900764
1895.851482
1581.907473
6094.261989
5997.79188
5915.278492
4690.906284
4382.299345
2667.498369
1452.227545
2061.844346
1629.387489
3850.331575
6052.589425
5227.284933
6127.505658
5874.464953
4313.823954
234.0866731
336.4645771
1149.842302
4541.471665
4447.922716
4627.200968
4617.680553
4472.87269
2890.908615
2868.72855
2910.009243
2893.73127
4470.886676
5287.038765
2982.525609
3005.661673
2859.574476
2944.00462
5374.24667
4152.816419
2626.704857
2364.519853
2848.868454
2773.759283
4254.528557
5163.795583
3064.062571
3086.188848
3032.339006
3044.752837
5210.766448
4724.477392
4645.272874
4823.351519
4602.739635
6133.21302
6361.784892
5980.67121
4684.881036
6173.288987
2963.992392
4275.369347
2998.442968
3956.828329
2973.067124
1219.752821
4037.868065
3032.552154
5979.776983
6192.656868
6121.021976
4716.268203
5356.033001
1348.668072
5944.309498
6208.9778
5855.906227
3499.630814
2509.762331
3501.438698
1853.152245
2697.686437
3628.884799
3976.380405
3661.352614
4890.115982
3090.087201
2933.612203
4205.232662
3047.009138
4517.064404
4639.679089
2928.170095
2913.939299
2953.406208
2924.433801
4666.591605
3362.088064
1998.71837
2034.265475
5459.161355
5450.187622
4694.041009
5824.495953
5630.478644
5499.135703
5457.5407
5688.754109
4428.109491
2391.239693
2667.844095
2088.642319
2193.429314
3793.28295
6003.559239
5091.76695
2944.363657
6327.976339
6060.663103
6040.479391
4053.329275
5997.742363
5804.469403
2458.735102
2779.621315
5046.401852
2836.730575
1931.269303
1901.419877
2123.160981
2053.956322
2998.161369
4494.847468
4201.669321
2720.132797
4046.828362
4252.123763
3790.949525
4003.54195
2673.855819
4050.261672
3962.497963
5160.641754
3787.721884
5106.811491
3143.951427
3163.230962
3100.631812
3118.951654
5089.621087
5092.916784
3479.988233
4025.540269
3203.715049
3283.008546
5070.29145
5736.192534
5602.510226
5909.045849
4275.431334
4952.400741
3563.408417
5635.196475
5703.309221
5619.22723
5632.396883
3631.808861
2587.051768
4865.739373
4168.511295
5530.651789
5669.769572
2999.353511
5858.566926
3975.518125
4210.165084
3053.743776
3571.50025
5960.31637
6046.637958
5854.513766
4570.435054
5143.880287
6367.445173
5885.095393
31.99291047
31.97865353
31.99654769
31.9952018
31.98030598
31.98940995
31.95875333
31.96099297
31.94691741
31.90238387
31.93086742
31.89006924
31.8501421
31.90192684
31.83919048
31.80960063
31.88049588
32.1130785
32.01097962
32.12126981
32.12497369
32.00895964
32.10690598
32.04110946
31.96615311
32.01618072
31.92509615
31.90179038
31.89807343
31.82103272
31.83790296
31.79713352
31.74041073
31.78905765
32.57076996
32.19322656
32.58843904
32.60756729
32.18063885
32.54375525
32.38571821
32.08834377
32.31993006
32.09677611
31.95262695
32.03045562
31.86526136
31.82366078
31.8201987
31.71245405
31.72826484
34.29715756
32.83967849
34.35732874
34.34913314
32.79990326
34.03721867
33.45998928
32.53032704
33.2305821
32.61781776
32.19572828
32.4511522
32.06923569
31.90193103
31.97136225
31.7489526
31.7144384
45.39044166
35.36113724
45.38662506
42.60281255
35.11645029
40.13219968
36.67849472
33.90179119
35.77689204
33.88458501
32.87306986
33.45019099
32.54168524
32.16618866
32.33031658
31.88180618
31.7713835
67.71358132
65.31140822
48.33937822
51.81396882
45.17873082
42.08296057
42.02555346
36.43848769
34.42641672
35.37545597
33.38684092
32.72817051
32.96850125
32.13749849
31.93446876
104.7535971
72.9204689
60.29499148
52.47785862
40.31577837
37.36512797
38.23463952
34.58496589
33.67264156
33.86841597
32.50699156
32.22195421
168.7647778
102.5355114
91.89928142
62.7233122
44.46150331
41.45504515
41.33754108
35.91313054
34.94131276
34.87325276
32.93139491
32.61161737
189.829981
118.596219
114.3585582
69.21970239
47.6829447
45.47425572
43.84986835
37.0550086
36.26079298
35.75293463
33.32476313
33.03097526
182.5226452
121.4239358
121.475776
71.80096499
49.45995689
48.31407125
45.32570988
37.8329943
37.3273558
36.36286401
33.62974538
33.4081321
167.474394
124.7934813
125.9050963
49.71021524
37.98253479
33.68872585
162.1051353
223.9182568
253.3855345
100.4316487
119.2711232
100.1287863
222.4654874
326.2378899
328.6681814
262.585358
286.5097516
195.6139288
223.6808922
302.4767307
299.3428388
328.4919968
325.849243
228.4267338
202.7580146
238.8260263
234.1420123
271.9618431
266.1368544
216.9995706
229.1860496
224.9814756
194.9200037
1842.274377
1608.220888
1716.141131
68.03333158
2410.719352
1813.822543
69.96872989
76.13614413
89.32574703
46.97102749
62.74260943
54.94474219
519.7895785
602.5981274
646.779259
240.9925236
288.3376609
232.5871129
88.78986708
75.79552456
113.7331894
56.59720177
67.14545729
73.09490115
55.56220856
61.2368768
52.60221842
1856.173572
2870.211749
2875.502914
1903.940917
1939.956895
1356.895884
112.5576493
105.1535466
173.7426997
71.77818827
88.34718583
92.22827631
78.69103382
83.85998303
68.39873101
1065.419293
1310.32124
1269.812624
1950.358319
1931.564284
1429.138709
121.2221893
119.5180642
189.7734077
81.24486708
99.65038775
100.9928454
95.31970232
97.84452968
79.52840827
602.2438877
786.6316722
750.7259015
1138.000716
1051.896753
742.4336107
1485.912711
1617.917752
2626.808265
399.5373961
663.6865352
589.0103978
517.3304044
500.5510837
427.8227381
1237.399097
1800.822164
1867.987984
712.5217383
760.0472748
604.2346136
180.5065003
212.9129675
153.115349
490.4178722
369.3489082
338.3837257
533.1209351
507.6085973
786.702992
1478.613713
1983.376957
1970.327934
2863.755508
2846.052933
1860.510493
314.7702311
324.3091184
208.8825986
1268.070356
638.7361777
654.5842483
679.8406151
686.8504882
1149.730525
1010.867821
578.1231886
555.255822
653.8845716
652.0252752
1235.926912
197.1266769
293.301868
310.474492
846.2794859
1292.765033
1171.525569
1234.965503
1206.443658
997.2672437
314.615263
306.3237699
225.9079525
744.6228115
561.2281794
574.5109038
340.1981983
354.9681417
668.3278555
1063.314497
662.189736
672.3446825
588.0986613
601.7372362
898.651365
228.3852022
323.8663146
317.5941325
460.1219955
557.0128178
536.9866088
718.291648
687.1550956
539.0492907
565.8400315
1363.313058
804.7736986
1563.050085
933.9408488
127.5483395
121.1663507
180.5501605
84.75939878
102.2583772
102.0979687
101.7453106
102.2241006
84.33296895
877.7021509
1329.224387
1129.777396
1044.80808
1022.037333
904.5127876
248.2827208
147.0468881
112.0181111
309.9996409
282.0158995
378.4990602
111.7387333
136.5873468
168.462013
978.9737099
1132.187954
1091.396538
1636.779955
1516.481018
1165.83168
249.6609628
244.347254
205.8791751
429.144931
307.0594018
299.4783726
288.0442178
296.6775974
418.8788337
531.0541988
321.1002561
335.3500737
302.6202076
316.8343884
514.8745781
213.9845159
260.6504522
254.8028492
120.4320367
135.6485192
156.8550971
183.5091841
76.53880076
110.5861267
93.34740007
127.5354164
120.6056909
78.46241834
563.4443228
869.5165357
464.3933654
1085.864242
423.817691
309.9058712
1613.123826
1376.767292
2282.264553
268.8015261
393.2061405
516.2734535
2073.68715
2148.681949
1552.672404
1473.898417
2036.090595
2072.930824
1517.200353
1488.181578
1185.857592
1264.368424
1608.19756
1555.0102
862.7724946
823.2616072
627.4631746
2469.174333
1603.210966
1728.232176
1182.831973
1224.767282
1626.244636
1882.877841
2028.078867
3693.825642
709.4120842
1020.794495
976.8710261
735.6168845
885.3080383
844.3927548
1073.801848
989.4400921
768.2155745
1275.139699
1332.437249
951.5216648
804.7209063
1128.895134
1196.929003
2056.919477
2045.797691
1545.474622
1599.048628
2117.836441
2077.556596
695.6288217
697.0590438
1243.59188
399.0243119
513.1359606
515.2483385
504.6572746
509.7198788
395.7451284
404.2032566
514.6059833
512.4164931
516.0215247
515.6622195
404.3077208
1158.956311
691.4387564
694.2224719
617.8400144
597.4878243
1034.009093
347.3922146
443.1707701
453.7378264
413.7251713
427.0432095
336.7384659
380.0097986
488.7010756
497.5028915
468.2710844
476.0555119
373.0344119
1202.326446
653.5954618
634.3479962
1507.150185
1347.881853
778.6331588
898.6297715
1069.107532
1045.681723
1229.111779
874.5820389
879.1595847
797.7634902
834.3347122
1175.901476
520.2319328
657.2860514
629.7608087
1361.451523
1987.082735
1797.31277
3940.304431
3510.084373
1972.397207
804.8031501
2435.022448
4159.394744
3804.502644
148.4200825
226.0205286
284.3329843
191.1759055
131.7943858
426.3257938
222.3124082
337.5244658
404.3903375
588.4851227
159.1713339
244.4735343
201.258936
287.706419
278.8883795
166.768016
2682.544329
2819.020295
1822.276188
1382.535139
1959.030422
1988.880477
1396.30846
1354.343399
1090.759575
2854.705532
1786.956117
1872.021378
1599.776201
1686.003385
2505.485773
1406.042253
1899.75411
1854.764188
1585.851743
1709.876126
1182.106089
427.9365199
393.9597187
549.1078386
248.2748562
303.8200718
322.8913279
263.7625362
284.2273737
233.3040944
302.3656901
380.133918
395.9593306
343.1028836
360.8520907
288.7971504
749.6619389
482.7168331
455.2766155
2011.260403
1998.843889
1493.859179
1833.4545
2780.730196
2631.379164
2075.850043
1493.789796
1536.882704
1420.554362
1454.805391
2020.740108
977.4160379
1179.002745
1154.208674
534.9671513
547.9097786
718.0352574
365.2560237
443.9331284
436.2385241
459.4841181
451.9465333
370.6701534
638.6472899
651.5235904
1043.05006
398.2221574
499.9485335
494.2725636
509.171609
505.0103198
400.9174534
384.047761
474.3732378
467.2017514
487.9826361
481.5191148
388.4830608
923.6514649
613.8158523
627.0410638
603.634955
579.8556502
474.506419
958.368384
728.9185827
761.663351
667.4609157
697.5081217
862.4544305
1154.918814
1836.119492
3124.562394
1583.295337
2523.471437
2244.535435
3285.832329
2868.416159
1740.061081
759.0048255
4224.787947
2333.933849
2621.273379
1874.4682
2091.469743
3775.33128
1108.431122
1412.794679
1322.450813
1105.169932
1662.514359
2069.811854
1199.492506
1509.746241
999.4420586
2300.32914
2692.778188
1737.835425
603.7562893
848.9642963
1062.720628
594.6918596
726.9640323
543.4459166
1666.74416
1061.009466
905.5797134
1602.612836
2208.212097
2427.129303
2001.415506
2029.919961
1457.013722
1927.252956
1966.345801
3316.252559
1160.908555
1460.242365
1431.018527
1774.925129
1685.454699
1303.441679
1432.226683
1505.712739
2254.066585
1008.771947
1174.079432
1136.293811
1276.81681
1222.251036
1035.55505
1289.827193
1732.394451
1618.731038
2006.43205
1876.051587
1351.987347
1122.755682
1402.375249
1340.045984
1530.545253
1466.265101
1163.216504
3867.658521
2148.810846
2275.197415
2333.486404
2660.069312
4448.112507
1190.547925
1619.139683
1486.387706
1975.715746
1777.170621
1277.046781
999.7955202
1405.0806
1487.170438
969.86887
1033.269673
754.0523445
2262.356241
1522.356031
1427.582999
1778.823096
1695.39511
2577.781911
1532.618863
2033.759458
2023.642592
2390.868059
2207.783394
1641.801981
1964.344005
3526.852289
3183.177703
3897.15865
3694.156892
2061.670143
1526.593581
2235.601
2120.37408
2714.838276
2410.493378
1607.180252
2372.255206
2186.017248
1448.159955
1790.583238
3023.000625
2622.340116
57.99903407
51.66253084
54.44264027
42.4018813
45.63392504
50.46757584
39.60921439
42.5041262
40.07319105
101.7366872
101.1952972
84.87143682
369.5157206
271.2350023
278.6994458
256.4445956
263.4143963
331.3825702
340.2480498
529.1310761
610.5330994
323.8548213
408.4206963
338.6220844
1428.900572
567.7092522
515.3165302
966.2503832
1701.339491
3439.60185
399.2462932
627.775984
524.5733388
697.4953393
690.6213954
412.1324125
84.93059169
75.10084392
65.92928623
104.5953596
87.08437142
94.6361433
513.8040017
553.4353685
495.8404878
1117.051162
770.7889319
676.0125159
939.6324231
832.3287156
1208.241467
1011.985761
1202.904142
1142.989883
1373.464417
1279.808159
1047.971105
3045.514567
1803.849145
2036.258754
755.4065352
613.3051055
639.335738
565.9078292
588.1819256
722.8037183
1725.636338
1129.867697
1028.007798
1306.213561
1223.647706
1788.178476
640.4924211
834.836948
884.0656969
1084.761746
1640.724759
1220.146259
1273.910032
1112.696796
1152.634736
1527.857244
890.4162717
975.0420091
977.2688856
189.9324418
224.1169526
244.499694
323.3363849
251.319615
228.3261604
1247.062511
1187.226602
1005.514623
2479.965318
1567.85037
1695.886555
1363.187682
1450.562728
2196.177862
113.36172
127.6290751
119.8015535
164.2949222
149.904679
120.952986
244.0664876
179.7973188
234.9320638
918.7754071
1030.776525
1011.959749
1096.68778
1067.250522
937.2081492
1767.341568
1291.897224
1354.891095
1126.072343
1100.215729
917.2828665
1797.30943
1333.234316
1377.466463
1241.340826
1280.793648
1678.109339
251.5877457
324.7440891
285.4055156
440.5382686
383.0231283
288.4048509
805.8609486
511.5888131
669.3338031
31.98258884
31.98236526
31.99445797
31.97918049
31.97198313
31.9899346
31.9628553
31.95308331
31.98381569
31.94327386
31.93435148
31.97772238
31.92667425
31.92050431
31.97304233
31.91643236
31.91141875
31.97018855
31.90837583
31.90616382
31.96842302
31.98305741
31.9842113
31.98250471
31.97778102
31.97164413
31.97158769
31.94698497
31.93762538
31.94597645
31.90930309
31.89952372
31.91560385
31.87480389
31.8674618
31.8902239
31.80324644
31.79864238
31.85374056
31.79094436
31.78480335
31.84449441
31.78048135
31.77828556
31.83831424
32.03670186
32.04061184
32.0164676
32.02662693
32.01111598
31.99348605
31.96420175
31.94358723
31.93526153
31.88518622
31.8642637
31.86769805
31.81270374
31.79713309
31.81116179
31.72576598
31.70092407
31.74762909
31.68419233
31.67156811
31.7265455
31.66250605
31.65717358
31.71357897
32.28350108
32.29433458
32.20431609
32.26082565
32.2228196
32.15536465
32.12346108
32.07671901
32.01908786
31.94142691
31.90181188
31.8839941
31.79868928
31.76948689
31.76966782
31.68347653
31.62812085
31.66168963
31.59593436
31.57161825
31.61953227
31.55421088
31.54318105
31.59536209
33.17231291
33.22260339
32.87257636
33.06252649
32.95653137
32.73418354
32.65833258
32.52968179
32.35936105
32.18940572
32.09750858
32.03767792
31.87512884
31.81647378
31.79464626
31.6944379
31.58618612
31.60496655
31.53185447
31.48870874
31.52760618
31.45793186
31.43769457
31.48547999
37.0289551
37.26898683
35.49061702
35.98213439
35.48017886
34.69973771
34.19550984
33.79155222
33.34540836
32.85543261
32.62675937
32.47833158
32.11970131
31.99578824
31.93561138
31.78302331
31.58916283
31.58391652
31.49313365
31.42597014
31.45462789
31.37621047
31.34131864
31.38592494
52.73706171
52.84013771
49.40259441
38.28419824
36.90975376
35.88139024
34.2799274
33.72498662
33.42827827
32.61379387
32.3658264
32.25293154
31.9648708
31.63176459
31.60317875
31.48573918
31.38319594
31.40225696
31.30944772
31.25561532
31.29590136
86.1863305
77.44586911
71.00772304
46.93383329
43.0646522
41.27373456
36.71244386
35.54601529
35.09142792
33.39060565
32.94694233
32.78284143
32.23236506
31.72757199
31.67456737
31.50474038
31.35743676
31.36818126
31.25525006
31.18014391
31.21647616
155.6860912
129.7629573
124.1435622
57.9333598
50.92731325
48.99390578
39.81545728
37.8614485
37.35139212
34.37466731
33.68447855
33.49548023
32.54562763
31.85742706
31.79055943
31.54907798
31.34674498
31.35045064
31.21197107
31.1138333
31.1467054
188.2688873
157.3207365
155.6188312
66.50822155
57.45175643
56.07540677
42.69470976
40.05729173
39.66195755
35.34392883
34.41783554
34.24304049
32.84719827
31.99408968
31.92723315
31.604361
31.34703598
31.34621406
31.17745272
31.05573172
31.08553832
185.6394675
158.9930994
159.5402221
70.92166109
61.18809843
60.53622996
44.69273559
41.63813324
41.41276916
36.10501453
35.01251264
34.8784366
33.08912143
32.1148018
32.05836647
31.65615362
31.35018489
31.34805495
31.1484856
31.00418586
31.03129781
171.2403937
150.0753523
151.5202588
71.99444799
62.48871857
62.32044803
45.70541428
42.4568106
42.38461148
36.52634401
35.35665245
35.31354158
32.1635088
31.34976187
30.98166925
53.22064957
117.9883673
111.5963801
132.3869564
153.3902813
150.7564006
181.763118
160.0673022
160.3136023
188.9161574
383.8517075
432.6540644
423.457801
704.6318308
682.5839596
862.8769323
1295.230991
961.3957325
960.2616156
897.3959679
904.5305613
1129.677775
958.5215238
742.026063
720.8094506
955.6495313
948.9113197
1281.859136
486.3223349
497.5698569
624.7254765
1094.379756
881.7750925
890.1335211
412.1018756
152.6105724
153.908839
176.8136836
183.9414012
152.9775895
140.0544484
450.2091133
388.9819411
395.8341029
345.6893394
352.5876004
400.6251218
565.1747001
464.0411643
474.4850902
406.068412
413.5497003
486.3807474
74.46118222
83.75172207
87.66955022
89.75169453
89.68008612
81.20650818
621.8734237
440.3743428
355.1745426
936.8801779
939.8263368
1202.678303
1175.042459
930.2344683
932.8573625
843.3927509
826.1964707
1077.377569
1141.077665
874.1364798
857.4997189
1014.983877
998.4079939
838.7463928
1364.476289
1099.773972
1130.869638
930.5593067
955.6190429
1088.778847
568.611007
555.4023947
591.2742382
681.582262
596.9936353
578.3268272
817.8652569
829.4830017
1002.036896
953.4188175
795.9885398
807.6094466
996.4060412
886.6971457
912.2242628
65.89934602
60.53978093
63.80585542
378.2636873
332.459323
339.8874533
192.0362706
220.6229095
216.91055
61.14275181
69.68950874
65.21421199
122.2456863
111.6293908
118.2308696
415.9151759
484.0990979
469.8902286
186.4611389
205.1041446
175.2830569
315.6018753
263.9203984
283.5768697
31.98425071
31.98002619
31.99856604
31.98895952
31.98745611
31.9856282
31.98849013
31.99885548
31.98204295
31.98373769
31.98154339
31.97991838
31.97382848
31.98137499
31.95584372
31.965949
31.97072541
31.96522091
31.96436125
31.95554474
31.93215157
31.93179676
31.94528916
31.90926744
31.92149828
31.91831172
31.93743772
31.9285094
31.91843218
31.87567859
31.886083
31.89844781
31.8648585
31.87608248
31.86339625
31.90773323
31.89093452
31.8822496
31.82778494
31.84654047
31.8560383
31.83134891
31.83912404
31.81866061
31.88462511
31.86127551
31.85533753
32.0720591
32.03123005
32.12769098
32.08020614
32.07957818
32.06613761
32.07359487
32.13188036
32.01357822
32.04190794
32.03699095
32.08279886
32.04682014
32.05904095
32.00474058
32.02892077
32.06152573
31.98171618
31.99719166
31.98115665
31.98601085
31.95778211
31.98136604
31.91156183
31.93558822
31.95554008
31.91965906
31.92459519
31.90430287
31.87108669
31.86573993
31.88896292
31.82155466
31.8437513
31.84589748
31.85340276
31.84572459
31.82861164
31.77696795
31.78551188
31.8036759
31.75420614
31.76947173
31.75779306
31.79993479
31.78354992
31.77100587
32.41969723
32.2719324
32.611036
32.43694377
32.44175332
32.39651142
32.41347573
32.62769034
32.19190539
32.3045712
32.29349852
32.48231872
32.35946251
32.38631813
32.24645124
32.31117514
32.43060861
32.12734425
32.19035853
32.16224758
32.24396923
32.1406278
32.19105698
32.04007247
32.09124073
32.16846256
31.98669838
32.02931251
31.98336136
31.96976235
31.93783885
31.98845984
31.84564907
31.89005444
31.91522199
31.85239982
31.86486442
31.83028052
31.77961764
31.77228025
31.80618968
31.71295223
31.74193892
31.74452814
31.74861152
31.74191987
31.71979894
33.65474719
33.14328229
34.47295919
33.71907891
33.75643743
33.56980132
33.6428286
34.45994778
32.83126296
33.23987495
33.19870439
33.83032093
33.41727534
33.54033318
33.0279674
33.22094067
33.65321769
32.64052146
32.86609458
32.77840499
33.00818063
32.72733252
32.87212034
32.45746989
32.58950286
32.80347087
32.278264
32.40590323
32.29251311
32.30685242
32.20969721
32.32866442
32.00408813
32.10222016
32.18144669
31.96715744
32.01582558
31.94104577
31.88594583
31.84699585
31.91943601
31.73147865
31.78510718
31.81212808
31.751346
31.76495049
31.72008672
39.51724606
36.85468693
45.28803311
39.69873021
39.90175508
38.49929198
39.21451862
43.71117142
35.32490775
37.12638652
36.74690009
38.71534897
37.14135293
37.9612004
35.43925868
36.1495089
37.73317227
34.26102503
35.08625695
34.63976254
35.02894324
34.34056643
34.8529583
33.50527897
33.89184197
34.40204242
33.09945183
33.43418484
33.12619589
33.0885411
32.87439349
33.16758614
32.40223353
32.62082892
32.79182434
32.31274992
32.4325846
32.26457583
32.15364828
32.06814174
32.21881597
31.83750082
31.94300868
32.00560977
31.84711618
31.89018637
31.80110764
67.58848611
59.78851333
59.55203713
57.32309121
58.82479502
67.45214643
49.09738185
52.93702212
52.65701754
39.60895461
38.16296024
39.97445532
35.70873793
36.77854759
37.80304816
35.08150842
35.82631947
34.9712395
34.5494953
34.16829154
34.8597029
33.15239828
33.60701746
33.90414493
33.04648373
33.28133437
32.9161044
32.63134543
32.49171416
32.78550464
32.06319578
32.2550516
32.35843069
32.07852182
32.16185269
31.99422862
90.95154081
83.98546014
94.40048174
67.69131895
74.23722023
79.53037739
46.98698164
45.0155233
49.65971549
39.33793407
41.72582568
43.11804895
39.02952949
40.2875998
38.25068721
36.67870841
36.1828003
37.5556962
34.2861967
35.11649593
35.49938723
34.29943985
34.65147916
33.94860256
33.30409413
33.12741564
33.63617678
32.40833235
32.72621216
32.85876782
32.47122674
32.59394051
32.31132038
139.6910282
134.9405741
162.699127
98.99811757
113.9687336
117.9307973
105.2355203
109.8211907
96.07055247
54.49613458
52.79515778
60.42981375
43.56076189
47.43098074
48.68117622
44.61152571
46.00348763
42.4447413
39.01492684
38.53784753
40.70380888
35.61773126
36.88475994
37.26064998
35.99007935
36.3892429
35.25597195
34.06140027
33.87943793
34.63790477
32.82639692
33.28834449
33.42727112
33.00041306
33.14320184
32.71869333
159.5864183
158.6762459
189.2605894
117.4018629
134.9880861
136.2014343
131.8468623
133.6620512
116.0305094
59.68664769
58.66754865
67.9833371
47.05850381
51.97994241
52.78235235
49.93356119
50.97572707
46.23218339
40.94623216
40.61156002
43.38735477
36.8346617
38.48057957
38.74118457
37.73628661
38.06458398
36.53030159
34.73489037
34.58159277
35.56178912
33.22975273
33.82077706
33.94153037
33.56132686
33.69669203
33.13593632
157.2340226
157.9347388
183.9354303
62.10416712
61.73777779
71.45678985
49.21718797
54.59415339
54.90132043
53.52893945
54.04637441
48.71225797
42.16604979
41.97448509
45.11906373
37.69410882
39.55822617
39.72582174
39.11106084
39.29196768
37.49437606
35.21906054
35.11976135
36.24669171
33.56038183
34.24280925
34.32500674
34.05116562
34.15929719
33.4953758
55.153709
55.36792748
49.91505024
39.90501812
39.96765986
38.03104134
34.40068854
34.44082177
33.73268268
233.8565632
200.5339302
191.5859016
214.6174097
206.754057
244.0425243
327.5633061
273.7300446
271.8198941
276.0945902
274.9674309
328.4302105
271.0534849
227.7220367
220.7100258
239.3734198
233.5237156
279.1280533
300.2402137
263.4406934
265.6892187
328.0200554
277.0637934
276.6766292
276.8228595
276.979624
326.8669927
58.03393289
51.55271627
50.5178816
46.58535246
59.67358167
53.84965653
55.09977882
50.14955067
51.46190658
57.02149689
84.05470694
95.39266562
100.4671686
84.84925601
90.20174232
80.95230986
123.5541699
104.8105338
97.90212875
110.2846821
127.3021698
129.8425077
121.3563528
124.6071715
108.052245
178.2738629
147.5992574
143.919123
120.8361357
137.8975649
138.0508651
136.9351104
137.5989691
120.2847863
189.514409
160.4022057
160.164698
1108.959484
960.1667547
983.3403165
915.4314304
939.1035678
1076.149093
456.2035516
444.4524641
391.3983898
637.7489704
525.2773756
543.9667907
491.2059962
506.2025796
611.4387282
190.9541799
169.7963079
159.3545362
185.3607435
175.8078482
202.5567081
826.0292636
666.0818472
644.0849413
318.6029831
264.9464115
261.6089942
269.9067263
267.368719
321.6547426
955.5216902
960.1294823
1285.723009
655.5958661
732.1679745
756.098588
719.9184558
728.3823475
655.6933569
1140.264044
910.6998095
916.4887613
777.8854428
757.5571421
984.7011807
652.823756
701.5199313
712.4158343
676.5807589
690.4551704