/*--------------------------------*- C++ -*----------------------------------*\
| =========                 |                                                 |
| \\      /  F ield         | OpenFOAM: The Open Source CFD Toolbox           |
|  \\    /   O peration     | Version:  v2012                                 |
|   \\  /    A nd           | Website:  www.openfoam.com                      |
|    \\/     M anipulation  |                                                 |
\*---------------------------------------------------------------------------*/
FoamFile
{
    version     2.0;
    format      ascii;
    class       volVectorField;
    location    "2.88";
    object      U;
}
// * * * * * * * * * * * * * * * * * * * * * * * * * * * * * * * * * * * * * //

dimensions      [0 1 -1 0 0 0 0];


internalField   nonuniform List<vector> 
3019
(
(99.99812474 0.004502031555 -4.494397227e-21)
(99.99762247 0.01488243645 4.516323588e-25)
(99.9961851 0.03055792268 -4.482273386e-21)
(99.99379664 0.054957957 -4.447797527e-21)
(99.99981073 0.04245076403 4.282309694e-21)
(99.996994 0.06835585907 0)
(99.99548407 0.1078854318 0)
(99.99511938 0.1611411094 -7.379032309e-21)
(99.99395586 0.229484039 8.525003744e-22)
(99.99339119 0.3090859462 -5.427901767e-21)
(99.99416767 0.3886057564 7.621926486e-22)
(99.99508188 0.4494947455 0)
(99.98320973 0.01211195749 1.801785131e-20)
(99.97726341 0.04053970273 4.496459288e-21)
(99.9638306 0.08394829292 3.137918939e-20)
(99.94085899 0.1518966797 -1.343859339e-20)
(99.94568478 0.201567791 4.316392751e-21)
(99.91108504 0.327960826 -5.915750838e-23)
(99.86734001 0.5180102909 0)
(99.84561665 0.6842761895 -7.486952965e-21)
(99.80214637 0.9860258934 -6.858877533e-21)
(99.77521041 1.349032877 -1.170226377e-20)
(99.78540067 1.722078805 -4.707855383e-21)
(99.84320321 2.019021779 -5.659918997e-21)
(99.95484211 0.01586871627 -1.797770756e-20)
(99.93797678 0.05423456846 -3.611993014e-20)
(99.90127973 0.1149926173 -8.086344885e-20)
(99.83999789 0.212900652 1.075563846e-19)
(99.81186818 0.3193754995 -8.88658714e-21)
(99.70803626 0.5348726798 -8.600923442e-21)
(99.57214708 0.8628444547 -1.490671377e-20)
(99.5026753 1.212269285 0)
(99.3623218 1.793923342 2.847742158e-20)
(99.27808778 2.508214608 -6.389773236e-21)
(99.32448928 3.266297137 0)
(99.54486137 3.917547954 2.475997127e-21)
(99.92133315 0.0133859179 -9.072261886e-21)
(99.88889687 0.04850506045 6.348538725e-20)
(99.81946646 0.1116447594 -1.816724493e-20)
(99.70609355 0.2175045141 0)
(99.61814798 0.3678333741 0)
(99.41451605 0.64637615 -6.981650889e-20)
(99.13526252 1.086260666 -1.395305176e-19)
(98.92512405 1.610172472 3.269100916e-20)
(98.60074817 2.458909246 1.58539355e-20)
(98.3802013 3.547214346 1.201623118e-19)
(98.4034382 4.828698476 5.504728025e-19)
(98.86456729 6.064157304 -2.701990571e-19)
(99.89776564 0.003128258708 0)
(99.84712098 0.01819210727 0)
(99.7396858 0.06504063384 9.196206597e-21)
(99.56323862 0.1543496645 1.386939617e-20)
(99.40144339 0.3277388007 2.294190473e-20)
(99.06480047 0.6279221988 0)
(98.59754168 1.108943508 0)
(98.1676328 1.76581865 -3.464676646e-19)
(97.56782207 2.819367323 0)
(97.03090405 4.307824088 8.716947463e-19)
(96.80867064 6.303573173 1.282446175e-19)
(97.45137713 8.617269321 -1.374557582e-18)
(99.90103803 -0.0154541701 0)
(99.83169236 -0.03853945173 0)
(99.68633471 -0.03076809343 -1.840862246e-20)
(99.44320447 0.01860607041 3.758466819e-20)
(99.19705617 0.1834365975 0)
(98.71337181 0.448473478 0)
(98.02685029 0.8953661511 2.946170342e-20)
(97.34705325 1.577905821 6.387945133e-19)
(96.34508927 2.690306443 -6.968683409e-19)
(95.21827889 4.429581193 1.734110404e-18)
(94.16799545 7.254926722 3.353955839e-19)
(94.33827172 11.65092321 -1.059900898e-18)
(99.94748804 -0.04190922329 4.505849252e-21)
(99.86128217 -0.1197531544 -4.541103638e-21)
(99.68313795 -0.1724212802 9.274807414e-21)
(99.38135519 -0.1901256056 -3.391125535e-20)
(99.04174188 -0.06737432783 7.254372642e-23)
(98.42556894 0.1045557618 2.91424984e-20)
(97.54999165 0.4266924575 -1.53252191e-19)
(96.5987298 1.006439329 6.94241536e-19)
(95.14777896 1.96846957 1.27582695e-20)
(93.20688504 3.567737559 6.293892571e-19)
(90.40553916 6.519214317 0)
(86.91076223 13.68975251 2.470851578e-18)
(100.0511952 -0.07465409321 -4.506322269e-21)
(99.95219281 -0.2202883759 4.542730067e-21)
(99.75032097 -0.3498261534 -5.771937921e-21)
(99.40615838 -0.4556007755 -3.89100218e-21)
(98.9874875 -0.4074398428 1.66150064e-20)
(98.27161979 -0.37619776 9.928207949e-21)
(97.27411153 -0.264774568 7.61093708e-20)
(96.09494695 0.09333994527 -1.290499827e-18)
(94.30708314 0.6607604075 -8.386683082e-19)
(91.7289093 1.561882827 -3.519657502e-19)
(87.33664088 2.933910872 0)
(78.5155255 5.609343994 -1.290041922e-18)
(100.2224267 -0.1112390326 -2.173709413e-21)
(100.116238 -0.3325382058 -1.63379182e-21)
(99.90237318 -0.5484930911 -5.604821162e-22)
(99.53703874 -0.7545143795 1.699891477e-21)
(99.06154371 -0.8037270784 -3.323863641e-23)
(98.30089441 -0.9424995062 0)
(97.26200687 -1.078924926 8.727232066e-20)
(95.96282698 -1.014642937 -2.890719374e-19)
(94.06775753 -0.9383455044 -4.686862394e-19)
(91.43848784 -0.8937331122 -1.118448653e-18)
(87.38818826 -1.366990044 1.063370848e-18)
(81.82542446 -3.545894915 -3.575578442e-18)
(100.4661434 -0.1487336424 4.282281361e-21)
(100.3589886 -0.447469377 6.628346875e-23)
(100.1458923 -0.7514010427 0)
(99.78230879 -1.060220669 2.202371996e-22)
(99.27809064 -1.217235977 -2.281016144e-21)
(98.53071154 -1.528869208 2.439434942e-21)
(97.52812106 -1.904917553 8.933294809e-20)
(96.23664315 -2.123903824 1.540198029e-18)
(94.45483264 -2.463277044 4.463601805e-19)
(92.12103528 -2.999489334 -2.692650039e-20)
(88.94207294 -4.191750782 -9.665806611e-19)
(85.51799644 -6.294422349 0)
(100.7814883 -0.1843109847 -2.10838515e-21)
(100.6791576 -0.5562025989 2.127590069e-21)
(100.4783351 -0.9420495352 2.074422862e-21)
(100.1393626 -1.347417992 -1.945589904e-21)
(99.63135522 -1.610524085 -2.248602956e-21)
(98.94527535 -2.07450714 0)
(98.03796543 -2.654466366 6.372602361e-20)
(96.83712721 -3.106329545 -1.311908433e-18)
(95.26156661 -3.733178872 8.791975492e-19)
(93.28151914 -4.588253022 9.007966364e-19)
(90.70038113 -6.006238987 8.445123568e-19)
(88.01590675 -7.803305314 0)
(101.1621304 -0.215529831 7.717166746e-21)
(101.0696128 -0.6509693017 0)
(100.8896711 -1.104410272 -2.070346272e-21)
(100.5906476 -1.601806263 0)
(100.0960095 -1.953724796 0)
(99.51097728 -2.534757521 -6.67913384e-21)
(98.73821381 -3.269527261 -3.016007509e-19)
(97.67719727 -3.891772933 5.313687296e-19)
(96.33836839 -4.701996045 2.445579419e-18)
(94.68094659 -5.745052393 -2.489985958e-20)
(92.48612635 -7.319742917 -1.528080084e-18)
(90.0260032 -9.120181461 -7.516949663e-19)
(81.20990404 -2.951019602 3.633871703e-18)
(85.14929163 -6.048833614 -2.547762496e-19)
(87.7442116 -7.644252935 8.641129079e-19)
(89.77304851 -8.94647173 -1.934750658e-19)
(79.05418515 7.285192151 1.287507087e-18)
(88.51295889 -3.608396298 -5.436675646e-20)
(85.55331368 -5.660496974 -2.025253972e-18)
(82.57325742 -2.983539253 -2.270192055e-18)
(90.26059788 -5.61338307 0)
(88.05086209 -7.352114847 -6.793340627e-21)
(85.90526089 -5.920179992 1.952836001e-18)
(86.54446646 -6.93995193 -1.16310248e-18)
(85.62085147 -8.138189616 1.060465566e-18)
(84.25143719 -7.514797399 1.12498487e-18)
(92.03033499 -7.024668481 1.529867075e-18)
(90.05173507 -8.691106927 7.538803922e-19)
(88.31687978 -7.52285367 0)
(88.78559191 -8.276865026 -9.443263627e-21)
(87.76907305 -9.129738794 0)
(86.99988052 -8.657347397 8.043958747e-19)
(90.30202989 -8.860131681 -2.566836464e-21)
(90.95059931 -9.622949227 -2.412068269e-21)
(89.42983056 -10.62956381 -1.630273237e-18)
(88.64646361 -9.898724344 1.143153177e-18)
(73.31464122 -4.594126655 -3.572357802e-19)
(79.1039335 -6.618013777 1.966123405e-18)
(66.8484171 8.361490628 3.160571053e-18)
(72.19818352 -3.853709005 -3.75073635e-20)
(84.0562295 -7.409116344 -6.044052663e-22)
(82.58344226 -6.786097014 0)
(83.91189403 -5.18631902 -3.236120008e-18)
(82.39092218 -7.049284963 -7.463217409e-19)
(83.92820455 -7.57907599 -6.943655571e-19)
(79.65072936 -6.699171922 -4.689992806e-18)
(82.14169371 -6.993380237 1.992171195e-18)
(86.86703872 -8.59816318 -8.151980296e-19)
(85.79972958 -8.20222182 -1.674020051e-18)
(86.86296955 -7.12966254 6.812221169e-19)
(85.6096797 -8.324842406 -1.966697293e-18)
(86.73939395 -8.703716968 0)
(84.02441431 -7.641142208 6.91954633e-19)
(85.52017691 -8.287572964 6.555712488e-19)
(88.58824004 -9.850750777 5.697989017e-19)
(87.81676504 -9.169417946 1.45805229e-21)
(89.03205591 -8.439188314 -2.021057149e-19)
(87.66713796 -9.210507695 -3.089149724e-18)
(88.37178967 -9.903063958 0)
(86.80353034 -8.739123855 6.507101949e-19)
(87.62364622 -9.172294085 1.228614427e-18)
(89.48325096 -10.68669572 -1.08055505e-18)
(91.08931294 -9.718424065 -1.161192091e-18)
(89.13110002 -10.72619739 0)
(88.42876226 -9.950052733 -2.335765627e-18)
(89.08838598 -10.67117089 1.929312129e-18)
(87.14282557 -0.4209462423 1.000868349e-18)
(82.06943615 -2.370476508 -3.558271778e-18)
(80.30318128 5.265423716 -2.462067249e-18)
(78.82155863 0.8875763179 1.292976711e-18)
(73.21260192 -2.805825403 -1.452376979e-18)
(69.22644339 7.99468729 -3.149699501e-18)
(83.44703406 -4.85177663 3.283652353e-18)
(82.32963479 -6.717051956 0)
(79.79402164 -6.144152705 0)
(79.27141826 -6.008518981 0)
(74.13367252 -3.572054215 0)
(79.33367029 -0.3420022117 0)
(76.25186507 -9.47287414 -1.22237996e-18)
(51.45989419 12.19465136 -2.814804153e-18)
(58.78343974 -6.068546972 1.706974231e-18)
(77.67966917 20.94224257 -1.168154453e-18)
(67.44439008 10.80516112 2.291739006e-18)
(89.08810893 -10.25376354 1.770658009e-18)
(89.94707569 -9.903119423 -6.629878026e-19)
(90.34756528 -10.19384191 8.831705581e-22)
(71.26951545 -10.65807873 0)
(75.74108154 -9.646230153 3.723826152e-18)
(76.24890563 -5.972568168 -1.281558767e-18)
(75.94022319 -9.235403965 0)
(71.39355392 -9.555572265 0)
(78.61500471 -8.473411146 0)
(76.41827796 -9.110584527 3.247253975e-18)
(77.06907388 -6.21046609 0)
(67.83304411 1.555636171 1.774214535e-18)
(60.24563707 -4.400398221 -1.696560622e-18)
(54.43025492 11.55873343 -3.4638087e-18)
(70.4662619 -9.369649084 0)
(61.66884597 -5.651545297 -8.093433469e-19)
(68.80391949 -0.2515957197 0)
(60.51075827 -7.332883016 1.651213265e-18)
(70.35278525 -10.34000413 0)
(83.15453522 -7.20435024 7.095660013e-19)
(81.21965605 -7.696658878 2.105582244e-18)
(83.25479584 -7.250274017 0)
(80.9357119 -6.826703774 2.582641544e-19)
(80.18045592 -7.878961985 3.183284321e-18)
(78.81733359 -8.386031786 0)
(81.13593062 -7.6852875 0)
(80.3199155 -7.809976992 -3.167854595e-18)
(81.27589338 -6.860745756 0)
(86.18600394 -8.496305919 -6.474699034e-19)
(86.26064759 -8.528266594 1.302901591e-18)
(84.73457082 -7.990421225 0)
(84.83576189 -8.043018749 2.103799565e-21)
(88.00871149 -9.523147988 -6.290782681e-19)
(88.05728501 -9.565897841 3.115289383e-19)
(87.22618691 -8.929347318 1.211676097e-18)
(87.27943898 -8.959444018 -1.203815862e-18)
(90.48729909 -10.29394638 0)
(88.80477077 -10.24084631 0)
(88.84873243 -10.28708565 -1.236733747e-18)
(65.20398197 29.72970343 0)
(52.16707435 15.39659363 -8.699967068e-18)
(87.40429369 -8.907691766 -1.183370342e-18)
(87.98791867 -8.529227174 -7.290973471e-19)
(88.35191201 -8.754904147 7.125267362e-19)
(87.46731319 -8.245388119 -7.45137569e-19)
(87.86215733 -8.456924924 7.279753367e-19)
(87.34729751 -8.879200585 2.956740045e-18)
(89.43860027 -9.532117745 6.763790458e-19)
(89.81859273 -9.808378354 -1.336316954e-18)
(89.03820194 -10.20509852 -5.890065364e-19)
(86.44554155 -8.429153232 1.644473716e-18)
(86.89474544 -7.963936738 7.689741526e-19)
(87.32950542 -8.174935962 -7.553355227e-19)
(86.20097845 -8.863144563 -1.47619868e-18)
(86.03471193 -8.785972318 0)
(86.54292342 -8.627452043 0)
(88.2284942 -9.520360004 -5.963615544e-19)
(88.9474502 -9.173274327 6.938452087e-19)
(89.31397454 -9.440995986 0)
(88.47044755 -8.834775255 -1.427454754e-18)
(88.82708357 -9.086088087 0)
(88.17603494 -9.47559942 -5.987471812e-19)
(87.80220969 -9.341551064 1.712922795e-22)
(86.79947264 -9.403176177 -1.422955156e-18)
(86.72650971 -9.245865978 0)
(86.52102217 -9.902475541 -7.507631887e-19)
(86.41612429 -9.761333015 -2.790566449e-18)
(88.21550238 -9.751264743 -5.777402063e-19)
(86.99409283 -8.817730779 -6.443023088e-19)
(86.42666699 -8.975337972 0)
(86.2605351 -8.892296139 -7.406674975e-19)
(86.70606555 -9.212006903 -2.502324347e-21)
(86.6213636 -9.144670928 1.349917867e-18)
(87.48652836 -9.073509879 0)
(88.60330903 -10.07964219 -4.180652228e-21)
(86.79550499 -10.08042821 -1.934358417e-21)
(86.57245193 -9.961732238 -3.215544906e-21)
(87.02274969 -10.48326638 2.794226366e-18)
(89.01319253 -10.51490143 5.971035251e-19)
(77.37541755 -8.998090276 1.911280939e-18)
(77.71557819 -8.905843751 -2.182821972e-18)
(52.52834018 2.462996251 -5.618647967e-18)
(53.79149302 -0.2095066409 -1.795559582e-18)
(73.45639452 -10.28023151 -2.500878923e-18)
(74.08949225 -10.09090386 -5.065490126e-18)
(74.32314597 -9.540697718 0)
(74.50642125 -7.511951354 -2.558766702e-21)
(76.13255561 -7.707114171 2.062381993e-18)
(71.88302605 -6.802040681 0)
(73.90122749 -7.396505354 2.233461414e-18)
(73.69238356 -9.621540474 -4.316521356e-18)
(77.90828159 -8.699958299 2.179802945e-18)
(78.16233555 -7.720855441 -1.791048162e-18)
(79.02631808 -7.652552666 0)
(76.6115276 -7.734145138 2.017084099e-18)
(77.82770052 -7.734606229 0)
(77.56424395 -8.76299216 5.572364213e-19)
(67.10928421 -8.618973744 -2.770678707e-18)
(68.6176244 -5.307259112 -2.780451846e-18)
(71.09896423 -6.513516709 0)
(65.22896122 -9.660964469 4.298734995e-20)
(66.72348111 -9.968694782 0)
(81.65488208 -7.738717767 2.750880862e-18)
(82.37671759 -7.513980005 2.073032562e-19)
(82.61548778 -7.588833967 -1.514375909e-18)
(81.93596427 -7.44135141 2.57457372e-18)
(82.27322907 -7.49473825 -8.590517329e-19)
(81.54784007 -7.749953119 1.064549765e-18)
(82.99745762 -7.787089372 -3.033583849e-18)
(83.23551397 -7.95771083 1.546677954e-18)
(82.68398746 -7.626597663 1.496426985e-18)
(82.91972103 -7.742378765 1.505925154e-18)
(79.67130493 -8.05742692 0)
(80.16080501 -7.513201392 -3.331461421e-18)
(80.70427089 -7.447254575 4.606131644e-21)
(79.27602323 -7.625241258 0)
(79.95809742 -7.540653639 4.976728334e-18)
(79.48886828 -8.1370968 -6.541405807e-21)
(80.79424319 -7.752596397 5.267091676e-18)
(81.43901985 -7.414325623 -5.555744405e-22)
(81.81976393 -7.428520083 0)
(80.86593056 -7.43056901 3.361421809e-18)
(81.30207028 -7.412485855 0)
(80.65546856 -7.755547499 3.176005549e-18)
(85.14642899 -8.702556328 -2.887938271e-18)
(85.35312829 -8.76373214 -2.493142171e-21)
(84.85064687 -8.692671472 -1.383626032e-18)
(85.08414604 -8.693521794 -5.536326347e-21)
(85.67209248 -8.809694853 -7.50849603e-19)
(85.82026027 -8.889854968 1.535381147e-18)
(85.4294252 -8.778218566 -1.475345489e-18)
(85.62356328 -8.796842228 0)
(83.75584238 -8.26627688 -1.58592996e-18)
(84.0888115 -8.401236558 -1.609515832e-18)
(83.32480638 -8.026289034 -1.548895194e-18)
(83.64425374 -8.214600956 -1.950318324e-21)
(84.61523778 -8.579722125 -8.148840324e-19)
(84.79059802 -8.668871179 0)
(84.19859344 -8.440306036 0)
(84.51888303 -8.54631245 -1.597240856e-21)
(87.01214359 -9.597441525 -7.339820731e-19)
(86.84613978 -9.467473225 7.177645414e-19)
(87.85174176 -9.388566397 6.293570739e-19)
(85.9745259 -9.435519822 8.082593595e-19)
(86.1744927 -9.552810846 8.190932068e-19)
(85.88779868 -9.176421515 -8.018193577e-19)
(85.92163456 -9.356126674 8.109922602e-19)
(86.18510736 -9.579553256 4.269754427e-19)
(88.17737771 -9.699278912 0)
(86.50013684 -9.718814093 2.558699247e-18)
(87.02420538 -9.636049976 0)
(86.42849819 -9.073072942 0)
(86.47097941 -9.013211024 0)
(87.05386865 -8.85224071 -6.364030368e-19)
(86.07133125 -9.035267264 0)
(85.64037169 -9.06124673 1.472836288e-18)
(85.87886189 -8.921025008 0)
(86.02716418 -9.003320883 0)
(85.81019876 -9.098903493 -2.378055239e-18)
(85.87889655 -9.147080864 7.980079718e-19)
(85.66101171 -9.06441371 1.539174927e-18)
(85.77646192 -9.087600891 0)
(87.43729167 -9.04415865 0)
(86.58554377 -9.127992754 0)
(86.46162118 -9.091254882 -1.297712433e-18)
(86.97353164 -10.16610067 0)
(86.8552914 -10.10139046 -7.486201406e-19)
(88.65838558 -10.11879548 1.200298173e-18)
(88.97448947 -10.45184301 0)
(86.99093918 -10.40707969 0)
(86.99181378 -10.19570291 -3.03085843e-18)
(85.04752598 -7.909098245 -4.399893499e-19)
(85.55289514 -7.321141271 -8.095190967e-19)
(86.08681772 -7.584774813 -1.759563622e-21)
(84.80105878 -6.915139689 0)
(85.36794136 -7.224569753 8.210999985e-19)
(84.8488653 -7.818892987 1.533576869e-18)
(86.25781521 -7.665175594 -4.914902478e-21)
(86.7421955 -7.891476805 -7.669839463e-19)
(86.29379822 -8.374160442 -1.031085891e-18)
(85.86988293 -8.395876351 1.304389608e-18)
(85.41250247 -8.640981756 1.356164351e-18)
(85.16132839 -8.600859559 1.345138062e-18)
(85.08168105 -8.574264114 -1.359274639e-18)
(84.82832387 -8.486088619 0)
(85.23616307 -8.199108317 0)
(76.69190118 -9.264497853 0)
(72.07901757 -10.63567555 0)
(70.82047986 -10.98036426 2.517954078e-18)
(75.20879748 -9.783205242 6.29508722e-18)
(75.43300781 -9.340653024 -4.336671823e-18)
(75.55447123 -8.797892178 -4.213936827e-21)
(76.05283342 -8.732059474 0)
(78.42191831 -8.582303898 -1.880380313e-18)
(78.57470222 -8.276508528 1.330030508e-18)
(78.81949805 -8.21957146 0)
(76.51828863 -8.650045959 0)
(76.94374428 -8.558230147 -3.133574989e-18)
(76.84636609 -8.973864999 2.172695724e-18)
(65.06896235 -2.270997026 -1.474546278e-18)
(67.73481686 -4.610637824 2.854895877e-18)
(65.80177029 -8.161880829 0)
(62.15724718 -8.381935598 -3.793903563e-19)
(61.47553198 -10.82248374 0)
(59.41997397 -9.03221261 9.227507029e-19)
(70.01106676 -11.02650831 -1.767844765e-18)
(69.0042449 -11.16639901 -6.358943754e-18)
(69.30195135 -10.232847 0)
(81.63090946 -7.70460585 0)
(81.98102608 -7.704720612 -5.855742327e-18)
(81.96356083 -7.729553267 6.629133083e-18)
(81.56524806 -7.642212598 0)
(81.67094201 -7.657279751 -1.89204252e-18)
(81.31662606 -7.716179352 0)
(82.31225449 -7.974982693 -9.642811301e-19)
(82.36356472 -8.053931844 -2.882406209e-18)
(81.97324113 -7.754553998 -1.899115124e-18)
(82.02745866 -7.777275999 9.390947597e-19)
(80.01085681 -7.948518985 7.04960612e-21)
(80.27015374 -7.829894882 -3.64537609e-18)
(80.43676743 -7.781200538 7.429773728e-21)
(79.05523003 -8.167189546 0)
(79.28787431 -8.113816971 1.799043005e-18)
(79.04355479 -8.310057773 0)
(81.04917701 -7.696303459 1.048256875e-18)
(81.35971972 -7.64116635 -1.864701653e-18)
(81.46471779 -7.634422761 -1.873807412e-18)
(80.58615302 -7.733932361 3.658165528e-18)
(80.7174907 -7.701067536 -3.680150436e-18)
(80.42972999 -7.768168263 1.062899604e-18)
(85.70426461 -8.712624976 2.787007073e-18)
(85.48576003 -8.655192924 -1.371201515e-18)
(85.95107555 -8.428438701 0)
(86.47575037 -8.594994896 -5.388080848e-22)
(85.97824967 -8.76867325 0)
(85.77845962 -8.72905634 -5.814328859e-21)
(84.30486051 -8.302491457 7.692039561e-19)
(83.97940564 -8.163711751 -1.512506836e-18)
(84.42610246 -7.854741181 1.374463593e-18)
(83.13986695 -8.515929683 -3.806398497e-18)
(83.25095869 -8.552394684 0)
(82.43431123 -8.157883932 1.922550785e-18)
(82.5412362 -8.255732667 2.876412863e-18)
(83.68016074 -8.733802059 -2.711571194e-17)
(83.36028697 -8.585689943 -1.896835808e-18)
(83.46732037 -8.615753511 1.895590514e-18)
(85.13874085 -8.154599337 6.772914363e-19)
(84.72918057 -8.453179784 2.315220613e-18)
(84.41269531 -8.343362326 0)
(86.76841074 -9.340749089 7.049915227e-19)
(87.25136502 -9.349828396 1.350122862e-18)
(87.28893525 -9.403142369 0)
(86.47546243 -9.853660679 -2.229365652e-18)
(87.46344265 -9.911420854 1.247182496e-18)
(87.51184632 -9.955033402 -1.256728435e-18)
(87.39612932 -9.813884655 1.204699467e-18)
(87.41825864 -9.867351894 -1.222927822e-18)
(86.42780642 -9.807953499 -7.283525291e-19)
(87.43975461 -10.67072125 1.363717284e-18)
(87.47565949 -10.69984881 -1.387002498e-18)
(86.7217033 -10.05436626 0)
(87.68776649 -10.09027192 1.284967667e-18)
(87.75041341 -10.12147716 -1.296142002e-18)
(87.5631316 -10.00330452 -1.267402383e-18)
(87.62251176 -10.05100264 4.815111298e-21)
(86.64136061 -10.01645465 -2.253705638e-18)
(87.5015406 -10.63029413 1.1941478e-18)
(87.42797231 -10.64806803 -1.621734247e-18)
(88.03411896 -10.56619815 -6.965989322e-19)
(87.63083446 -10.59893904 1.050117828e-18)
(86.70726711 -10.52048345 4.102311409e-18)
(77.04857637 -9.100543563 2.462135276e-18)
(77.94966631 -8.759566576 8.371539686e-18)
(43.69235434 4.30278602 0)
(45.53003466 0.1481165896 0)
(53.43443876 -9.451113505 0)
(55.89235022 -10.37046893 0)
(48.12553322 -3.522730061 0)
(50.78340282 -7.650767778 1.558218582e-18)
(47.96634305 -8.496789604 0)
(72.77983937 -10.47602642 0)
(74.66826052 -9.920785669 3.813519917e-18)
(78.01300866 -8.379232366 4.96397343e-19)
(78.30971218 -8.333978751 9.333157633e-19)
(78.17629595 -8.6762098 0)
(77.21940591 -8.852165981 -1.109062465e-18)
(77.32662289 -8.478917091 -2.090431303e-18)
(77.67891939 -8.418318148 5.246664707e-19)
(64.85895015 -11.58309439 4.814403508e-20)
(63.27981427 -11.44901652 0)
(63.70087436 -9.148953758 -2.836552152e-18)
(58.32307911 -10.96065718 2.278143991e-18)
(60.39940821 -11.60694377 -3.203342164e-18)
(68.09757047 -10.1365813 0)
(67.81162433 -11.34625034 0)
(66.4027855 -11.51549817 3.195513203e-18)
(81.99651598 -7.692840351 -2.110332646e-21)
(82.08566234 -7.696956353 -9.577847563e-19)
(81.73491979 -7.71231479 3.187976449e-18)
(81.42672312 -7.739028234 -1.052489791e-18)
(81.78250504 -7.674191669 1.904592855e-18)
(81.89640898 -7.687152616 9.601246558e-19)
(82.21070474 -7.869176545 -9.560285708e-19)
(82.26272559 -7.914660004 -9.592563325e-19)
(82.09353244 -7.802380112 2.849787801e-18)
(82.15457934 -7.832756841 -2.735523447e-21)
(79.91770072 -7.925976329 -1.817981183e-18)
(80.09658955 -7.874953702 3.636099126e-18)
(79.83849962 -7.999134127 -3.191487529e-18)
(79.27635978 -8.226455839 2.138017859e-18)
(79.51415718 -8.052976394 -1.798495144e-18)
(79.7253576 -7.987270187 3.62771344e-18)
(81.10546791 -7.671882717 -9.301680501e-19)
(81.23926375 -7.658028219 9.268369927e-19)
(80.93451806 -7.727339348 -2.10565725e-18)
(80.53542626 -7.753264037 1.06091604e-18)
(80.84223116 -7.684514973 0)
(80.97071658 -7.67795083 0)
(85.20975705 -8.720624373 1.455055931e-18)
(84.55381958 -8.725754394 0)
(84.50236179 -8.707821942 0)
(84.69723166 -8.773927515 -1.712817883e-18)
(84.61896857 -8.751895749 8.55206781e-19)
(85.27869023 -8.743004998 -1.458857027e-18)
(84.93217648 -8.69930376 2.108620542e-18)
(84.32293702 -8.742418459 0)
(84.24821839 -8.760793032 0)
(84.45652452 -8.703709024 0)
(84.40005138 -8.718002297 0)
(85.01411612 -8.695090059 1.417523388e-18)
(85.71841155 -8.830742461 2.27093431e-18)
(85.04185545 -8.80502311 8.61448893e-19)
(85.00877151 -8.785072857 1.715323451e-18)
(85.12805154 -8.871544201 -4.308377796e-18)
(85.07989297 -8.834749043 -8.613014851e-19)
(85.76694097 -8.858203526 1.522906278e-18)
(85.50204152 -8.786547672 0)
(84.85947856 -8.786204271 0)
(84.78073628 -8.784278993 8.576517903e-19)
(84.97325124 -8.776817416 0)
(84.92472274 -8.780271981 5.383937421e-22)
(85.56735961 -8.790949198 -1.485679373e-18)
(82.91285006 -8.431798317 0)
(83.02678012 -8.476440975 0)
(83.86704389 -8.314587073 0)
(83.54948461 -8.406744217 0)
(83.43559896 -8.360387412 1.663444914e-18)
(83.77592732 -8.488589674 1.680505665e-18)
(83.66324637 -8.449205668 8.394998058e-19)
(83.97818925 -8.35950385 -1.597269586e-18)
(82.67147155 -8.325797656 -9.61320397e-19)
(82.79682872 -8.381159174 3.824172073e-18)
(83.75616594 -8.698602944 9.976086915e-19)
(83.83664559 -8.712962403 0)
(84.70947251 -8.621592428 7.776313534e-19)
(84.39604189 -8.698527794 0)
(84.29670924 -8.660151856 0)
(84.22327154 -8.764347205 0)
(84.23122192 -8.741727278 7.858180668e-18)
(84.74710314 -8.641415563 2.193168878e-18)
(84.30714052 -8.476923666 8.11085638e-19)
(83.99684754 -8.559588444 -2.539068817e-18)
(83.887262 -8.525387306 2.531203166e-18)
(84.20861935 -8.625474439 0)
(84.10376895 -8.592830181 -8.491462966e-19)
(84.41412472 -8.511918887 -8.170235086e-19)
(83.57061419 -8.645691932 0)
(83.67274914 -8.672649124 9.616671974e-19)
(86.96378777 -9.561375413 -7.263752607e-19)
(87.44089472 -9.55181863 0)
(87.48904749 -9.593360341 1.404920654e-18)
(87.33469884 -9.457916692 -2.060339371e-18)
(87.38745795 -9.507946022 2.078939407e-18)
(86.90575372 -9.520421201 0)
(86.05082824 -9.490310189 8.095394894e-19)
(86.12139397 -9.526047056 0)
(85.89355859 -9.218514165 0)
(85.89967035 -9.27568235 -8.066825505e-19)
(86.18661892 -9.593642227 4.96242448e-19)
(85.84964889 -9.616391586 0)
(86.65137488 -9.681970657 5.640789368e-19)
(87.4787586 -9.704736357 6.293227443e-19)
(87.42198116 -9.751449831 -1.211201969e-18)
(87.51992095 -9.63387085 0)
(87.54537541 -9.686649156 2.014861756e-18)
(87.04318911 -9.678509111 -2.20819147e-18)
(85.77713853 -9.040903008 7.199033518e-18)
(85.09735184 -8.994312417 -2.650102988e-17)
(85.35836913 -8.986430475 -1.057255216e-18)
(85.6858897 -9.056517527 0)
(85.93846737 -8.948824539 2.301461443e-21)
(85.24857561 -8.93012971 -4.323460529e-18)
(85.18723614 -8.904636606 -8.619820529e-19)
(85.33172295 -8.974561824 0)
(85.30440377 -8.951039079 -2.619591589e-18)
(85.99511004 -8.974612364 7.896765768e-19)
(85.84019693 -9.111360349 -7.929628174e-19)
(85.86344549 -9.126341327 1.591985003e-18)
(85.70261794 -9.069638951 7.822894994e-19)
(85.7411947 -9.077615565 -7.901703403e-19)
(86.94298103 -10.14299146 7.542315845e-19)
(87.89408818 -10.20666216 0)
(87.9293556 -10.24002818 0)
(87.80536081 -10.14912768 1.953836089e-18)
(87.85281471 -10.17687605 -6.585719012e-19)
(86.90333321 -10.1217014 2.694778524e-21)
(86.99796536 -10.30932717 -1.548385257e-18)
(87.99966425 -10.39567381 -6.884918414e-19)
(87.9995733 -10.4779751 1.413582914e-18)
(87.95800374 -10.27958624 1.3524138e-18)
(87.97944627 -10.33063443 1.366259762e-18)
(86.99700764 -10.24320058 0)
(99.61336837 1.088516394 -1.510342838e-20)
(99.53558836 1.459582872 7.081899191e-21)
(99.84435808 0.8935728711 7.075686925e-21)
(99.50572511 1.59948344 -2.119242588e-20)
(99.45594393 2.062166001 -6.465691079e-21)
(99.82307217 1.242495367 -3.824484875e-22)
(99.44128773 2.225180004 5.944871781e-21)
(99.46859761 2.7173981 -2.69041818e-21)
(99.83462182 1.620123714 4.705495316e-21)
(99.48121939 2.876857506 0)
(99.60644611 3.307746332 -3.662371636e-21)
(99.89388388 1.944931419 -1.686853512e-21)
(99.65142247 3.425261347 -5.786152639e-21)
(99.08916046 1.527945671 -1.620506902e-20)
(98.88090685 2.099330681 -1.568111154e-20)
(99.39797042 1.634123317 0)
(98.81716506 2.316177525 -3.836702277e-21)
(98.67382305 3.040414895 3.499093301e-19)
(99.29227416 2.322815665 6.361094281e-21)
(98.64438212 3.305530188 1.074599316e-19)
(98.64782199 4.151174147 -1.908913282e-19)
(99.3035114 3.079603754 -8.779413028e-20)
(98.68472674 4.439308905 3.683458254e-19)
(98.94477275 5.259438751 7.501642392e-20)
(99.47833115 3.777077924 3.685181187e-21)
(99.08236207 5.495732615 0)
(98.36827109 1.75708841 5.364619669e-19)
(97.97673709 2.482972068 8.447379942e-19)
(98.67601882 2.225681716 -4.833304084e-23)
(97.84924423 2.768230679 -3.045247693e-21)
(97.50556123 3.77096365 8.294615412e-19)
(98.41989369 3.253005181 -3.580904489e-19)
(97.41390205 4.157348887 -1.088296071e-18)
(97.27188804 5.473265151 4.793210627e-19)
(98.36512732 4.499036976 -2.011039081e-19)
(97.2898168 5.956963607 -4.76995403e-19)
(97.6568955 7.457946849 0)
(98.69985241 5.783629586 3.425846751e-19)
(97.91058421 7.932667374 -2.479042789e-20)
(97.55128338 1.661023204 0)
(96.89356002 2.446988953 0)
(97.71911902 2.515971941 -1.134473412e-18)
(96.66284016 2.76860095 6.757519713e-19)
(95.94464891 3.980816954 0)
(97.14917821 3.890536578 5.895658016e-19)
(95.70665525 4.485102146 6.54830423e-19)
(95.08604443 6.355352757 -1.428235908e-18)
(96.81110423 5.757802013 5.32838757e-19)
(94.94588216 7.117600036 2.92389215e-19)
(95.04682967 9.851959611 9.612834494e-19)
(97.16876785 8.047922771 1.535608135e-18)
(95.37333549 10.86174901 -1.112073307e-19)
(96.76894669 1.185019086 -1.367795416e-18)
(95.79362835 1.905043898 1.507717015e-18)
(96.60868554 2.365260037 -6.848847678e-19)
(95.42896498 2.208855524 0)
(94.17417322 3.386873641 -8.339189179e-19)
(95.50829275 3.911809311 -1.400222469e-18)
(93.69116912 3.895424664 8.019351894e-19)
(92.01978128 5.96949233 1.956338039e-19)
(94.38889263 6.412906339 -1.160400665e-18)
(91.40486822 6.938150148 0)
(89.676949 11.40387351 -6.170450873e-20)
(94.03885751 10.4103819 1.650839444e-18)
(89.41935853 13.69649198 1.485854431e-20)
(96.19021784 0.347474065 1.472559185e-18)
(94.94986788 0.8244363177 0)
(95.54656378 1.681587857 -2.313299871e-18)
(94.46895494 1.029308206 2.419474803e-20)
(92.72330929 1.812828869 9.060710778e-19)
(93.75543567 3.083437407 0)
(92.0012425 2.145251627 -7.049222555e-19)
(89.14208084 3.46842074 0)
(91.20228176 5.568887345 0)
(87.8402197 4.062110898 0)
(80.76704129 6.642190685 1.218015139e-18)
(87.72262964 11.16686692 -9.112519857e-19)
(83.67489886 11.98994656 1.05180159e-18)
(81.49233268 18.27368601 -9.223808814e-19)
(87.8765455 17.74646497 -1.508765116e-18)
(95.9586031 -0.7259520402 1.525875031e-18)
(94.59316457 -0.593460529 2.601893153e-18)
(94.80751347 0.4902088319 -1.674860379e-18)
(94.06619962 -0.5336311053 -4.423204817e-19)
(92.17130269 -0.3476567937 -9.767963146e-19)
(92.48518965 1.299932886 4.530572518e-19)
(91.39683697 -0.2958582287 1.08289896e-18)
(88.42053863 -0.2961609096 9.988379983e-19)
(88.71588952 2.533076026 0)
(87.07186543 1.763712428 3.092047899e-20)
(85.41513646 1.958922961 -1.073310469e-18)
(85.68257001 3.367447946 0)
(78.33241379 3.926678026 0)
(76.30335206 3.95065234 0)
(76.43714474 5.964014382 0)
(96.13531379 -1.853912753 1.095435651e-20)
(94.81435795 -2.035995763 -1.312601307e-18)
(94.59352271 -0.964214371 -2.618762068e-18)
(94.31422492 -2.101878846 0)
(92.57249869 -2.380865365 0)
(92.19448693 -0.883992344 0)
(91.89110173 -2.523023125 1.204753756e-19)
(89.45911841 -3.229353582 -1.946472138e-18)
(88.58124264 -1.137687765 -1.02338103e-18)
(87.71783954 -2.208085087 0)
(86.53751404 -2.606609617 -3.970975879e-18)
(86.07872801 -1.688422125 8.060892433e-19)