/*--------------------------------*- C++ -*----------------------------------*\
| =========                 |                                                 |
| \\      /  F ield         | OpenFOAM: The Open Source CFD Toolbox           |
|  \\    /   O peration     | Version:  v2012                                 |
|   \\  /    A nd           | Website:  www.openfoam.com                      |
|    \\/     M anipulation  |                                                 |
\*---------------------------------------------------------------------------*/
FoamFile
{
    version     2.0;
    format      ascii;
    class       surfaceScalarField;
    location    "2.38";
    object      phi;
}
// * * * * * * * * * * * * * * * * * * * * * * * * * * * * * * * * * * * * * //

dimensions      [0 3 -1 0 0 0 0];
oriented        oriented;


internalField   nonuniform List<scalar> 
5975
(
-0.05820865438
0.006313430847
0.05770851592
-0.01226302473
0.006449732352
0.0150401374
-0.1243242698
0.2449299061
-0.02596891534
0.01459547256
-0.1242723308
-0.2735336533
0.02469373941
0.27501454
-0.02624122999
-0.2916778945
0.02376587356
0.290415652
-0.02262694296
-0.2805137294
0.01865343738
0.2788033047
-0.01705219264
0.0115768951
-0.2449750514
0.242940772
-0.00956763272
-0.4648652959
0.01463368621
0.4628431295
-0.01261151978
-0.4616597488
0.01103818511
0.4601906438
-0.009569080059
-0.01313755416
0.9101716319
0.008778792098
0.00831903087
-0.008487542486
0.9039905885
-0.004183132176
0.9021433957
0.9011707252
-0.1118624786
0.008226136806
0.1117176198
-0.01605601176
0.007974733756
0.024948929
-0.2380514347
0.2376095371
-0.02451010058
-0.2745158968
0.02419843162
0.2747620528
-0.02453611324
-0.2863606636
0.02367217678
0.2906991284
-0.02814020706
-0.2731390695
0.02481671413
0.2676335743
-0.01940222531
0.01116021669
-0.234251252
0.232509091
-0.009421688449
-0.4610665235
0.01551012986
0.4594711771
-0.01391478345
-0.4587073557
0.01234863532
0.4569800275
-0.01062130712
-0.01262893756
0.9053779042
0.008649142845
0.008773522501
-0.009203267948
0.9005649189
-0.004512468125
0.8974525959
0.8966582571
-0.225744248
0.01625378426
0.2263095297
-0.01681906597
-0.244508503
0.0249851254
0.2481447442
-0.0286585082
-0.27828081
0.03452671301
0.2785440627
-0.03490399708
-0.2868212512
0.03222524757
0.2847616459
-0.03030238854
-0.2583375933
0.02247121211
0.2583767917
-0.02258081046
0.0115871657
-0.2309661713
0.2286469758
-0.009267970267
-0.4580501385
0.01725580114
0.4549559454
-0.01416160799
-0.4552271544
0.01270103498
0.4532192796
-0.01069316022
-0.01303957121
0.9006627218
0.00895746589
0.008797287731
-0.009273664573
0.8967990123
-0.00472487901
0.8929038104
0.8919333781
-0.2351008652
0.03767709829
0.2375451711
-0.040139594
-0.2572962175
0.0478083564
0.2591391239
-0.04971783391
-0.2776204858
0.05088738365
0.276241423
-0.04962099802
-0.2756337204
0.04119646013
0.2714538974
-0.03712543866
-0.2458324609
0.02272365517
0.2406755948
-0.0176054653
0.01110498469
-0.226741526
0.2261459668
-0.01050942549
-0.4542350903
0.01765899561
0.4515619394
-0.0149858447
-0.4503844741
0.01160430662
0.4488101662
-0.01002999868
-0.01225846615
0.8944716161
0.009493778633
0.008955793215
-0.00688709811
0.8914276442
-0.00478519424
0.8908019065
0.8871481839
-0.2411395199
0.0695827013
0.2412284262
-0.0696981638
-0.2595791888
0.06828738407
0.2580664594
-0.0668428469
-0.2677445434
0.05845938024
0.2634454785
-0.05424812402
-0.2554391438
0.03800001452
0.24908542
-0.03170710316
-0.2256063281
0.012737527
0.2247669825
-0.01189850215
0.01035637834
-0.2245311847
0.2240335725
-0.00985876613
-0.4478895987
0.01678964301
0.4461649013
-0.01506494566
-0.4472442229
0.01341831674
0.4456506538
-0.01182474765
-0.0114645716
0.8873869536
0.01016906639
0.008380167674
-0.006504475587
0.8864675482
-0.004425503866
0.8887229348
0.88272268
-0.2389236799
0.07234476742
0.237501456
-0.07094464565
-0.2493087851
0.06299607445
0.2453316598
-0.05906387133
-0.2470351955
0.04356884219
0.2407797143
-0.03735451475
-0.228243411
0.01676144484
0.2238635837
-0.01238611356
-0.2233619623
0.01113042764
0.2229502417
-0.010718707
0.009488019099
-0.2226989414
0.2222902237
-0.009079301441
-0.4445526608
0.01563908317
0.4430518652
-0.01413828759
-0.4441682141
0.01267597972
0.4427290231
-0.01123678874
-0.01430546768
0.8822282692
0.009623017567
0.009841134541
-0.009401316506
0.8815633971
-0.001848728003
0.8811703463
0.880873952
-0.2322249204
0.03727079311
0.230369419
-0.03542293878
-0.2319370658
0.02570209783
0.2274636305
-0.02123682879
-0.2242118207
0.01211530031
0.2239860927
-0.01188957233
-0.2228484864
0.01110730442
0.2225593863
-0.01081820428
-0.2218581316
0.009892935965
0.2215362351
-0.00957103954
0.008585399387
-0.2211969262
0.220860649
-0.008249122212
-0.4416577062
0.0143485194
0.4403667434
-0.01305755669
-0.4414032089
0.01177656319
0.4401228831
-0.01049623741
-0.01346722262
0.8774910981
0.008967520088
0.009236873651
-0.008889905834
0.8769860803
-0.004414564391
0.8766950049
0.8764593876
-0.2281185625
0.01114196175
0.2281093498
-0.01113274901
-0.2255398154
0.01096290934
0.22544115
-0.01086424392
-0.2234019705
0.0104584419
0.2232333687
-0.01028984009
-0.22180153
0.009699063236
0.2215801985
-0.009477731738
-0.2206768836
0.00875716202
0.2204216614
-0.00850193979
0.007704993408
-0.2199625885
0.2196836232
-0.007426028137
-0.4391717347
0.01302876324
0.4380662772
-0.01192330574
-0.4389502907
0.01080887014
0.4378203908
-0.00967897025
-0.01251206023
0.873190766
0.008260955747
0.008551436578
-0.008293969998
0.8727679901
-0.004128547942
0.8725295828
0.8723308397
-0.2280769706
0.009616591187
0.2280643581
-0.009603978607
-0.2251806575
0.00946516571
0.2251035954
-0.009388103605
-0.2227898137
0.009074415437
0.2226596108
-0.00894421255
-0.2209929326
0.008485118706
0.2208193486
-0.008311534671
-0.2197352173
0.007739330259
0.2195297732
-0.007533886244
0.006882269423
-0.2189421641
0.2187089703
-0.006649075664
-0.4370429466
0.01175163773
0.4360954787
-0.01080416986
-0.4367894097
0.009836463456
0.4357958135
-0.008842867262
-0.01150967334
0.8693171382
0.007545564487
0.007837736642
-0.007657532902
0.8689158496
-0.003819828132
0.8686918781
0.8685110115
-0.2280221077
0.008355761871
0.2280067796
-0.008340433725
-0.2248955459
0.008221291396
0.2248328062
-0.008158551701
-0.2223118462
0.007907523475
0.2222082829
-0.007803960172
-0.2203537476
0.007438142255
0.2202146966
-0.007299091268
-0.218973237
0.006836673103
0.2188055332
-0.006668969272
0.006130931767
-0.2180926731
0.2178977361
-0.005935994812
-0.4352164994
0.01055281181
0.434401009
-0.009737321356
-0.4348913094
0.008896380061
0.4340186524
-0.008023723047
-0.01050835735
0.8658445378
0.006850096589
0.007130861135
-0.007013479336
0.8654209716
-0.00350511562
0.8651835144
0.8650058959
-0.2279580399
0.00730134056
0.2279410797
-0.007284380394
-0.2246608038
0.007179478712
0.2246082383
-0.007126913295
-0.2219280792
0.006920484694
0.2218436275
-0.006836032956
-0.2198380747
0.006538080646
0.2197245479
-0.006424553848
-0.218348059
0.006044727146
0.2182092688
-0.005905936998
0.005456602931
-0.2173812043
0.2172166608
-0.005292059398
-0.4336434765
0.009451815677
0.4329395856
-0.008747924811
-0.433224913
0.008015442693
0.432457886
-0.007248415744
-0.009544361145
0.8627395953
0.006193021335
0.006456282341
-0.006387272152
0.8622638826
-0.003197442426
0.8619936847
0.8618084535
-0.2278887325
0.006410800302
0.2278709273
-0.006392995081
-0.2244626117
0.00629923707
0.2244176782
-0.006254303537
-0.2216127943
0.00608099936
0.2215425376
-0.006010742651
-0.2194145153
0.005763578371
0.2193202908
-0.005669353836
-0.2178283113
0.005352827133
0.2177120001
-0.005236515882
0.00485721748
-0.2167795647
0.2166394293
-0.004717082063
-0.4322843754
0.008455293049
0.4316741697
-0.007845087414
-0.431760427
0.007205052944
0.4310851151
-0.006529741098
-0.008638993027
0.859966393
0.005585292348
0.005826902943
-0.005794559402
0.859419449
-0.00290493839
0.8591040636
0.8589035151
-0.227816897
0.005651437509
0.2277987593
-0.005633299831
-0.2242922821
0.005548671363
0.2242533172
-0.005509706458
-0.2213489914
0.005361923868
0.2212896236
-0.005302556028
-0.2190612296
0.005094469317
0.2189819516
-0.005015191279
-0.2173910673
0.004748176003
0.2172925393
-0.004649648093
0.004326448211
-0.2162662936
0.2161460034
-0.00420615802
-0.4311047596
0.007563879455
0.4305731092
-0.007032229035
-0.4304708583
0.006470868196
0.4298747879
-0.005874797733
-0.007805739914
0.8574886135
0.005033079473
0.005250439984
-0.005245662151
0.8568593712
-0.002633082666
0.8564914842
0.8562704325
-0.22774425
0.005001855144
0.2277260996
-0.004983704655
-0.2241439255
0.004906727485
0.2241097552
-0.004872557138
-0.221124968
0.004744956605
0.2210741554
-0.004694144005
-0.2187626428
0.004516770402
0.2186951544
-0.004449282093
-0.217019301
0.004221609846
0.2169350292
-0.00413733799
0.003859570026
-0.2158248239
0.2157208188
-0.00375556486
-0.4300756274
0.006773987482
0.429609939
-0.006308299024
-0.4293321069
0.005813838088
0.4288042552
-0.005285986412
-0.007049807725
0.8552717377
0.004536557462
0.004730126052
-0.004745224915
0.8545547884
-0.002384501554
0.8541307608
0.8538859309
-0.2276718473
0.00444788438
0.2276538631
-0.004429900142
-0.2240133277
0.00435937472
0.223983063
-0.004329110066
-0.2209323942
0.004217720333
0.2208884057
-0.004173731833
-0.2185074155
0.004020827449
0.2184493375
-0.003962749434
-0.2167002014
0.003766644942
0.2166274444
-0.00369388797
0.003453118385
-0.2154422571
0.2153516621
-0.003362523385
-0.42917301
0.006080071101
0.4287627831
-0.005669844224
-0.4283231258
0.005232208995
0.4278537984
-0.004762881601
-0.006374683994
0.8532829304
0.004097087886
0.004266403395
-0.004296536935
0.8524766413
-0.00216110473
0.8519953286
0.8517248262
-0.2276002803
0.003976140568
0.2275825584
-0.003958418615
-0.2238972772
0.003893351877
0.2238702263
-0.003866300991
-0.2207650604
0.003768094221
0.2207265844
-0.003729618137
-0.2182869795
0.003596438961
0.2182364926
-0.003545952054
-0.2164238154
0.003375406195
0.2163604281
-0.003312018905
0.003101556801
-0.2151082361
0.2150287311
-0.003022051886
-0.4283767365
0.005475589481
0.428013155
-0.005112007956
-0.4274252858
0.004722552519
0.4270059721
-0.004303238772
-0.005779114687
0.8514918795
0.00371226293
0.003857902627
-0.003899504189
0.8505970308
-0.001963057124
0.8500588815
0.8497617691
-0.2275298559
0.003574486774
0.2275124397
-0.00355707063
-0.2237932389
0.003496620221
0.2237688508
-0.003472232175
-0.2206182075
0.003384849376
0.2205842309
-0.003350872719
-0.2180947221
0.00323375484
0.2180504161
-0.003189448835
-0.2161822928
0.003039765395
0.2161265813
-0.002984053909
0.002798544894
-0.214814356
0.2147440552
-0.002728244151
-0.4276698834
0.004953914449
0.4273454857
-0.004629516832
-0.4266222936
0.004280760533
0.4262454817
-0.003903948634
-0.005260638253
0.8498706811
0.003379540948
0.003502295697
-0.003553035209
0.8488894278
-0.001789979383
0.8482958257
0.8479717897
-0.2274606541
0.003235758628
0.2274435363
-0.003218640761
-0.2236991234
0.003162028962
0.2236769294
-0.003139834962
-0.2204880582
0.003061324417
0.2204577537
-0.003031019995
-0.2179253907
0.002926982314
0.2178861176
-0.002887709239
-0.2159692886
0.002755048169
0.2159198583
-0.002705617856
0.002540587817
-0.2145535442
0.2144908333
-0.002477876889
-0.4270381032
0.004509415815
0.4267463841
-0.004217696677
-0.4258997668
0.003903017178
0.4255587486
-0.003561998945
-0.004816132623
0.8483933733
0.003096126395
0.003197314012
-0.003255458854
0.847328754
-0.001641154939
0.8466815218
0.8463306347
-0.2273926009
0.002952606628
0.2273757567
-0.002935762377
-0.2236131607
0.002882313462
0.2235927668
-0.002861919496
-0.2203715228
0.002790662923
0.2203442102
-0.002763350337
-0.2177747059
0.0026699479
0.2177395252
-0.00263476719
-0.2157796184
0.002515989495
0.2157353381
-0.002471709129
0.002323663603
-0.2143199747
0.2142639326
-0.002267621484
-0.4264685419
0.004135429522
0.4262034246
-0.003870312253
-0.4252448261
0.003583839447
0.4249335745
-0.003272587818
-0.004441087272
0.8470368688
0.002858963463
0.002938628275
-0.003004083305
0.84589175
-0.001515366413
0.8451928049
0.8448152683
-0.2273255843
0.002721087961
0.2273089786
-0.002704482262
-0.2235338517
0.002653580977
0.2235149074
-0.002634636625
-0.2202660269
0.002569208705
0.2202411105
-0.002544292358
-0.2176391085
0.002459387583
0.2176071956
-0.002427474658
-0.2156089847
0.002319804103
0.2155688406
-0.002279660021
0.002145396437
-0.214109309
0.2140589191
-0.002095006547
-0.42594954
0.003827609559
0.4257060152
-0.003584084715
-0.4246459087
0.003320617338
0.4243591442
-0.003033852807
-0.00413237014
0.8457773783
0.002666132254
0.002725728327
-0.002797116251
0.8445564961
-0.001411681628
0.8438073703
0.8434035867
-0.2272594682
0.002536806094
0.2272430585
-0.002520396429
-0.223459866
0.00247147242
0.2234420543
-0.002453660725
-0.2201693167
0.002392788647
0.220146269
-0.00236974099
-0.2175154719
0.00229144545
0.2174860963
-0.002262069834
-0.2154534625
0.002163009904
0.2154165129
-0.002126060329
0.002002201444
-0.2139169358
0.2138701352
-0.001955400795
-0.4254720701
0.0035798886
0.4252464526
-0.003354271184
-0.4240925554
0.003109073199
0.423824317
-0.002840834904
-0.003887243001
0.8446029335
0.002512321619
0.002549366218
-0.002633019675
0.8433022728
-0.001329769656
0.8425041202
0.842073817
-0.2271940738
0.002395345895
0.2271778083
-0.002379080435
-0.2233899767
0.002331585828
0.2233730031
-0.002314612148
-0.2200793763
0.002257141672
0.220057726
-0.002235491431
-0.2174010234
0.002162138113
0.2173735471
-0.002134661828
-0.2153095393
0.002042072682
0.215275006
-0.002007539392
0.001891684295
-0.2137380614
0.2136942352
-0.00184785817
-0.4250278818
0.003390970578
0.4248156252
-0.003178714039
-0.4235746918
0.002948074634
0.4233231786
-0.002696561391
-0.003701355719
0.8434796317
0.002401227156
0.002423430343
-0.002507727167
0.8421086442
-0.001266473718
0.8412628668
0.8408073433
-0.2271291472
0.002294392684
0.2271129561
-0.002278201521
-0.2233229945
0.002231571772
0.2233065695
-0.00221514678
-0.2199943423
0.002159974149
0.2199736472
-0.002139279066
-0.217293266
0.002069325537
0.2172671044
-0.00204316392
-0.2151741746
0.001955091459
0.2151413428
-0.001922259698
0.001812076722
-0.2135695754
0.2135278312
-0.001770332552
-0.4246084059
0.003257166356
0.4244056014
-0.003054361904
-0.4230860117
0.002833634249
0.4228449792
-0.002592601773
-0.003583418567
0.8424029508
0.002315208422
0.002344890982
-0.002429226258
0.8409544519
-0.001230197192
0.8400638377
0.8395771461
-0.2270643847
0.002233300279
0.2270481866
-0.002217102228
-0.2232577552
0.002170741499
0.2232415786
-0.002154564882
-0.2199124646
0.002100573583
0.2198922892
-0.002080398211
-0.2171899052
0.002012351772
0.2171644962
-0.001986942712
-0.215044563
0.001901501321
0.2150127422
-0.001869680464
0.001762978911
-0.2134081894
0.2133679612
-0.001722750721
-0.4242062371
0.003177218867
0.4240095155
-0.002980497337
-0.4226178898
0.002767287642
0.4223902378
-0.002539635707
-0.003485441923
0.002229283219
0.002298375763
-0.002359276556
-0.001187547546
-0.006540556521
0.02896118442
-0.02910980021
0.006689172303
0.0065626327
-0.01261474475
-0.05869709885
0.1237634901
-0.01557284782
-0.1248841181
0.01669347577
-0.008768245372
0.0551698093
-0.0551535856
0.008752021674
0.00653705697
0.0287375583
-0.01747250721
0.0007975783092
-0.05196266743
-0.05199312759
0.2323333179
-0.02080259643
0.01283692868
0.01246074621
-0.1185907822
-0.1182376141
0.0160766999
0.1227269276
-0.009122247654
0.1118459124
-0.1114848231
0.008761158325
0.008300273889
0.05509567222
0.1221181712
-0.02024918038
-0.1233805017
0.01065778815
0.01085372282
-0.0539762301
-0.009247072046
0.009602497579
0.05362080457
-0.009552425964
-0.05443569653
0.0100118924
0.05513189271
-0.009255001434
-0.05542931724
0.1188227593
-0.01674509715
-0.1192203402
0.01714267811
-0.01948562253
0.1209022122
0.01025025874
0.0104513227
-0.03039584519
-0.007122562604
0.00745643126
0.03006197654
0.05560272657
-0.01151731967
-0.05604862396
0.005954816549
0.006008400506
-0.007179261021
-0.03066084229
0.007444258124
0.03035025763
-0.006973493067
-0.03055602558
0.06134127789
-0.01218548556
-0.06175332622
0.01259753389
-0.01118676098
0.01153144969
0.05525803786
-0.01937852953
0.009626196289
-0.112316368
-0.1127977944
-0.02212057923
0.2355509692
-0.2323338087
0.01889619417
0.234060647
0.01323033007
0.00999126981
0.0596869098
-0.01137073592
-0.06008992868
0.0117737548
-0.01203901414
0.01246613131
0.06091416073
0.03012910092
-0.006901405898
0.1157183524
-0.01099138839
-0.1157739255
0.01104696147
-0.0158680129
0.01579057456
0.1189001976
0.05470986386
-0.008825043199
-0.01236552926
0.1106146056
-0.1103105398
0.0120614635
0.01710418194
-0.01660499719
-0.0004991847423
0.03034326735
-0.007206645376
-0.0305113767
0.007374754726
0.04877865661
-0.008326362673
-0.04896048544
0.05192490324
-0.007735159005
-0.05268638034
0.008496636101
0.006696008344
-0.02543305337
0.02655601645
-0.007818971428
0.006200121819
0.02758723946
-0.006818903918
-0.02696845736
0.02948293947
-0.006863495322
-0.02953780705
0.006918362907
0.02529541022
-0.02373715529
0.004641866891
-0.01718328723
0.02427916317
-0.0003998675991
0.02713524542
-0.007365381866
-0.02709486061
0.00732499706
-0.005527635117
0.003778581351
0.02704446399
0.02778979166
-0.005998373717
-0.02134513872
0.02696682525
-0.006729163228
-0.02697441197
0.006736749946
-0.007208974211
0.007082175153
0.02726204448
0.02718713751
-0.006085708258
-0.02721135886
0.006109929611
-0.006530077007
0.006532688762
0.0269642135
0.02098023371
-0.006210036818
-0.01672922777
-0.000454059452
-0.007075622975
0.007002292066
0.03041659826
0.02246998513
-0.005062814027
-0.0003029891663
-0.008362882989
-0.03379939815
-0.01463123596
-0.1252658817
-0.02322775081
0.2654118429
-0.2657562772
0.02353548857
-0.00663359011
0.006806653755
0.02930987583
0.02851032469
-0.006450720352
0.0283254506
-0.007130095708
-0.02856073675
-0.006011726932
0.004283860735
0.02912226729
-0.006834567683
0.03031021049
0.03077130024
-0.007080776443
-0.03089716917
0.03086740729
-0.006700241772
-0.03096137815
0.006794212632
-0.01594492633
0.02249764718
-0.006159435248
-0.0003932855984
-0.01534085835
-0.0006040679775
-0.01453711762
0.01515728618
-0.02944223102
0.02229703165
-0.007391918249
-0.006541665246
-0.000402918589
-0.00582903399
0.02660085657
-0.02668245757
0.005910634985
-0.005963611308
0.006188684277
0.02696206454
0.02760244879
-0.0002240936338
-0.03446273699
0.02566222444
-0.007804484639
-0.006606119485
-0.0002541687149
0.01534353261
-0.0316320648
-0.007448623102
0.01585880833
-0.0005152757201
0.02083534306
-0.000334667839
-0.006976476977
-0.0003764246484
0.007731418338
-0.02747659447
-0.00734968448
0.02378581861
-0.03139525863
0.02495138043
0.0249477985
-0.000333874094
-0.006042944436
-0.0004045156892
-0.006475074918
-0.02346689951
0.02395244851
-0.006483922717
0.005731974149
-0.006901842005
-0.005200345229
0.02247565693
-0.02415502758
0.02481872155
-0.005864039197
-0.006412615886
-0.004081350181
0.02692031341
-0.0003689781017
-0.02713022171
0.02891847968
-0.005869608142
-0.006530811301
-0.02926246697
-0.007804667299
0.02870425128
0.006524069105
-0.006868056396
-0.0003550156298
-0.02253362209
-0.2742876923
-0.02016154625
0.2902331563
-0.2910739217
0.02088790552
-0.0224429386
-0.2895145371
-0.02095900993
0.286302589
-0.2874528097
0.02199068503
-0.01965554383
-0.2819250179
0.255492056
-0.01315328401
-0.258211305
0.0158202448
0.05658587892
-0.01118776115
-0.05691543744
0.058282292
-0.01020752382
-0.05867802872
0.01060326054
-0.01111233812
0.01148463273
0.05931461519
-0.01952408481
-0.2393304274
-0.02197357322
0.2660281172
-0.2680658058
0.02394449552
0.0232453985
0.2668156285
-0.02379381698
-0.2727814211
-0.02889905273
0.2896073746
-0.2890954436
0.02826022585
0.02462840095
0.2892562001
-0.02464176365
-0.2907443933
-0.01975240621
0.2796604423
-0.2815851645
0.02156009734
0.02037965511
0.2844559116
-0.01786414283
-0.2751292035
0.2442020684
-0.01257157089
-0.2476454689
0.01598246096
0.01363907446
0.2533795255
0.1118712574
-0.01247552248
-0.1117612642
0.1143963314
-0.01234901271
-0.114562866
0.01251554723
-0.01489229141
0.01533808889
0.1152725549
-0.02555272381
-0.2411032069
-0.03080944711
0.2713054923
-0.2703964468
0.02980681493
0.02343319695
0.2667230173
-0.03117250324
-0.2780298788
-0.02910579356
0.2879806488
-0.2892749235
0.03025843911
0.02443593035
0.2887101154
-0.0320254534
-0.28403456
-0.02855169601
0.2705111653
-0.2729014038
0.03084330657
0.02650930876
0.2778571163
-0.01973151744
-0.2672329175
0.2316285823
-0.00988622333
-0.2344055797
0.0126559244
0.01395834497
0.2413762942
-0.02813731173
0.2304183411
-0.2277602048
0.2236103695
-0.1107110105
-0.0312680385
-0.2319834671
-0.04123212614
0.2511164289
-0.2479872868
0.03805602223
0.02049214967
0.2400257011
-0.04381984629
-0.2547701415
-0.04696504279
0.2739729843
-0.2738668957
0.04675457054
0.03339804621
0.2723367421
-0.04632355998
-0.2783768506
-0.03973338653
0.2789000851
-0.2819225137
0.04263202761
0.03368240946
0.286384653
-0.03626319839
-0.279221604
-0.02352575841
0.2553643007
-0.2599557642
0.02804494067
0.02535356783
0.2675305547
-0.01888541161
-0.2505224696
0.2269895652
-0.01125522669
-0.2276296118
0.01189527334
0.01403195727
0.22918163
-0.06351010153
0.2366375098
-0.2358360047
0.2326841603
-0.06414809046
-0.2405273411
-0.06489823522
0.2554394669
-0.2555892976
0.06498825783
0.04544250897
0.2534293846
-0.06426542073
-0.2602824126
-0.05828781575
0.2673018684
-0.2701373247
0.06102980406
0.05131381002
0.2734423951
-0.05480208521
-0.271326706
-0.04039050409
0.2606926247
-0.2661595124
0.0457720609
0.04470383461
0.275276474
-0.03457747173
-0.2613266201
-0.01588663454
0.2323812415
-0.2387019472
0.02218441891
0.0277656254
0.250261038
-0.01219011637
-0.2293069547
0.2247078813
-0.01056057817
-0.2252372325
0.01108992946
0.01171706435
0.2263774855
-0.07529355762
0.2355831624
-0.2363229969
0.2369379763
-0.07418015979
-0.2400613816
-0.06746735423
0.2476074636
-0.250489825
0.0703024323
0.06917509166
0.2544929778
-0.06399377606
-0.2528349692
-0.0497573494
0.2491035293
-0.2545108004
0.05510735039
0.0619650162
0.2637097043
-0.04386129353
-0.2529854465
-0.02376963942
0.234414814
-0.241431713
0.03075703041
0.04393089995
0.2546891927
-0.016664551
-0.2353649495
-0.01145509578
0.2235589828
-0.2239968061
0.01189291915
0.01857807187
0.2265309595
-0.01101635876
-0.2238006993
0.2228424365
-0.009714119914
-0.2232724838
0.01014416721
0.01086000648
0.2242042531
-0.04914104104
0.2313578628
-0.2324995161
0.2346603274
-0.04729845431
-0.2340793815
-0.0375338674
0.2328107979
-0.2367668896
0.04147200674
0.0662831084
0.2442793733
-0.0329891283
-0.2364994835
-0.01647320852
0.2254144751
-0.2312824685
0.02233337361
0.04929253114
0.2433344544
-0.01273438267
-0.2279546826
-0.01149269292
0.2231524503
-0.2234497257
0.01178996825
0.02383417653
0.2273275563
-0.01118234726
-0.2231588321
-0.0101942523
0.2220702621
-0.222407123
0.01053111322
0.01153985898
0.2231495514
-0.009852335392
-0.2222000485
0.2213326987
-0.008811647116
-0.2216806366
0.009159584999
0.009896135045
0.2224343205
-0.0115722029
0.2288341448
-0.2288187364
0.2302334458
-0.01156356538
-0.2281272
-0.01138339422
0.226148282
-0.2262324783
0.01146759043
0.02959933635
0.2289039336
-0.01127753046
-0.2256456792
-0.0108421357
0.223888824
-0.2240525388
0.01100585056
0.01311059969
0.2244182238
-0.01066138756
-0.2235827187
-0.0100295733
0.222154784
-0.2223789905
0.01025377984
0.01138358532
0.2228761694
-0.009793572977
-0.2220375303
-0.00902814435
0.2209136983
-0.2211771021
0.009291548096
0.01020920568
0.2217539924
-0.008758127197
-0.2209469008
0.2201061954
-0.007919277432
-0.2203895302
0.008202612299
0.008916241537
0.2210018565
-0.009967498661
0.228868777
-0.2288645666
0.2288471828
-0.009955741425
-0.2280887279
-0.009810690962
0.2258607218
-0.2259263452
0.009876314348
0.01104165698
0.2260695344
-0.009729114629
-0.2252622338
-0.009395846686
0.2233350512
-0.223460253
0.009521048542
0.01061104291
0.223736223
-0.009257397506
-0.2229282629
-0.008769764981
0.2213894072
-0.2215632298
0.008943587641
0.00990898748
0.2219448597
-0.008585740958
-0.2211769566
-0.007980783136
0.2199994932
-0.2202091244
0.00819041435
0.009005608496
0.2206652518
-0.007764244393
-0.219951756
0.2191015927
-0.007080484037
-0.2193344144
0.007313305769
0.007975208856
0.2198359799
-0.008651275263
0.2288631709
-0.2288674644
0.2288704905
-0.008636517272
-0.2280368657
-0.008513087405
0.2256288979
-0.2256828242
0.008567013667
0.009527424393
0.2257984632
-0.008447231404
-0.2249614019
-0.008182524828
0.2229025737
-0.223001631
0.008281582105
0.009192170991
0.2232172956
-0.008073119169
-0.2224212518
-0.007686704604
0.2207871175
-0.2209251965
0.007824783645
0.008648897691
0.2212256282
-0.007539972858
-0.2205004794
-0.007052941787
0.219264516
-0.2194341434
0.007222569219
0.007937896219
0.2198009273
-0.00687671171
-0.2191494671
0.2182714025
-0.006313324465
-0.2184643843
0.006506306266
0.007104999373
0.2188788627
-0.007550096364
0.2288320249
-0.2288415885
0.2288573101
-0.007533453156
-0.2279746831
-0.007425313208
0.2254345457
-0.2254802613
0.007471028819
0.008272901168
0.2255772881
-0.007370474433
-0.2247156425
-0.00715411322
0.2225545479
-0.2226350912
0.007234656472
0.008001346143
0.2228087511
-0.007065402201
-0.2220167902
-0.006752266698
0.2203025435
-0.220414534
0.006864257124
0.007568905787
0.2206563539
-0.006633001114
-0.2199573403
-0.006234493049
0.2186644287
-0.2188037386
0.00637380291
0.006997895503
0.2191032936
-0.006089125433
-0.2184934266
0.2175795434
-0.005619961508
-0.2177409924
0.005781410493
0.006315871291
0.218086463
-0.006618860615
0.2287851492
-0.2287979686
0.2288214991
-0.006601212793
-0.2279063804
-0.00650490513
0.2252676321
-0.225307166
0.006544439049
0.007223486104
0.2253905383
-0.006458253907
-0.2245092629
-0.006277531275
0.2222676948
-0.2223345977
0.006344434206
0.006997224058
0.2224778086
-0.006204098755
-0.2216862269
-0.005945550717
0.2199051049
-0.2199975594
0.006038005219
0.00664464499
0.2201959792
-0.005846986498
-0.2195130795
-0.005516166523
0.2181674027
-0.2182833612
0.005632125075
0.006177607185
0.2185315487
-0.005394758826
-0.217949719
0.2169971287
-0.004999944715
-0.217133504
0.005136320084
0.005611755653
0.2174243906
-0.005828770741
0.2287284772
-0.2287433327
0.2287717249
-0.005810684528
-0.2278349832
-0.005723950155
0.225121948
-0.2251566299
0.005758632072
0.006337462263
0.2252294069
-0.005683628436
-0.2243326038
-0.005530075498
0.222026808
-0.2220833435
0.005586610963
0.006145067232
0.2222036269
-0.005468250611
-0.2214108163
-0.005251340573
0.2195738014
-0.2196513105
0.00532884969
0.005851949845
0.2198167334
-0.005168681702
-0.2191438885
-0.004890431885
0.2177504673
-0.2178481871
0.004988151631
0.005463836415
0.2180563934
-0.004787857147
-0.217493642
0.2165021776
-0.004452238703
-0.216618469
0.004568530061
0.004988676235
0.2168656699
-0.005155698341
0.228665694
-0.2286818168
0.2287132428
-0.005137526409
-0.227762422
-0.005058743542
0.2249932577
-0.2250240216
0.005089507443
0.005582303957
0.2250883154
-0.00502346066
-0.2241792084
-0.004891207044
0.2218214874
-0.2218699289
0.004939648493
0.005416262708
0.2219724692
-0.004838427977
-0.2211777471
-0.004653997568
0.2192938045
-0.2193596385
0.004719831484
0.005168807765
0.2194994629
-0.00458379798
-0.2188328423
-0.004347056912
0.2173967448
-0.2174800007
0.004430312739
0.004841986916
0.2176566564
-0.004259491962
-0.217106866
0.2160778387
-0.003971548935
-0.2161778706
0.004071580851
0.00443881209
0.2163898137
-0.004579363699
0.2285991731
-0.2286160609
0.228649345
-0.00456132177
-0.2276898893
-0.004489264643
0.2248784862
-0.224906018
0.004516796481
0.004936618166
0.2249633671
-0.004458086835
-0.2240445055
-0.004342929276
0.2216443512
-0.221686325
0.004384903071
0.004791635309
0.2217748087
-0.004297359743
-0.2209779637
-0.004138791351
0.2190543944
-0.219110927
0.004195323968
0.00458006661
0.2192305083
-0.004078534424
-0.2185676724
-0.003875108668
0.2170936481
-0.2171652569
0.003946717474
0.004301698631
0.2173166561
-0.003799677509
-0.2167756325
0.2157111089
-0.003550607495
-0.2157978257
0.003637324237
0.003956388295
0.2159810204
-0.004087318152
0.2285304575
-0.2285477812
0.2285821546
-0.00406952364
-0.2276180748
-0.004003172026
0.2247752399
-0.2248000854
0.004028017519
0.004386182061
0.2248516789
-0.003975372356
-0.2239250769
-0.003874106933
0.221489896
-0.2215266361
0.00391084701
0.004258272925
0.2216037986
-0.003834355227
-0.2208048121
-0.003696615786
0.2188475107
-0.2188965525
0.003745657598
0.004075322997
0.2189998988
-0.003644373857
-0.2183392214
-0.003467912617
0.2168314737
-0.216893633
0.003530071954
0.003835690175
0.2170246028
-0.003402355355
-0.2164893727
0.2153916457
-0.003185139176
-0.2154674124
0.003260905899
0.00353722187
0.2156270055
-0.003667858246
0.2284605579
-0.2284781028
0.2285130619
-0.00365036902
-0.2275473451
-0.003588854839
0.2246815911
-0.2247041941
0.003611457872
0.003917598745
0.2247509931
-0.003563853918
-0.2238182398
-0.003473983498
0.2213538954
-0.2213863578
0.00350644585
0.003803684664
0.2214543056
-0.003438974257
-0.2206532167
-0.003318172655
0.2186669543
-0.218709907
0.003361125369
0.003643841034
0.2188001086
-0.00327244902
-0.2181404458
-0.003117977279
0.2166026162
-0.2166570562
0.003172417313
0.003435490285
0.2167713896
-0.003060504115
-0.216239766
0.2151111224
-0.002869508682
-0.2151778505
0.002936236715
0.00317520737
0.2153179951
-0.003314158277
0.2283900815
-0.2284077309
0.2284429742
-0.003296972194
-0.2274778402
-0.003239482346
0.2245959123
-0.2246166626
0.003260232649
0.003518731339
0.22465948
-0.003216785
-0.2237218208
-0.003136239141
0.2212329813
-0.2212619517
0.003165209553
0.003416379115
0.2213223657
-0.003105093013
-0.2205192043
-0.002998058478
0.2185078104
-0.218545816
0.003036064085
0.003275383474
0.2186253257
-0.002957632149
-0.217965817
-0.002821066775
0.2164009635
-0.2164491097
0.002869212933
0.003092523373
0.2165498582
-0.002770195143
-0.2160201603
0.214862635
-0.002600668448
-0.2149219563
0.002659989715
0.002863565725
0.2150461016
-0.003018946717
0.2283193687
-0.2283370563
0.2283724141
-0.003002034028
-0.2274095136
-0.002947844372
0.2245167949
-0.2245360293
0.002967078739
0.003182374545
0.2245755667