/*--------------------------------*- C++ -*----------------------------------*\
| =========                 |                                                 |
| \\      /  F ield         | OpenFOAM: The Open Source CFD Toolbox           |
|  \\    /   O peration     | Version:  v2012                                 |
|   \\  /    A nd           | Website:  www.openfoam.com                      |
|    \\/     M anipulation  |                                                 |
\*---------------------------------------------------------------------------*/
FoamFile
{
    version     2.0;
    format      ascii;
    class       pointVectorField;
    location    "2.52";
    object      pointDisplacement;
}
// * * * * * * * * * * * * * * * * * * * * * * * * * * * * * * * * * * * * * //

dimensions      [0 1 0 0 0 0 0];


internalField   nonuniform List<vector> 
7018
(
(0 0 0)
(0 0 0)
(0 0 0)
(0 0 0)
(0 0 0)
(0 0 0)
(0 0 0)
(0 0 0)
(0 0 0)
(0 0 0)
(0 0 0)
(0 0 0)
(0 0 0)
(0 0 0)
(0 0 0)
(0 0 0)
(0 0 0)
(0 0 0)
(0 0 0)
(0 0 0)
(0 0 0)
(0 0 0)
(0 0 0)
(0 0 0)
(0 0 0)
(0 0 0)
(0 0 0)
(0 0 0)
(0 0 0)
(0 0 0)
(0 0 0)
(0 0 0)
(0 0 0)
(0 0 0)
(0 0 0)
(0 0 0)
(0 0 0)
(0 0 0)
(0 0 0)
(0 0 0)
(0 0 0)
(0 0 0)
(0 0 0)
(0 0 0)
(-3.64962438e-07 7.572534515e-05 3.469446952e-16)
(1.685598577e-06 6.437200228e-05 2.775557562e-16)
(0 0 0)
(0 0 0)
(0 0 0)
(0 0 0)
(0 0 0)
(0 0 0)
(0 0 0)
(0 0 0)
(0 0 0)
(0 0 0)
(0 0 0)
(0 0 0)
(0 0 0)
(0 0 0)
(0 0 0)
(0 0 0)
(0 0 0)
(0 0 0)
(0 0 0)
(0 0 0)
(0 0 0)
(0 0 0)
(0 0 0)
(0 0 0)
(0 0 0)
(0 0 0)
(0 0 0)
(0 0 0)
(0 0 0)
(0 0 0)
(0 0 0)
(0 0 0)
(0 0 0)
(0 0 0)
(0 0 0)
(-2.285507383e-05 0.00715795863 3.524958103e-14)
(-2.287117608e-05 0.01145991225 5.827283101e-14)
(0.0003735705021 0.01131087629 5.752343046e-14)
(0.0002163366097 0.007040307583 3.466671394e-14)
(0.0007129987228 0.005395932176 2.657596365e-14)
(0.001265767326 0.009196335193 4.679590049e-14)
(0.001384977231 0.008034857933 4.088396288e-14)
(0.0007490795921 0.004516927137 2.224609386e-14)
(0.0004398462114 0.001648213233 8.118505868e-15)
(0.001092266335 0.003952350017 2.012279232e-14)
(0.0008213268841 0.002640823779 1.34336986e-14)
(0.0002568832386 0.0008546469867 4.204969706e-15)
(0 0 0)
(4.324201576e-05 0.0001040966668 5.273559367e-16)
(0 0 0)
(0 0 0)
(0 0 0)
(0 0 0)
(0 0 0)
(0 0 0)
(0 0 0)
(0 0 0)
(0 0 0)
(0 0 0)
(0 0 0)
(0 0 0)
(0 0 0)
(0 0 0)
(0 0 0)
(0 0 0)
(0 0 0)
(0 0 0)
(0 0 0)
(0 0 0)
(0 0 0)
(0 0 0)
(0 0 0)
(0 0 0)
(7.213668951e-05 0.02659151234 1.499356195e-13)
(0.0001384780294 0.03149589846 1.842692665e-13)
(0.001396860365 0.03126092814 1.8299251e-13)
(0.001095347553 0.02637069752 1.487560075e-13)
(0.003656164143 0.0232344712 1.312144837e-13)
(0.004609394332 0.02795418354 1.638827962e-13)
(0.005332858505 0.02604797254 1.527666882e-13)
(0.004197401597 0.02144269492 1.21125332e-13)
(0.004497445451 0.01449117786 8.187894807e-14)
(0.00598448385 0.01849364327 1.085104229e-13)
(0.005657891633 0.01558563007 9.145462165e-14)
(0.004141541514 0.01188701635 6.716849299e-14)
(0.002107204419 0.004556030925 2.57294186e-14)
(0.003371808404 0.007009380179 4.10921297e-14)
(0.002382049904 0.004577029612 2.682576383e-14)
(0.001322029412 0.002640583499 1.490474411e-14)
(0 0 0)
(0.0001142898472 0.0001783756407 1.040834086e-15)
(0 0 0)
(0 0 0)
(0 0 0)
(0 0 0)
(0 0 0)
(0 0 0)
(0 0 0)
(0 0 0)
(0 0 0)
(0 0 0)
(0 0 0)
(0 0 0)
(0 0 0)
(0 0 0)
(0 0 0)
(0 0 0)
(0 0 0)
(0 0 0)
(0 0 0)
(0 0 0)
(0.0003689810741 0.04265480393 2.813305144e-13)
(0.0004268241936 0.04467895917 3.077260669e-13)
(0.002534951636 0.04445430424 3.065186993e-13)
(0.002294391463 0.04241613093 2.800260024e-13)
(0.007451417436 0.03922191378 2.596256543e-13)
(0.008269080868 0.04151806991 2.871591853e-13)
(0.009791223456 0.03973274202 2.750577544e-13)
(0.008773002043 0.03731840051 2.472050342e-13)
(0.01080751767 0.02924092809 1.939559624e-13)
(0.0123621018 0.03189802842 2.211841821e-13)
(0.01240116345 0.02856322604 1.980915432e-13)
(0.0107234509 0.02589554712 1.717792575e-13)
(0.008165408616 0.01489446051 9.872658246e-14)
(0.01018018713 0.01765068354 1.224575996e-13)
(0.008768635953 0.01404958359 9.750533714e-14)
(0.006948018774 0.01168982806 7.749356712e-14)
(0.002404918952 0.003301221474 2.187139359e-14)
(0.00359479525 0.004715709531 3.265443471e-14)
(0.00202789871 0.002508275967 1.734723476e-14)
(0.001158728344 0.001499003281 9.922618283e-15)
(0 0 0)
(0 0 0)
(0 0 0)
(0 0 0)
(0 0 0)
(0 0 0)
(0 0 0)
(0 0 0)
(0 0 0)
(0 0 0)
(0 0 0)
(0 0 0)
(0 0 0)
(0 0 0)
(0 0 0)
(0 0 0)
(0 0 0)
(0 0 0)
(0.0004448464781 0.04479447189 3.55784846e-13)
(0.0003942932894 0.04294706964 3.594624598e-13)
(0.002873913087 0.04287340988 3.594069486e-13)
(0.002892363675 0.04466720492 3.552991235e-13)
(0.009997298329 0.04322300282 3.453765052e-13)
(0.01025843709 0.04209204905 3.54674623e-13)
(0.0124980945 0.04132831841 3.488320743e-13)
(0.01209031078 0.042142148 3.372302437e-13)
(0.01643708439 0.03625169808 2.912114994e-13)
(0.01747323286 0.03633238472 3.084477118e-13)
(0.01829487749 0.03386930527 2.880751193e-13)
(0.01703131377 0.03338592332 2.68673972e-13)
(0.0156818266 0.02328284783 1.875444244e-13)
(0.01728254663 0.02428421047 2.065569937e-13)
(0.01581807645 0.02059916721 1.750682932e-13)
(0.01418720832 0.01952194174 1.571243136e-13)
(0.00771301458 0.008715970967 6.98885394e-14)
(0.009092107921 0.00972695435 8.235079285e-14)
(0.006552246497 0.006617417739 5.592748487e-14)
(0.0053679734 0.005725432792 4.585221092e-14)
(0.0003541425657 0.0003225856419 2.581268532e-15)
(0.0006084023123 0.0005249560908 4.427014311e-15)
(1.544419112e-05 1.269431125e-05 1.110223025e-16)
(0 0 0)
(0 0 0)
(0 0 0)
(0 0 0)
(0 0 0)
(0 0 0)
(0 0 0)
(0 0 0)
(0 0 0)
(0 0 0)
(0 0 0)
(0 0 0)
(0 0 0)
(0 0 0)
(0 0 0)
(0.0002043873917 0.03601798648 0)
(0.0001730619605 0.03486298137 0)
(0.001438441297 0.03482967551 0)
(0.001462910789 0.03598475786 0)
(0.01037687142 0.03564736709 0)
(0.01038246296 0.03446009644 0)
(0.01039653062 0.03325420416 0)
(0.01165428688 0.03318377878 0)
(0.01289439077 0.03313671314 0)
(0.01290422679 0.03552036896 0)
(0.01944615762 0.03370233479 3.436972928e-13)
(0.01973605688 0.03200609308 3.495537193e-13)
(0.02123110768 0.03067746627 3.355371536e-13)
(0.02078142721 0.03211612474 3.279043703e-13)
(0.0209813598 0.02454143997 2.508271368e-13)
(0.02173177003 0.023708876 2.598893323e-13)
(0.0206252887 0.02083038661 2.282202205e-13)
(0.01969291317 0.02133043761 2.178812686e-13)
(0.01269797372 0.01128762812 1.148386941e-13)
(0.01388690249 0.01151772492 1.255801019e-13)
(0.01093979366 0.008572084436 9.324485628e-14)
(0.009852993385 0.008272594794 8.40022496e-14)
(0.002193057854 0.001578354347 1.59317004e-14)
(0.002741267617 0.001842791146 1.99146255e-14)
(0.0009820269316 0.0006298490255 6.800116026e-15)
(0.0006681540403 0.0004586613437 4.62130334e-15)
(0 0 0)
(0 0 0)
(0 0 0)
(0 0 0)
(0 0 0)
(0 0 0)
(0 0 0)
(0 0 0)
(0 0 0)
(0 0 0)
(0 0 0)
(0 0 0)
(0 0 0)
(0 0 0)
(0.01028676368 0.02616191751 0)
(0.01026186847 0.0249814955 0)
(0.01149377347 0.02494330144 0)
(0.01151991876 0.02612194128 0)
(0.02005607512 0.02571582888 3.577138585e-13)
(0.02004374989 0.02344492105 3.585742814e-13)
(0.02204176559 0.02290889061 3.512884428e-13)
(0.02197374526 0.02505363485 3.492900413e-13)
(0.02381560941 0.02044797977 2.85743651e-13)
(0.02408788289 0.01882631652 2.894628981e-13)
(0.02325345992 0.01681493078 2.583211423e-13)
(0.0229347812 0.01822349459 2.544492395e-13)
(0.01629621922 0.01063528599 1.474931288e-13)
(0.01666072678 0.009894472306 1.50879309e-13)
(0.01352764463 0.007592754338 1.154076834e-13)
(0.01318156776 0.008130106636 1.123962035e-13)
(0.003977269681 0.002108518122 2.889355422e-14)
(0.004491225994 0.002166582678 3.261280135e-14)
(0.002141891576 0.0009869434421 1.482147738e-14)
(0.001763241708 0.0008925398289 1.219857548e-14)
(0 0 0)
(0 0 0)
(0 0 0)
(0 0 0)
(0 0 0)
(0 0 0)
(0 0 0)
(0 0 0)
(0 0 0)
(0 0 0)
(0 0 0)
(0 0 0)
(0 0 0)
(0 0 0)
(0.01006003045 0.01674517062 0)
(0.01002855174 0.01557134453 0)
(0.0112575964 0.01553739858 0)
(0.01128927525 0.01671062421 0)
(0.01990167661 0.01646835614 3.594208264e-13)
(0.01983789015 0.01412836631 3.594624598e-13)
(0.02204570824 0.01390635643 3.55326879e-13)
(0.02207680932 0.01619633354 3.547856453e-13)
(0.02477318376 0.01359820805 2.992606163e-13)
(0.02487808785 0.01171832294 3.010924843e-13)
(0.02430247305 0.01058030105 2.715605518e-13)
(0.02414951548 0.01225449607 2.694233725e-13)
(0.01796814193 0.007492015935 1.630640067e-13)
(0.01822455294 0.006524486254 1.65534253e-13)
(0.01512705417 0.005127529654 1.293271046e-13)
(0.01485859807 0.005862186711 1.269540029e-13)
(0.00514960784 0.001755126097 3.741451593e-14)
(0.00535876396 0.001572780573 3.895495038e-14)
(0.002763480934 0.0007761936967 1.91235916e-14)
(0.002605276365 0.0008491784868 1.802724636e-14)
(0 0 0)
(0 0 0)
(0 0 0)
(0 0 0)
(0 0 0)
(0 0 0)
(0 0 0)
(0 0 0)
(0 0 0)
(0 0 0)
(0 0 0)
(0 0 0)
(0 0 0)
(0 0 0)
(0.009794964647 0.007365198001 0)
(0.009760038154 0.006195900973 0)
(0.01098773 0.006163939038 0)
(0.01102280843 0.00733285329 0)
(0.01962895049 0.007106962383 3.594347042e-13)
(0.01955440876 0.004773348425 3.593791931e-13)
(0.0217222619 0.004652118335 3.544942118e-13)
(0.02182022178 0.006961131986 3.549660565e-13)
(0.02462944703 0.005819107996 2.99871239e-13)
(0.02449063262 0.003861244277 2.987748937e-13)
(0.02391145507 0.003488981104 2.689931611e-13)
(0.02405406965 0.005254612362 2.701450175e-13)
(0.01799511423 0.003263483826 1.638827962e-13)
(0.01786607416 0.002188585318 1.628558399e-13)
(0.01479267173 0.001733815205 1.26815225e-13)
(0.01491043725 0.002573521058 1.277450368e-13)
(0.00521316174 0.0007917868119 3.791411629e-14)
(0.005144799278 0.0005391137323 3.744227151e-14)
(0.002606527552 0.000263516859 1.805500194e-14)
(0.002654715863 0.0003874767454 1.838806885e-14)
(0 0 0)
(0 0 0)
(0 0 0)
(0 0 0)
(0 0 0)
(0 0 0)
(0 0 0)
(0 0 0)
(0 0 0)
(0 0 0)
(0 0 0)
(0 0 0)
(0 0 0)
(0 0 0)
(0.009506779887 -0.001975525327 0)
(0.009468545805 -0.003143110036 0)
(0.01069508206 -0.003173796526 0)
(0.01073357765 -0.002006543461 0)
(0.01928863512 -0.002216812684 3.585465258e-13)
(0.01917549923 -0.004532573307 3.578248808e-13)
(0.02111990617 -0.004471905352 3.491928968e-13)
(0.02131248864 -0.002222325783 3.512329316e-13)
(0.02359288076 -0.001877230303 2.895461648e-13)
(0.02308946395 -0.003672778624 2.83911783e-13)
(0.02244827825 -0.003274685157 2.541855615e-13)
(0.02286254084 -0.001660292264 2.584599201e-13)
(0.01654384955 -0.0008965613967 1.511707426e-13)
(0.01612392899 -0.001825595406 1.474514955e-13)
(0.01308064397 -0.001365678849 1.124100812e-13)
(0.01347138559 -0.0006591491656 1.15699117e-13)
(0.004204816883 -0.0001528240517 3.06143999e-14)
(0.003979004535 -0.0003318259311 2.897682094e-14)
(0.001769317353 -0.0001383899953 1.226796442e-14)
(0.0019207519 -6.414003298e-05 1.330879851e-14)
(0 0 0)
(0 0 0)
(0 0 0)
(0 0 0)
(0 0 0)
(0 0 0)
(0 0 0)
(0 0 0)
(0 0 0)
(0 0 0)
(0 0 0)
(0 0 0)
(0 0 0)
(0 0 0)
(0.009192546598 -0.01129331097 0)
(0.009151010816 -0.01245696562 0)
(0.01037714094 -0.01248666741 0)
(0.01041905511 -0.011323023 0)
(0.01875393741 -0.01135994462 3.541195115e-13)
(0.01856937023 -0.01356870412 3.520517211e-13)
(0.02018976281 -0.01307398889 3.382016889e-13)
(0.02046961702 -0.011005989 3.417960359e-13)
(0.02167204498 -0.008643384152 2.679106936e-13)
(0.02129595553 -0.0102103992 2.637334795e-13)
(0.02020859448 -0.008888351314 2.301075996e-13)
(0.02085597657 -0.007635690212 2.371713936e-13)
(0.0142412739 -0.004134545148 1.304928388e-13)
(0.01334743287 -0.004661697756 1.223604551e-13)
(0.0103533323 -0.003375519463 8.913703109e-14)
(0.01124971099 -0.003045578122 9.682532554e-14)
(0.002822978419 -0.0006337974769 2.056688153e-14)
(0.002465425722 -0.0006695436946 1.797173521e-14)
(0.0008008363404 -0.0002062763068 5.551115123e-15)
(0.001007980545 -0.0002144180231 6.994405055e-15)
(0 0 0)
(0 0 0)
(0 0 0)
(0 0 0)
(0 0 0)
(0 0 0)
(0 0 0)
(0 0 0)
(0 0 0)
(0 0 0)
(0 0 0)
(0 0 0)
(0 0 0)
(0 0 0)
(0.01009124322 0.01791716467 0)
(0.008862165015 0.01795387039 0)
(0.008846549875 0.01736854979 0)
(0.008831204972 0.01678122036 0)
(0.009051146686 0.02620887207 0)
(0.009029092817 0.02502349977 0)
(0.009829712932 0.008535906325 0)
(0.008602517817 0.008568233492 0)
(0.008585323366 0.007982522851 0)
(0.008567971134 0.007396978763 0)
(0.008815738799 0.01619340736 0)
(0.008800160129 0.01560543511 0)
(0.009543633336 -0.0008089851791 0)
(0.00831724463 -0.0007788436322 0)
(0.008299039245 -0.00136193036 0)
(0.008280575278 -0.001944577331 0)
(0.008550509329 0.006811383544 0)
(0.008533142518 0.006227300421 0)
(0.009234069221 -0.01013014283 0)
(0.008008416824 -0.01010077853 0)
(0.007966171008 -0.01126468445 0)
(0.008242490204 -0.003112652928 0)
(0.007926363545 -0.01242843994 0)
(-0.001037380587 0.0360507619 0)
(-0.0010721962 0.03489536434 0)
(0.01030824126 0.02734798321 0)
(0.009072575005 0.02739311664 0)
(0.009115181937 0.03570237352 0)
(0.009116465264 0.03452382053 0)
(0.005258985118 0.02159584617 0)
(0.005265410989 0.02189242247 0)
(0.004955228187 0.02190099069 0)
(0.004947953639 0.02160423719 0)
(0.005344142262 0.02635186315 0)
(0.004725165712 0.02637735542 0)
(0.004719536373 0.02577662835 0)
(0.005337703232 0.02575280031 0)
(0.01132090877 0.01788217411 0)
(0.01996272253 0.01880220173 3.593375597e-13)
(0.01750595279 0.01888068938 0)
(0.01744126864 0.01653919666 0)
(0.01768819393 0.0259204811 0)
(0.01762908053 0.02357494935 0)
(0.004951449508 0.01218728612 0)
(0.004960766117 0.01248033836 0)
(0.004611480604 0.01248940703 0)
(0.00460227255 0.01219656824 0)
(0.005132617166 0.01688298936 0)
(0.004811224068 0.01689049217 0)
(0.004812185923 0.01659705373 0)
(0.005129307737 0.01658923368 0)
(0.01105765752 0.008503288411 0)
(0.01970104458 0.009445189715 3.594624598e-13)
(0.01723928015 0.009511308782 0)
(0.01716883255 0.007172730809 0)
(0.01737561875 0.01419599902 0)
(0.004751739345 0.002812632258 0)
(0.004758493849 0.003105158753 0)
(0.004449364386 0.003112870822 0)
(0.004444334258 0.002820297687 0)
(0.004881582147 0.007494360667 0)
(0.004566223741 0.007503377214 0)
(0.004548847299 0.007211138016 0)
(0.00486846733 0.007201681632 0)
(0.01077086793 -0.000839852843 0)
(0.01938709574 0.000106398771 3.589767372e-13)
(0.01695121223 0.0001689053415 0)
(0.01687610285 -0.002162027307 0)
(0.01709759174 0.004838826478 0)
(0.004458031414 -0.006520692924 0)
(0.004477888112 -0.005938354098 0)
(0.003867579003 -0.005924010506 0)
(0.003848355776 -0.006506528752 0)
(0.004609427209 -0.001854910512 0)
(0.00399764517 -0.001839823843 0)
(0.003988067941 -0.002132111704 0)
(0.003979216654 -0.002424960153 0)
(0.004591016104 -0.002438803103 0)
(-0.0007360521735 -0.01572812839 0)
(-0.0004314929674 -0.01573485132 0)
(-0.0004264342155 -0.01544281991 0)
(-0.0007339325002 -0.01543526015 0)
(0.004123410531 -0.01583024561 0)
(0.004146106304 -0.01524874091 0)
(0.003536141957 -0.01523565084 0)
(0.003513927722 -0.01581695218 0)
(0.004297841504 -0.01117861005 0)
(0.003688709923 -0.01116473107 0)
(0.003667864892 -0.0117466104 0)
(0.004277261346 -0.01176049655 0)
(0.005137919209 0.01717701571 0)
(0.004813911856 0.01718426466 0)
(0.004941267876 0.02130825215 0)
(0.005251992265 0.02130010746 0)
(0.01018070899 0.02144487931 0)
(0.008949954948 0.02148362647 0)
(0.008935725184 0.02089552578 0)
(0.008921708238 0.02030529339 0)
(0.01015168492 0.02026780603 0)
(0.00524599084 0.02100522368 0)
(0.005862066144 0.02098666699 0)
(0.005875632661 0.02157624619 0)
(0.005448085896 0.01687505173 0)
(0.005454635607 0.01716920662 0)
(0.004894894623 0.007786547499 0)
(0.004583861247 0.007795068398 0)
(0.004596652906 0.01190319962 0)
(0.004945369506 0.01189349719 0)
(0.009931260933 0.01205232367 0)
(0.009317298145 0.01206898398 0)
(0.009300718734 0.01148201252 0)
(0.009914576335 0.01146546324 0)
(0.005285290229 0.01188419496 0)
(0.005292158425 0.01217812486 0)
(0.005193477489 0.007485708264 0)
(0.005204201141 0.007778181498 0)
(0.005442408387 0.01658114372 0)
(0.005301009136 0.01247135199 0)
(0.009947761433 0.01263837765 0)
(0.009333744589 0.01265503943 0)
(0.004627569189 -0.001271767974 0)
(0.004015328696 -0.001256831191 0)
(0.004006508556 -0.001548328102 0)
(0.004436279936 0.002527914539 0)
(0.004743179382 0.002520154596 0)
(0.009653249882 0.002689741174 0)
(0.008426425806 0.002719786306 0)
(0.008408524286 0.002135934027 0)
(0.008390539511 0.001553003618 0)
(0.00961708746 0.001522749573 0)
(0.004734089982 0.002228502682 0)
(0.005346614046 0.002213450038 0)
(0.005364511179 0.002797140151 0)
(0.005220643125 -0.001869927773 0)
(0.005238956621 -0.00128684397 0)
(0.00518284879 0.007192745604 0)
(0.005381936432 0.003381383978 0)
(0.005074679643 0.003389532253 0)
(0.004765881381 0.00339728946 0)
(0.009688724202 0.003857292338 0)
(0.008462414406 0.003888351369 0)
(0.008444606377 0.003303955609 0)
(0.004318957699 -0.01059630529 0)
(0.003709361239 -0.01058241374 0)
(0.003829263301 -0.007089212819 0)
(0.004439149757 -0.007103382694 0)
(-0.00103508983 -0.01572312356 0)
(-0.001046826418 -0.01601302692 0)
(-0.0007445055698 -0.01601898607 0)
(-0.001038094078 -0.01542865616 0)
(0.003490602287 -0.01639773662 0)
(0.004100057626 -0.01641124569 0)
(-0.000440063124 -0.01602570585 0)
(0.002802533417 0.024045084 0)
(0.002788398025 0.02433767243 0)
(0.002477573212 0.02432890427 0)
(0.002568523697 0.0240885119 0)
(0.002840030832 0.02647183273 0)
(0.002516619915 0.02648733304 0)
(0.00250851224 0.02617477734 0)
(0.002834010238 0.02616364027 0)
(0.00202663903 -0.004115365787 0)
(0.00202263867 -0.003821466494 0)
(0.00169853903 -0.003790629528 0)
(0.001644009078 -0.004033502693 0)
(0.01046008246 -0.01016016603 0)
(0.01891348834 -0.009108775503 3.557015793e-13)
(0.01664321677 -0.009147259013 3.594624598e-13)
(0.01655555814 -0.01147022536 3.593098041e-13)
(0.01679990943 -0.004493038826 0)
(-0.0007824857433 -0.01330930338 0)
(-0.0004037656124 -0.01339051977 0)
(-0.0003970704358 -0.01309858672 0)
(-0.0007119975806 -0.01306902566 0)
(0.001779939018 -0.01345272128 0)
(0.00180096199 -0.01287106314 0)
(0.001191604971 -0.01285771901 0)
(0.001181477568 -0.0131487478 0)
(0.001172099058 -0.01343968866 0)
(0.001864236626 -0.01112528286 0)
(0.001559825913 -0.01111850985 0)
(0.00154951224 -0.01140942541 0)
(0.001853943113 -0.01141625306 0)
(0.005955433986 0.02572864867 0)
(0.005964473112 0.02632284186 0)
(0.005888964574 0.02216715166 0)
(0.005272481416 0.02218802926 0)
(0.0102091225 0.02262137947 0)
(0.008978635191 0.02265798806 0)
(0.008964438762 0.02207111984 0)
(0.001873997335 -0.01083381139 0)
(0.00156934922 -0.01082681558 0)
(0.001933350389 -0.008792619282 0)
(0.001617898935 -0.008782842886 0)
(0.00161343391 -0.009075323115 0)
(0.00192589347 -0.009084315351 0)
(0.009353607031 -0.006638609009 0)
(0.008127539733 -0.006608584346 0)
(0.008088315186 -0.007772788362 0)
(0.009314175033 -0.007802482843 0)
(0.005049327671 -0.007117776832 0)
(0.005068707659 -0.006535262827 0)
(0.004907626716 -0.01119272309 0)
(0.004928999454 -0.01061053346 0)
(0.005202263877 -0.00245344256 0)
(0.005088245428 -0.005952915375 0)
(0.009392815536 -0.005472998083 0)
(0.008166533478 -0.005442913516 0)
(0.0001002368758 0.03139796739 0)
(-0.0005732763745 0.031410553 0)
(-0.000588535326 0.03083260135 0)
(8.411917132e-05 0.03081997406 0)
(0.005350288226 0.02694969081 0)
(0.004730215123 0.02697604148 0)
(0.00532582357 0.03116058714 0)
(0.004035252069 0.03123417208 0)
(0.004030579708 0.03064922629 0)
(0.004057728316 0.03004236056 0)
(0.004719307357 0.02998556115 0)
(0.005353388246 0.0299491042 0)
(0.0007873886891 0.03079605668 0)
(0.0007989347597 0.03137473626 0)
(0.002710017549 0.0236694013 0)
(0.005309178096 0.02396517334 0)
(0.004692235169 0.0239858524 0)
(0.004685858789 0.02368750585 0)
(0.004679528294 0.02338965574 0)
(0.005297831698 0.02337027603 0)
(0.003095784031 0.02372890153 0)
(0.003109061046 0.02403017732 0)
(0.003154361178 0.02615360693 0)
(0.003157957097 0.02645955468 0)
(0.003109829843 0.02433040117 0)
(0.005320520217 0.02455811252 0)
(0.00470437421 0.0245770552 0)
(0.004698229312 0.02428186696 0)
(0.005102893571 0.01453265314 0)
(0.004811475843 0.01454140081 0)
(0.004800440398 0.01424780001 0)
(0.005092086622 0.01423910025 0)
(0.005109758843 0.01482647492 0)
(0.004816442299 0.01483521986 0)
(0.004823606704 0.005150901354 0)
(0.00451901353 0.005158328442 0)
(0.004507916585 0.004865053876 0)
(0.004814158457 0.004857582194 0)
(0.00483042523 0.005444994878 0)
(0.004524500248 0.00545278256 0)
(0.001996838594 -0.006458342976 0)
(0.002008468301 -0.0061675712 0)
(0.001699218896 -0.006159693601 0)
(0.001679043606 -0.006448611383 0)
(0.001758596201 -0.004409804863 0)
(0.002046792026 -0.004413272254 0)
(0.004534988788 -0.004188836545 0)
(0.003924265355 -0.004174211271 0)
(0.003905261717 -0.004756410884 0)
(0.004516309484 -0.004771044931 0)
(0.002358251422 -0.004421642389 0)
(0.002353215098 -0.0041274446 0)
(0.002312537684 -0.006467963785 0)
(0.002321568199 -0.006176688945 0)
(0.002136172695 -0.001783903662 0)
(0.002079601653 -0.002054039702 0)
(0.002400890264 -0.002084205588 0)
(0.002425925025 -0.001794824196 0)
(0.002355763629 -0.003835020724 0)
(0.004553740711 -0.003606143267 0)
(0.003943045768 -0.003591464668 0)
(0.003933479659 -0.003882941402 0)
(0.001691145173 -0.01577879389 0)
(0.001714057745 -0.01519767372 0)
(0.001108011106 -0.01518533875 0)
(0.001085879416 -0.01576658823 0)
(0.001161885609 -0.01373049874 0)
(0.001151905619 -0.01402147742 0)
(0.001758657021 -0.01403415603 0)
(-0.0006892171046 -0.01368410932 0)
(-0.000395959641 -0.01368711857 0)
(0.005203424302 0.01923546007 0)
(0.004891457668 0.01924427669 0)
(0.004887775389 0.01894993605 0)
(0.005197660571 0.0189403643 0)
(0.005209981322 0.01952988524 0)
(0.00489712277 0.01953872598 0)
(0.004976873545 0.009837459815 0)
(0.004687633642 0.009844525729 0)
(0.004677406551 0.009551011255 0)
(0.004968122173 0.009543905426 0)
(0.004981729984 0.01013101136 0)
(0.004691842876 0.01013814888 0)
(0.005273382029 0.009829926827 0)
(0.005279642454 0.0101233863 0)
(0.007410234658 0.009773320174 0)
(0.007426891476 0.01035915355 0)
(0.006813841786 0.01037557279 0)
(0.006797452322 0.009789623993 0)
(0.007476325803 0.01211883198 0)
(0.006862577775 0.01213543239 0)
(0.006846313926 0.01154812782 0)
(0.007459955304 0.01153158438 0)
(0.007341852747 0.007429114522 0)
(0.007359155309 0.008014822238 0)
(0.006746422643 0.008030962428 0)
(0.006729064563 0.007445202118 0)
(0.006780674233 0.009203307043 0)
(0.00739334992 0.009187060203 0)
(0.005265172677 0.009536411873 0)
(0.00540094189 0.01452405069 0)
(0.005408562479 0.01481779795 0)
(0.007540920934 0.01446503338 0)
(0.007556746489 0.01505213343 0)
(0.006943277513 0.01506905087 0)
(0.006927558606 0.01448189384 0)
(0.007603038359 0.01681562942 0)
(0.006989034674 0.01683277771 0)
(0.006973936656 0.01624457608 0)
(0.007587779636 0.01622748624 0)
(0.007492614466 0.01270505397 0)
(0.006878813845 0.01272170991 0)
(0.006911468621 0.01389501733 0)
(0.007524940522 0.013878208 0)
(0.005391271572 0.01423052116 0)
(0.004681225942 0.0004782213954 0)
(0.004373761836 0.0004861048018 0)
(0.004365560545 0.0001938879148 0)
(0.004672447718 0.0001860742083 0)
(0.002466054259 -0.001508772214 0)
(0.002192757411 -0.001502462092 0)
(0.004689174191 0.000770282841 0)
(0.004380925258 0.0007783497607 0)
(0.001984816319 -0.006749428706 0)
(0.002302717071 -0.006759650017 0)
(0.002243967536 -0.008801128923 0)
(0.002252349249 -0.008509241487 0)
(0.001939993857 -0.008500197974 0)
(0.004379812546 -0.008850189088 0)
(0.004399825428 -0.008267475821 0)
(0.003790156658 -0.008253257739 0)
(0.003770233765 -0.008836243917 0)
(0.001621155903 -0.008489626743 0)
(0.001660839 -0.006738069325 0)
(-0.0009029538444 -0.01371787185 0)
(0.001062295843 -0.01634671654 0)
(0.001668080091 -0.0163591526 0)
(0.001554569572 0.02656415274 0)
(0.001174442926 0.02657416767 0)
(0.00150824503 0.02620304877 0)
(0.0005847134282 -0.01225702167 0)
(0.0005953612271 -0.01196595286 0)
(0.0002722791934 -0.01195429312 0)
(0.0002620736316 -0.01224521161 0)
(0.0006401887969 -0.01109639472 0)
(0.0003389641356 -0.01109062751 0)
(0.000325784359 -0.01138070821 0)
(0.0006298686989 -0.01138714782 0)
(-0.001639059445 0.02663038202 0)
(-0.00167600319 0.02629310346 0)
(-0.001287632535 0.02623768479 0)
(-0.001306878817 0.02666651414 0)
(0.0006441245192 -0.0108036838 0)
(0.0003336420684 -0.01079539418 0)
(0.0006666950136 -0.009927410898 0)
(0.0003788861757 -0.009925035879 0)
(0.00036554277 -0.01021516626 0)
(0.0006638252072 -0.01022031294 0)
(2.089639806e-05 0.02908627725 0)
(-0.0006970145387 0.02908732429 0)
(-0.0007333163063 0.02850438081 0)
(-0.0003473762043 0.0285134001 0)
(1.959380861e-05 0.02850908412 0)
(-0.002124233288 0.02845040778 0)
(-0.002034672317 0.0290772425 0)
(0.002841560082 0.02678177192 0)
(0.002520401074 0.02679992949 0)
(0.002795576635 0.02892067881 0)
(0.002138767116 0.02896601627 0)
(0.002154971793 0.02836673316 0)
(0.002820709436 0.02830828497 0)
(0.0004133111302 0.0284933176 0)
(0.0007737841846 0.02847287304 0)
(0.0007646739462 0.02905765067 0)
(0.005021172426 0.01335867132 0)
(0.004693790712 0.01336736393 0)
(0.004653157443 0.01307407682 0)
(0.004994546885 0.01306527581 0)
(0.003875980638 0.01691281303 0)
(0.003895689615 0.01662049038 0)
(0.004176147645 0.01661274238 0)
(0.004161289365 0.01690520431 0)
(0.003941279197 0.01574102154 0)
(0.004215201454 0.01573323393 0)
(0.004204167123 0.01602667433 0)
(0.003928946511 0.01603465934 0)
(0.005121733489 0.01570719974 0)
(0.005124437937 0.01600118816 0)
(0.004816603194 0.01600956845 0)
(0.004818107645 0.01571579076 0)
(0.004782434299 0.003981881453 0)
(0.004468092274 0.003990275462 0)
(0.004459188259 0.003698077582 0)
(0.004773425674 0.003689415926 0)
(0.003492563092 0.004022557569 0)
(0.003478051333 0.003731430984 0)
(0.003810658994 0.003719351316 0)
(0.003821169038 0.00401112709 0)
(0.003535029485 0.002840618683 0)
(0.003831276639 0.00283482381 0)
(0.003827694856 0.003129198638 0)
(0.003525262004 0.003136296818 0)
(0.003656052431 0.007528860692 0)
(0.003625836172 0.007237509733 0)
(0.003906820889 0.007230234341 0)
(0.00393516886 0.007521311261 0)
(0.003524949129 0.006386129195 0)
(0.003849243987 0.006356909806 0)
(0.00385453314 0.006649259554 0)
(0.003557693093 0.00666053408 0)
(0.004839788813 0.006324383847 0)
(0.00484632519 0.006616645766 0)
(0.004520998209 0.006626905653 0)
(0.004515977872 0.006334494538 0)
(0.005170760712 0.01805982679 0)
(0.004858268276 0.01806860354 0)
(0.004839342434 0.01777408015 0)
(0.005157953704 0.01776632801 0)
(0.003965831693 0.01809777267 0)
(0.003809992189 0.01772829803 0)
(0.004194089972 0.01778850336 0)
(0.004243820758 0.01808614249 0)
(0.004151147664 0.01719764685 0)
(0.003854761695 0.01720230948 0)
(0.005512726434 0.01922693191 0)
(0.005519657458 0.01952118467 0)
(0.007663291574 0.01916530217 0)
(0.007678139742 0.01975226637 0)
(0.007063826343 0.01976996398 0)
(0.007049133033 0.01918272512 0)
(0.007720192438 0.0215210323 0)
(0.007105609931 0.02153878046 0)
(0.007091931794 0.02094907445 0)
(0.007706402973 0.02093121028 0)
(0.007618229867 0.01740328757 0)
(0.007004120995 0.01742054689 0)
(0.007034502509 0.01859380761 0)
(0.007648608457 0.01857644018 0)
(0.005506144558 0.01893158779 0)
(0.004933683763 0.00866465372 0)
(0.00463425481 0.008672211604 0)
(0.004618086733 0.008380047914 0)
(0.004921122218 0.008372230196 0)
(0.003768211405 0.008692985339 0)
(0.003742276663 0.008402330004 0)
(0.004015985488 0.008395251407 0)
(0.004040436488 0.008686650112 0)
(0.003963233395 0.007811908991 0)
(0.003686103424 0.007818701455 0)
(0.004958222183 0.01101188447 0)
(0.004947638863 0.01130579953 0)
(0.004607226675 0.01131533144 0)
(0.004631775056 0.01102093046 0)
(0.003519155389 0.002550123992 0)
(0.003821591165 0.002543133923 0)
(0.003434751401 0.001685152491 0)
(0.003765243005 0.001673238247 0)
(0.003783142726 0.001963624054 0)
(0.003460928332 0.001973962038 0)
(0.004714907652 0.001645496474 0)
(0.004724090409 0.001937199958 0)
(0.004415143139 0.001945448051 0)
(0.00440461732 0.001653889085 0)
(0.005293220703 0.0004633994489 0)
(0.005310834399 0.001046610371 0)
(0.004697491614 0.001061793349 0)
(0.007129171799 0.000417906698 0)
(0.007147095209 0.00100056829 0)
(0.006534936685 0.001015935618 0)
(0.006517058559 0.0004329482299 0)
(0.00720108755 0.002750764964 0)
(0.006588825302 0.002766297383 0)
(0.006570980762 0.002182551753 0)
(0.00718324301 0.002167019334 0)
(0.005129490212 0.005143980317 0)
(0.005137264195 0.005437398857 0)
(0.007272600221 0.005090720605 0)
(0.007290105847 0.005675935973 0)
(0.006677370256 0.005691968052 0)
(0.006660191888 0.005106852023 0)
(0.006711593985 0.006859282565 0)
(0.007324493205 0.006843300156 0)
(0.007219168782 0.003335261525 0)
(0.006606742904 0.003350744275 0)
(0.006642398439 0.004520995298 0)
(0.007254930965 0.004505455568 0)
(0.005120697943 0.004850913892 0)
(0.003749657107 -0.009418400983 0)
(0.004359626551 -0.009432302627 0)
(0.002235187139 -0.009092356433 0)
(0.002472090321 -0.01113820766 0)
(0.002492097355 -0.01055571061 0)
(0.001883909843 -0.01054212764 0)
(-0.0007492979323 -0.01454854861 0)
(-0.001129740045 -0.01446696107 0)
(-0.001033168863 -0.01484272186 0)
(-0.0007375072501 -0.01484644528 0)
(0.002808943654 0.02524388229 0)
(0.00248765522 0.02525425473 0)
(0.002481354971 0.02494952289 0)
(0.002798465124 0.02493587169 0)
(0.001856579017 0.02621320044 0)
(0.001870108761 0.02652962011 0)
(0.002818695907 0.02555044114 0)
(0.002495670625 0.02555819908 0)
(0.002134475877 -0.002965838134 0)
(0.001881010601 -0.00296671812 0)
(0.001820514953 -0.0032447541 0)
(0.002094774878 -0.003250657508 0)
(0.00214189159 -0.002674465522 0)
(0.00193759473 -0.002706698239 0)
(0.0005555816095 -0.01342387886 0)
(0.0005636312357 -0.0131324693 0)
(0.0002466945795 -0.01312200359 0)
(0.0002394917224 -0.01341370653 0)
(0.0002604196349 -0.01253836292 0)
(0.0005784398859 -0.01254896613 0)
(-0.0005625891329 -0.01255845905 0)
(-0.0003487550568 -0.01252507782 0)
(-0.000445010616 -0.01215062385 0)
(-0.001747905525 0.02533374118 0)
(-0.001641937699 0.02558056768 0)
(-0.002023576374 0.02565588008 0)
(-0.002047655373 0.02535223497 0)
(-0.001963789233 0.02660632122 0)
(-0.001990177245 0.02628390765 0)
(-0.002070466391 0.02504906948 0)