/*--------------------------------*- C++ -*----------------------------------*\
| =========                 |                                                 |
| \\      /  F ield         | OpenFOAM: The Open Source CFD Toolbox           |
|  \\    /   O peration     | Version:  v2012                                 |
|   \\  /    A nd           | Website:  www.openfoam.com                      |
|    \\/     M anipulation  |                                                 |
\*---------------------------------------------------------------------------*/
FoamFile
{
    version     2.0;
    format      ascii;
    class       surfaceVectorField;
    location    "1.65";
    object      Uf;
}
// * * * * * * * * * * * * * * * * * * * * * * * * * * * * * * * * * * * * * //

dimensions      [0 1 -1 0 0 0 0];


internalField   nonuniform List<vector> 
5975
(
(103.6791139 -30.28159197 7.81342404e-20)
(102.9466388 -30.52423563 1.366716949e-19)
(102.9864081 -29.86400275 5.008092418e-19)
(103.6934694 -29.7546769 5.852767863e-19)
(102.7513104 -30.33564543 5.279111529e-19)
(107.4829207 -20.83133773 -5.227040198e-19)
(108.2211455 -20.3141132 7.174126262e-19)
(106.6139367 -19.26313811 -1.503447639e-19)
(107.4973858 -18.88752319 9.607400841e-20)
(106.9116535 -20.46081304 -1.112441809e-18)
(108.29143 -19.62334497 -5.718535762e-19)
(107.8405013 -13.9957796 -8.253563699e-19)
(107.3732245 -14.54975979 -1.824111502e-19)
(106.7259065 -13.84214924 -6.578918635e-19)
(107.1436582 -13.38318338 -7.319961952e-19)
(106.5055214 -10.11490467 -1.66656244e-19)
(106.2780885 -10.54734519 -8.507661831e-20)
(105.7503433 -10.16835293 -6.34281531e-19)
(105.9568235 -9.775440813 1.662575576e-19)
(105.0682577 -7.414449242 0)
(104.959524 -7.782465367 -3.46607015e-19)
(104.5164352 -7.531088063 3.104227742e-19)
(104.6221939 -7.211004533 -3.255261162e-19)
(103.5891048 -5.72204293 3.82797533e-20)
(103.613882 -5.425219105 -3.690566677e-20)
(103.2086609 -5.550846507 -3.701104801e-20)
(103.2414729 -5.290801665 -1.031357914e-19)
(102.1171226 -3.811212671 -1.58666723e-20)
(102.1190684 -4.251700074 1.227584815e-20)
(101.5616338 -4.017607173 -3.389956252e-20)
(101.6095343 -3.657610665 -3.442432752e-20)
(101.1886501 -2.796130018 2.640706772e-22)
(101.1774896 -3.138414373 0)
(100.760214 -2.966571419 -1.14722446e-20)
(100.8203789 -2.680624267 0)
(99.85789988 -1.650267137 6.085299026e-21)
(99.71700843 -2.062592981 -9.8794194e-21)
(100.1975064 -2.370370567 0)
(100.4597898 -2.296811822 0)
(99.52461182 -1.058641227 7.214617079e-21)
(99.35390881 -1.396582633 1.468614293e-20)
(99.32706361 -0.517150203 -2.50577019e-21)
(99.11867587 -0.8149616669 1.121746235e-21)
(98.99720233 -0.2683876221 6.494749145e-21)
(96.78788277 -20.23357649 5.337452243e-20)
(95.85246566 -19.75192599 9.352010941e-20)
(96.76229299 -18.923133 5.062392715e-20)
(97.3728907 -19.49431057 1.402792288e-19)
(95.87632284 -19.27994946 9.351991552e-20)
(102.0568676 -16.57527056 3.051396224e-19)
(102.8701508 -16.6121887 1.004622612e-19)
(102.0457966 -15.60835756 2.442379803e-19)
(102.6656557 -15.67634382 3.797791107e-19)
(103.9162529 -12.88075817 -8.064022186e-19)
(103.4737215 -13.07849806 1.368221224e-19)
(103.1627498 -12.44997055 -4.267863493e-19)
(103.5272844 -12.29539685 3.50856809e-19)
(103.6569594 -9.944671234 1.972364654e-19)
(103.3896182 -10.19198477 1.129468446e-19)
(103.0453264 -9.775439643 2.466072384e-19)
(103.273852 -9.565800995 4.705670268e-19)
(102.9542998 -7.633029272 -2.468918176e-19)
(102.7995873 -7.881880118 -2.4486743e-19)
(102.4667733 -7.590048465 -2.308784262e-19)
(102.6070291 -7.371679262 -2.481200964e-19)
(101.939246 -5.992621395 -1.48410888e-21)
(102.013297 -5.758764038 -1.559790916e-19)
(101.6269805 -5.779371334 -3.167744822e-20)
(101.6974867 -5.579088858 -8.627623423e-22)
(100.9964119 -4.155179806 -4.679038247e-20)
(100.9060018 -4.534666709 -2.463043106e-20)
(100.4343526 -4.230396609 -4.371720936e-20)
(100.5467151 -3.933030271 -1.806455687e-20)
(100.3184922 -3.091545109 -2.9378996e-20)
(100.2374186 -3.399902269 1.058970304e-20)
(99.87136241 -3.176292715 -3.104669201e-20)
(99.97750654 -2.922160675 -1.614444887e-20)
(99.22455913 -1.798607608 -8.631452874e-22)
(99.02882778 -2.179554572 -2.817561087e-20)
(99.43142319 -2.557787464 -7.033578584e-21)
(99.70041177 -2.50732469 -4.339696653e-21)
(98.95929385 -1.155481702 9.703879348e-21)
(98.74848809 -1.485084029 1.819963087e-20)
(98.79868318 -0.5651700327 9.71218003e-21)
(98.56199492 -0.869725908 3.781156189e-22)
(98.46420985 -0.2864672892 2.279172235e-21)
(98.12646615 -13.31074857 5.097069325e-20)
(97.78741065 -12.50079899 0)
(98.43027393 -12.35057174 -6.030573974e-20)
(98.67282697 -12.81729614 0)
(100.5529495 -12.8317608 6.996321941e-20)
(100.2004535 -12.55821537 1.107625889e-20)
(100.27384 -12.04592965 0)
(100.5464163 -12.24631663 -1.247914182e-20)
(101.4066388 -11.02286949 -2.475406138e-19)
(101.1195643 -11.01107562 0)
(100.9692129 -10.55279181 0)
(101.2029573 -10.55644656 -1.694140143e-20)
(101.4766433 -9.092108771 -1.590215174e-19)
(101.2580431 -9.188161322 -8.085840261e-20)
(101.0379144 -8.828256559 -1.449854824e-21)
(101.222822 -8.741872232 -7.540103725e-20)
(101.144319 -7.305968701 2.889417502e-19)
(100.9933175 -7.452185001 1.861143898e-19)
(100.7499868 -7.16987694 -1.727813851e-19)
(100.8806097 -7.040238602 1.876221448e-19)
(100.4567858 -5.876549668 6.090766374e-21)
(100.5510116 -5.716734529 1.880895688e-22)
(100.2138756 -5.660554807 -1.244202603e-20)
(100.3033413 -5.515218426 -1.084230291e-20)
(99.88820116 -4.249910197 3.508832095e-21)
(99.74979842 -4.544713652 6.498608043e-21)
(99.36552588 -4.221998865 0)
(99.50997729 -3.985597224 2.802248482e-21)
(99.43308679 -3.221252638 -1.320131428e-20)
(99.30617073 -3.478960998 2.79976563e-21)
(98.99878976 -3.232225148 4.42689591e-21)
(99.13482857 -3.014762385 0)
(98.56404481 -1.865573158 -8.307001941e-21)
(98.33542395 -2.20684678 -1.217144302e-20)
(98.67277899 -2.617244236 -1.530583417e-21)
(98.93283306 -2.5950923 -1.216281704e-20)
(98.36139256 -1.203296033 9.377788532e-21)
(98.12618221 -1.517302288 1.867636487e-20)
(98.23637729 -0.5900763164 -6.298427167e-21)
(97.98394836 -0.8916066007 -1.059616815e-20)
(97.9077947 -0.2937360339 -6.680893418e-21)
(99.12116779 -10.14470586 2.737610401e-21)
(98.97186533 -9.658243385 -1.039860347e-19)
(99.29566979 -9.575114918 4.222530823e-20)
(99.32319413 -9.835182035 3.226862148e-20)
(99.77483287 -10.09422002 7.541938713e-21)
(99.67319876 -9.857361751 4.486124117e-20)
(99.6795284 -9.558368072 6.772552256e-21)
(99.75698979 -9.741904406 5.524993817e-20)
(99.99814993 -9.22886703 1.87987867e-19)
(99.86628324 -9.144280624 8.956062477e-20)
(99.75924054 -8.825993561 8.940359259e-20)
(99.86774905 -8.889848842 -4.832664179e-20)
(99.95014322 -8.014377075 6.340851639e-20)
(99.80995909 -8.031395458 1.297412991e-19)
(99.65353708 -7.743092206 7.430702802e-20)
(99.77163804 -7.722380009 3.595456319e-20)
(99.70916116 -6.692369177 -1.014903126e-19)
(99.59108953 -6.767603622 -7.002951328e-20)
(99.40642612 -6.519606783 -4.392780328e-21)
(99.50792483 -6.447886784 -3.863128392e-20)
(99.2123787 -5.515297526 0)
(99.30492608 -5.416351835 0)
(99.02680425 -5.31699297 0)
(99.11393055 -5.219265064 0)
(98.87286642 -4.15439354 -1.512908473e-20)
(98.71917375 -4.368850348 -1.511462537e-20)
(98.41118322 -4.056657481 5.491937038e-21)
(98.56350685 -3.874899629 -4.231867209e-20)
(98.58805443 -3.214163073 2.762421594e-20)
(98.43864663 -3.418552649 -3.729897057e-21)
(98.18701691 -3.172140063 2.677437556e-21)
(98.33581548 -2.990681444 1.306292035e-20)
(97.90652317 -1.863996232 1.53275462e-20)
(97.66366787 -2.164255138 2.513390889e-20)
(97.94601664 -2.574794535 3.106198799e-20)
(98.19045016 -2.588482933 -1.313048806e-20)
(97.75694073 -1.209376887 -2.095420358e-21)
(97.5120419 -1.502785251 -8.424084592e-21)
(97.66246861 -0.5944601767 -1.096561014e-20)
(97.40572201 -0.8854240531 -1.221454751e-20)
(97.34724751 -0.2919381266 1.238574405e-21)
(99.69747277 -8.185132356 -4.207017949e-23)
(99.59330321 -7.880350459 1.18364085e-20)
(99.79949155 -7.802344932 -3.87449734e-20)
(99.74354014 -7.98097964 -3.870012745e-20)
(99.49989306 -8.210506699 -2.090411801e-20)
(99.51898488 -8.029823585 -3.155997332e-23)
(99.46035745 -7.83101457 2.774767561e-21)
(99.43660011 -7.977266166 -6.526175632e-21)
(99.20784093 -7.741932614 6.304193285e-20)
(99.17507415 -7.648386098 -1.944421954e-20)
(99.06434492 -7.41906442 -2.418033278e-21)
(99.09006909 -7.493389172 -3.531687821e-20)
(98.92092592 -6.950625732 9.94934297e-20)
(98.8527144 -6.927976763 -5.628581962e-20)
(98.71772096 -6.700085925 -2.489807266e-20)
(98.77594468 -6.712941755 -4.324291273e-20)
(98.61310422 -5.983473758 1.976435899e-21)
(98.53648178 -6.014505015 -3.358756491e-21)
(98.38476347 -5.80350784 1.098388718e-22)
(98.45301427 -5.771389351 1.098183695e-22)
(98.20924195 -5.04675005 0)
(98.2858694 -4.98763278 0)
(98.06149685 -4.871160891 0)
(98.13452124 -4.807872772 0)
(97.98531652 -3.938073888 2.064053275e-20)
(97.83745497 -4.087074695 0)
(97.59069139 -3.802192882 0)
(97.7365788 -3.666969184 0)
(97.813001 -3.108431225 -2.055804209e-20)
(97.65971872 -3.266296804 0)
(97.44932047 -3.026300518 0)
(97.59840533 -2.879133941 0)
(97.27484212 -1.810893092 -2.354925967e-21)
(97.0318794 -2.070075607 1.948044067e-20)
(97.26894646 -2.463883705 1.296015942e-20)
(97.49290185 -2.507292036 1.298156382e-20)
(97.16630142 -1.182397847 -1.946129291e-20)
(96.9228516 -1.451245232 -1.822328489e-20)
(97.09551776 -0.5820862265 2.280032118e-23)
(96.84318867 -0.8574482594 -1.234398383e-21)
(96.79849978 -0.2834911802 1.238480474e-21)
(100.0326972 -6.82552974 6.325494408e-21)
(99.98562679 -6.626265641 -2.847876724e-20)
(100.0894812 -6.546129898 -1.953612035e-20)
(99.99325124 -6.682547037 -1.457454501e-20)
(99.36491005 -6.848890841 1.071562687e-21)
(99.44389939 -6.711620905 9.771844708e-22)
(99.33608035 -6.564223085 2.164128206e-21)
(99.25851525 -6.678957682 1.691088092e-21)
(98.71070919 -6.550110478 2.628819781e-21)
(98.73881711 -6.464917551 -1.206763396e-22)
(98.61178856 -6.290082676 5.050513072e-21)
(98.58458316 -6.359855573 0)
(98.19937803 -5.99605086 7.553553157e-22)
(98.18288511 -5.960504067 1.045334979e-20)
(98.05197147 -5.777818849 5.109626912e-21)
(98.06549302 -5.803688905 5.053752287e-21)
(97.79152624 -5.280911015 0)
(97.75085233 -5.286919765 0)
(97.62024681 -5.114278574 0)
(97.65760639 -5.104563887 0)
(97.41440223 -4.544407011 0)
(97.47058824 -4.51250917 0)
(97.29178823 -4.392624486 0)
(97.34658132 -4.354048335 0)
(97.2268587 -3.653483021 0)
(97.09578531 -3.753076422 0)
(96.89266616 -3.496318649 0)
(97.02144367 -3.39730555 0)
(97.1144636 -2.93049321 0)
(96.96945468 -3.049685761 0)
(96.7922605 -2.825046457 0)
(96.93204797 -2.706678463 0)
(96.6820003 -1.719566461 0)
(96.44862099 -1.941745823 0)
(96.652335 -2.308384441 0)
(96.85299542 -2.372517912 0)
(96.60289931 -1.129338335 0)
(96.36839195 -1.373069538 0)
(96.54965972 -0.5583309038 0)
(96.30815063 -0.8138353046 0)
(96.27359188 -0.2699626529 0)
(100.2106562 -5.812437362 -3.586790807e-21)
(100.222281 -5.670310549 -6.739355564e-21)
(100.238245 -5.596637599 1.528850719e-25)
(100.1172589 -5.700191969 -1.09667358e-21)
(99.25127203 -5.808878236 2.510399536e-22)
(99.36434229 -5.70317512 7.303823758e-22)
(99.22435985 -5.58492249 7.302284968e-22)
(99.11407523 -5.67558949 5.469114404e-22)
(98.356118 -5.585396718 -1.294901336e-21)
(98.42348268 -5.512984284 -2.21596567e-22)
(98.28268087 -5.373903717 0)
(98.21983683 -5.434817922 0)
(97.67206758 -5.176707107 0)
(97.69334443 -5.139147005 0)
(97.56292882 -4.993411979 0)
(97.54345114 -5.022979873 0)
(97.17054762 -4.640792104 0)
(97.15909518 -4.634275655 0)
(97.03905967 -4.492196243 0)
(97.05098805 -4.494317034 0)
(96.78341494 -4.054519794 0)
(96.82005463 -4.038379852 0)
(96.67525971 -3.923713145 0)
(96.71265801 -3.900400288 0)
(96.58591705 -3.334872274 0)
(96.47826027 -3.400920818 0)
(96.30451274 -3.172589338 0)
(96.41192582 -3.101346641 0)
(96.49811923 -2.713102819 0)
(96.36869727 -2.802512656 0)
(96.21608004 -2.597539756 0)
(96.34149197 -2.502262599 0)
(96.13571857 -1.604711564 0)
(95.91949947 -1.795573771 0)
(96.09928592 -2.1310561 0)
(96.27712474 -2.204877861 0)
(96.07515798 -1.05927657 0)
(95.85601092 -1.279242299 0)
(96.03380497 -0.5259660475 0)
(95.80718664 -0.7601738905 0)
(95.77949995 -0.2527362231 0)
(100.2967924 -5.01556741 0)
(100.3361913 -4.905665632 0)
(100.3097788 -4.840576525 0)
(100.1725449 -4.91948851 0)
(99.14901085 -4.983165101 0)
(99.28599327 -4.901066557 0)
(99.12469917 -4.803364916 0)
(98.99207144 -4.87518867 0)
(98.08915192 -4.802522717 0)
(98.18330051 -4.742825257 0)
(98.0319407 -4.630631375 0)
(97.94434011 -4.681929718 0)
(97.27634104 -4.489587516 0)
(97.32460625 -4.454170468 0)
(97.19223718 -4.335742973 0)
(97.14846414 -4.364650452 0)
(96.68962582 -4.074485973 0)
(96.70128522 -4.062387168 0)
(96.58611969 -3.944401781 0)
(96.57744282 -3.952213007 0)
(96.275869 -3.6004721 0)
(96.2946167 -3.593117221 0)
(96.176169 -3.488109453 0)
(96.19718036 -3.474396548 0)
(96.0460429 -3.012173289 0)
(95.96407079 -3.057430866 0)
(95.80827086 -2.855605745 0)
(95.89367135 -2.804306228 0)
(95.9596998 -2.480311612 0)
(95.84896903 -2.547822836 0)
(95.71382521 -2.363398268 0)
(95.82253162 -2.286072485 0)
(95.63920557 -1.478714475 0)
(95.44427492 -1.643155064 0)
(95.6074061 -1.946638291 0)
(95.76433601 -2.022553698 0)
(95.58831345 -0.9805754962 0)
(95.38805971 -1.178137362 0)
(95.55360384 -0.4881627654 0)
(95.3446399 -0.7016207091 0)
(95.32092039 -0.233747532 0)
(100.3327325 -4.364488855 -2.708625466e-35)
(100.389569 -4.279253532 1.151317524e-35)
(100.3359333 -4.220213162 -5.272621834e-35)
(100.1876326 -4.282660424 -2.708943012e-35)
(99.05361201 -4.316029567 0)
(99.20690058 -4.251073639 0)
(99.03044227 -4.168898847 0)
(98.88229309 -4.226411262 0)
(97.87723251 -4.16247557 0)
(97.98990555 -4.113297946 0)
(97.83040099 -4.020569591 0)
(97.72534273 -4.063450555 0)
(96.96723117 -3.911957829 0)
(97.03517097 -3.880247551 0)
(96.8999981 -3.78222482 0)
(96.83812202 -3.808684781 0)
(96.30773305 -3.580449633 0)
(96.33753419 -3.566452721 0)
(96.22426537 -3.467481842 0)
(96.19908045 -3.477607911 0)
(95.86243089 -3.191169607 0)
(95.86560563 -3.189238909 0)
(95.76799905 -3.094970373 0)
(95.77474222 -3.087277309 0)
(95.58906848 -2.704135168 0)
(95.53194008 -2.735768071 0)
(95.38686517 -2.558465317 0)
(95.45137843 -2.520533779 0)
(95.49080578 -2.247984587 0)
(95.39951213 -2.299863079 0)
(95.27653958 -2.135250758 0)
(95.36780083 -2.071788504 0)
(95.19169788 -1.350184276 0)
(95.01978064 -1.492484439 0)
(95.17190103 -1.764928498 0)
(95.31003222 -1.839140527 0)
(95.14376956 -0.8987834111 0)
(94.96398961 -1.075886004 0)
(95.11181276 -0.4484427412 0)
(94.92158888 -0.6418836764 0)
(94.89962931 -0.2142838646 0)
(100.3352474 -3.824582164 -2.301166357e-35)
(100.4068561 -3.757936768 0)
(100.3321663 -3.703912238 0)
(100.1759241 -3.754656494 0)
(98.962331 -3.766738906 0)
(99.12741689 -3.71464935 0)
(98.94006901 -3.644446462 0)
(98.78064471 -3.690947692 0)
(97.70131788 -3.631610393 0)
(97.82732154 -3.591071062 0)
(97.66157988 -3.513062775 0)
(97.54378211 -3.548764167 0)
(96.71729496 -3.423910181 0)
(96.799901 -3.39630421 0)
(96.66190387 -3.313971755 0)
(96.58628834 -3.337332329 0)
(95.99723541 -3.152009758 0)
(96.04133637 -3.138065501 0)
(95.92843339 -3.054259821 0)
(95.89001168 -3.064814129 0)
(95.52047186 -2.827239772 0)
(95.51065119 -2.828256418 0)
(95.42901323 -2.744626807 0)
(95.42375867 -2.740324269 0)
(95.19999739 -2.419107704 0)
(95.16541856 -2.441349799 0)
(95.02708486 -2.286342175 0)
(95.07216363 -2.257272558 0)
(95.08230762 -2.025848477 0)
(95.00995652 -2.066606387 0)
(94.89528636 -1.920464592 0)
(94.96951388 -1.86750944 0)
(94.79035605 -1.224878443 0)
(94.64178013 -1.348838333 0)
(94.78691362 -1.592249138 0)
(94.90852237 -1.662278774 0)
(94.74072096 -0.8179854772 0)
(94.58175481 -0.9767024214 0)
(94.70871944 -0.4089081901 0)
(94.53732309 -0.5835574959 0)
(94.51550141 -0.195209811 0)
(100.3162868 -3.371205325 -3.557438218e-35)
(100.4007083 -3.318800865 7.50514745e-36)
(100.3091455 -3.269268607 -3.557438218e-35)
(100.1469043 -3.311197947 -3.557029019e-35)
(98.87452899 -3.308117803 0)
(99.04842478 -3.265972796 0)
(98.85309703 -3.205307658 0)
(98.68522709 -3.243154847 0)
(97.55050124 -3.186516959 0)
(97.68640987 -3.153072212 0)
(97.51588025 -3.086569627 0)
(97.38851767 -3.116213123 0)
(96.50941568 -3.009570519 0)
(96.60317477 -2.985951771 0)
(96.46262631 -2.915978365 0)
(96.3764048 -2.936137663 0)
(95.7394014 -2.781465356 0)
(95.79487341 -2.768553252 0)
(95.68156766 -2.696998855 0)
(95.63246444 -2.706979472 0)
(95.2332699 -2.5066562 0)
(95.21257983 -2.509009037 0)
(95.14334507 -2.435411162 0)
(95.12789251 -2.432945711 0)
(94.86668227 -2.160325838 0)
(94.85208152 -2.176501744 0)
(94.71769658 -2.041085563 0)
(94.74517248 -2.017896266 0)
(94.72565411 -1.819373439 0)
(94.67103547 -1.852266522 0)
(94.56187773 -1.72293584 0)
(94.62008333 -1.67791533 0)
(94.43138338 -1.106492638 0)
(94.30549316 -1.215370127 0)
(94.4464411 -1.43225138 0)
(94.55369521 -1.496695914 0)
(94.37700284 -0.7408696406 0)
(94.23828897 -0.8832648708 0)
(94.34306338 -0.3709591201 0)
(94.18984851 -0.5283355086 0)
(94.16702282 -0.1770889898 0)
(100.2833736 -2.98727742 3.06688601e-35)
(100.3787267 -2.945936842 0)
(100.2735599 -2.900620695 0)
(100.1066121 -2.935491112 0)
(98.79000274 -2.921416093 0)
(98.97062884 -2.887162241 0)
(98.76936878 -2.834313403 0)
(98.59502613 -2.865199005 0)
(97.41812622 -2.81034204 0)
(97.56158995 -2.782781818 0)
(97.38737368 -2.725532599 0)
(97.25265574 -2.750048858 0)
(96.33248549 -2.656402653 0)
(96.43489474 -2.636471041 0)
(96.29215668 -2.576459835 0)
(96.19760767 -2.593545117 0)
(95.52132843 -2.461405257 0)
(95.58594644 -2.449990531 0)
(95.47189439 -2.388481011 0)
(95.41409066 -2.397371878 0)
(94.98867386 -2.226000845 0)
(94.95885455 -2.228717576 0)
(94.89940966 -2.164321705 0)
(94.87527965 -2.162727786 0)
(94.57895244 -1.928567564 0)
(94.58184069 -1.941023228 0)
(94.44958634 -1.822644023 0)
(94.46130118 -1.803304138 0)
(94.41316207 -1.631202928 0)
(94.3747706 -1.658586782 0)
(94.26917182 -1.544318921 0)
(94.31263728 -1.505299286 0)
(94.11062604 -0.9971842335 0)
(94.00614081 -1.093727869 0)
(94.14485257 -1.286744152 0)
(94.23970195 -1.34495177 0)
(94.04966617 -0.6690929086 0)
(93.93008034 -0.7971465394 0)
(94.01258163 -0.3354751673 0)
(93.87646546 -0.4772500429 0)
(93.85187782 -0.1602696377 0)
(100.241217 -2.660503146 1.206163651e-35)
(100.345825 -2.627847229 1.898015734e-37)
(100.2296115 -2.586591331 1.206163651e-35)
(100.0588987 -2.61549428 1.206305055e-35)
(98.70865079 -2.593256005 0)
(98.89449405 -2.565424455 0)
(98.68879376 -2.519136485 0)
(98.50940951 -2.5442882 0)
(97.29991423 -2.490718933 0)
(97.44926425 -2.468114298 0)
(97.27220905 -2.418496693 0)
(97.13172198 -2.438624945 0)
(96.17908502 -2.354589726 0)
(96.28832908 -2.338010483 0)
(96.14376863 -2.286205821 0)
(96.04257328 -2.300419762 0)
(95.33398404 -2.185267239 0)
(95.40604759 -2.175552452 0)
(95.29114015 -2.122406159 0)
(95.22617482 -2.129948495 0)
(94.7778138 -1.981485947 0)
(94.7402813 -1.983979011 0)
(94.68870178 -1.92792047 0)
(94.6571663 -1.926584781 0)
(94.32864945 -1.723147917 0)
(94.34679248 -1.733482505 0)
(94.21546157 -1.629872625 0)
(94.21318418 -1.612986251 0)
(94.13821085 -1.462204956 0)
(94.1144586 -1.485777232 0)
(94.01104168 -1.384873125 0)
(94.04115126 -1.350396927 0)
(93.82389597 -0.8980226705 0)
(93.7391669 -0.9845274758 0)
(93.87701071 -1.156314317 0)
(93.96118687 -1.208094073 0)
(93.75538214 -0.6035663317 0)
(93.65345232 -0.719127642 0)
(93.71445011 -0.302961785 0)
(93.59407689 -0.4308475172 0)
(93.56725932 -0.1449420534 0)
(100.1928387 -2.381560584 1.048012526e-35)
(100.3053311 -2.355762486 0)
(100.180033 -2.318423224 0)
(100.0062684 -2.342128846 0)
(98.63035592 -2.313724785 0)
(98.82027166 -2.291218829 0)
(98.61124914 -2.250530056 0)
(98.4278989 -2.270876434 0)
(97.19295148 -2.21831505 0)
(97.34695873 -2.199932786 0)
(97.16771748 -2.156727095 0)
(97.02263908 -2.173067514 0)
(96.0440682 -2.096357461 0)
(96.15879262 -2.082798334 0)
(96.01273709 -2.037867335 0)
(95.90616768 -2.049441802 0)
(95.17086309 -1.947382308 0)
(95.2490473 -1.939418199 0)
(95.13328415 -1.893319471 0)
(95.06237438 -1.899409075 0)
(94.59403638 -1.769350978 0)
(94.54995816 -1.771275857 0)
(94.50477557 -1.722711719 0)
(94.46690192 -1.721247531 0)
(94.10924006 -1.542587612 0)
(94.14067666 -1.551879858 0)
(94.00946826 -1.461074645 0)
(93.99482577 -1.445665941 0)
(93.89513417 -1.312164577 0)
(93.88446877 -1.333151916 0)
(93.78225669 -1.244032604 0)
(93.8003886 -1.212986101 0)
(93.56716188 -0.8093439467 0)
(93.50040999 -0.8877529099 0)
(93.63832456 -1.040792748 0)
(93.71333352 -1.086213644 0)
(93.49070887 -0.5446783277 0)
(93.40482573 -0.6494643627 0)
(93.44558584 -0.2736575635 0)
(93.33949417 -0.389343575 0)
(93.31018571 -0.1311883742 0)
(100.1403333 -2.14320987 0)
(100.2596373 -2.122862724 0)
(100.1267523 -2.089271398 0)
(99.95047487 -2.10840367 0)
(98.55500028 -2.075320471 0)
(98.74809978 -2.057287642 0)
(98.53660668 -2.02143434 0)
(98.35012156 -2.037704549 0)
(97.09517555 -1.985987801 0)
(97.25290482 -1.971232649 0)
(97.07197866 -1.933485224 0)
(96.92321101 -1.946536182 0)
(95.92375946 -1.875545525 0)
(96.04292344 -1.864691807 0)
(95.8956444 -1.825586798 0)
(95.78469003 -1.834759225 0)
(95.02718338 -1.742972971 0)
(95.11043432 -1.736722984 0)
(94.99385556 -1.696614541 0)
(94.91798315 -1.701239897 0)
(94.43227547 -1.586143072 0)
(94.38262683 -1.587309598 0)
(94.34267783 -1.54544176 0)
(94.29937063 -1.543611534 0)
(93.91550028 -1.385086683 0)
(93.95852502 -1.394071737 0)
(93.82689934 -1.314381902 0)
(93.80135845 -1.299749964 0)
(93.67914393 -1.180285589 0)
(93.68010864 -1.199588189 0)
(93.57839646 -1.120821479 0)
(93.58586364 -1.092335608 0)
(93.33663981 -0.7310241382 0)
(93.28603601 -0.8029845731 0)
(93.42471557 -0.9395828492 0)
(93.4918885 -0.9788721297 0)
(93.25224294 -0.4924702139 0)
(93.18072843 -0.5880553747 0)
(93.20282554 -0.2476182167 0)
(93.10949302 -0.352723072 0)
(93.07757343 -0.1190142951 0)
(100.0852185 -1.939750807 0)
(100.2104853 -1.923833484 0)
(100.0711627 -1.893792266 0)
(99.89278499 -1.908872487 0)
(98.48244334 -1.872190171 0)
(98.67802802 -1.85797707 0)
(98.46472024 -1.826355802 0)
(98.27575212 -1.839112215 0)
(97.00503096 -1.788106266 0)
(97.1657596 -1.776508072 0)
(96.98353706 -1.74347081 0)
(96.83178079 -1.753629996 0)
(95.81539951 -1.687161325 0)
(95.93819313 -1.678743933 0)
(95.78991384 -1.644637863 0)
(95.67535133 -1.651617015 0)
(94.89928515 -1.567976103 0)
(94.98676139 -1.563375918 0)
(94.86942415 -1.528407616 0)
(94.78938205 -1.531591226 0)
(94.28854962 -1.428756933 0)
(94.23414009 -1.429054109 0)
(94.19850004 -1.393175722 0)
(94.15051817 -1.390821725 0)
(93.74313804 -1.248728255 0)
(93.79627505 -1.257919554 0)
(93.66385807 -1.187896507 0)
(93.62872269 -1.173520587 0)
(93.48611583 -1.065447849 0)
(93.49737649 -1.083742099 0)
(93.39564203 -1.014047469 0)
(93.39365951 -0.9874265442 0)
(93.12882048 -0.6626630177 0)
(93.09259116 -0.7296085168 0)
(93.23255889 -0.8518612877 0)
(93.29305771 -0.8853128963 0)
(93.03670201 -0.4467670965 0)
(92.97791604 -0.5346015689 0)
(92.98303556 -0.2247828518 0)
(92.90097264 -0.3208393214 0)
(92.86641267 -0.1083812565 0)
(100.0285493 -1.766760641 0)
(100.1590959 -1.754552765 0)
(100.0142263 -1.727840525 0)
(99.83406959 -1.739307365 0)
(98.41251209 -1.699766126 0)
(98.6100234 -1.688880673 0)
(98.3954126 -1.661011651 0)
(98.20448224 -1.670679608 0)
(96.9213038 -1.620228118 0)
(97.08446619 -1.611426576 0)
(96.90125198 -1.582510361 0)
(96.74705732 -1.590083446 0)
(95.71686101 -1.527182942 0)
(95.8426483 -1.520988704 0)
(95.69355132 -1.491226289 0)
(95.57599523 -1.496177904 0)
(94.78431117 -1.419001989 0)
(94.87533864 -1.415991956 0)
(94.75730389 -1.385479055 0)
(94.67373376 -1.387244826 0)
(94.15968394 -1.294497509 0)
(94.10118292 -1.293848559 0)
(94.06911383 -1.263359654 0)
(94.01709165 -1.260363217 0)
(93.58861363 -1.131671388 0)
(93.65058686 -1.141443365 0)
(93.51710638 -1.079844934 0)
(93.47352741 -1.065318999 0)
(93.31251599 -0.9664327431 0)
(93.33286806 -0.9842472005 0)
(93.23070467 -0.9224878397 0)
(93.22038149 -0.8971534399 0)
(92.94050685 -0.6037293872 0)
(92.91696125 -0.6669280517 0)
(93.05864273 -0.7767317209 0)
(93.11349513 -0.8046468103 0)
(92.84100878 -0.407279677 0)
(92.7933714 -0.4887010224 0)
(92.78322315 -0.2050265888 0)
(92.71098667 -0.2934734055 0)
(92.67381092 -0.09922540702 0)
(99.97103467 -1.620714061 0)
(100.1063047 -1.611687634 0)
(99.95658194 -1.588060749 0)
(99.77489899 -1.59630407 0)
(98.34498749 -1.554422262 0)
(98.54396828 -1.546476808 0)
(98.32845239 -1.521959147 0)
(98.13598734 -1.528876483 0)
(96.84299747 -1.478808595 0)
(97.00813758 -1.472516015 0)
(96.82416388 -1.447237536 0)
(96.66797478 -1.452469569 0)
(95.62643959 -1.392351489 0)
(95.75470763 -1.388204382 0)
(95.60492994 -1.362247889 0)
(95.48487861 -1.365309543 0)
(94.67995657 -1.293233346 0)
(94.77398217 -1.29175704 0)
(94.65529348 -1.26513257 0)
(94.56872576 -1.265505106 0)
(94.04304765 -1.181035578 0)
(93.98102495 -1.179384638 0)
(93.95189408 -1.153761967 0)
(93.89638266 -1.150028719 0)
(93.44895613 -1.032226288 0)
(93.51866668 -1.042863493 0)
(93.38390571 -0.988633534 0)
(93.3328868 -0.9736209016 0)
(93.15527551 -0.8820394902 0)
(93.18363767 -0.8998064311 0)
(93.08070822 -0.8449739631 0)
(93.06304556 -0.8204336627 0)
(92.76872872 -0.55363924 0)
(92.75629685 -0.6142588422 0)
(92.90008641 -0.7133200958 0)
(92.95020072 -0.7359950903 0)
(92.66224094 -0.3736641212 0)
(92.62429316 -0.4499119595 0)
(92.60050119 -0.1881908223 0)
(92.53675264 -0.2703793035 0)
(92.4970144 -0.09147350841 0)
(99.9131494 -1.498739537 -1.913012967e-36)
(100.0526872 -1.492509692 -1.417460918e-37)
(99.89866542 -1.471728656 -3.723375035e-36)
(99.71565263 -1.477089285 -1.912792921e-36)
(98.27962571 -1.433238098 0)
(98.4797058 -1.427930393 0)
(98.26359877 -1.406437082 0)
(98.06994699 -1.41086701 0)
(96.76926141 -1.360993925 0)
(96.93601212 -1.356989027 0)
(96.75145699 -1.334955293 0)
(96.59363073 -1.338033633 0)
(95.54272395 -1.280017009 0)
(95.6730597 -1.277782736 0)
(95.52270378 -1.255192987 0)
(95.40056033 -1.256468353 0)
(94.58431461 -1.18835052 0)
(94.68088983 -1.188367186 0)
(94.56158068 -1.165168079 0)
(94.47244505 -1.164163081 0)
(93.93639836 -1.086498743 0)
(93.87128466 -1.083794283 0)
(93.84463145 -1.062676095 0)
(93.78600723 -1.058122512 0)
(93.3216312 -0.9489411624 0)
(93.39820855 -0.9607526489 0)
(93.26184521 -0.9130206153 0)
(93.20429591 -0.8971063659 0)
(93.0116847 -0.8111394098 0)
(93.04709654 -0.8292506587 0)
(92.94309887 -0.780445814 0)
(92.91900832 -0.7562363461 0)
(92.610938 -0.5118264637 0)
(92.60810677 -0.5709110898 0)
(92.75432184 -0.6607521559 0)
(92.80054878 -0.67840056 0)
(92.49785291 -0.3455758044 0)
(92.46811747 -0.4178060482 0)
(92.43234216 -0.1741176351 0)
(92.37569381 -0.2513065582 0)
(92.33344848 -0.08504681656 0)
(99.85524706 -1.398516836 0)
(99.99867519 -1.39478922 0)
(99.8408045 -1.376635303 0)
(99.65661432 -1.3794129 0)
(98.21619989 -1.333883731 0)
(98.41708015 -1.330969675 0)
(98.20062114 -1.312230182 0)
(98.00606673 -1.314383452 0)
(96.6993666 -1.264509219 0)
(96.86742633 -1.262617042 0)
(96.68241542 -1.243499366 0)
(96.52324585 -1.244570036 0)
(95.4645314 -1.188045783 0)
(95.59659209 -1.187618715 0)
(95.445722 -1.16802435 0)
(95.32182386 -1.16759336 0)
(94.49582599 -1.102454347 0)
(94.59457016 -1.103925862 0)
(94.4746584 -1.083751255 0)
(94.38332852 -1.081389391 0)
(93.83808838 -1.009326945 0)
(93.77024085 -1.005674064 0)
(93.74575899 -0.9886530917 0)
(93.68437094 -0.9832624372 0)
(93.20424294 -0.8807220459 0)
(93.28685717 -0.8938073626 0)
(93.148632 -0.8518679189 0)
(93.08542915 -0.8346057089 0)
(92.87932817 -0.7527601681 0)
(92.9209207 -0.7715592984 0)
(92.81562922 -0.7279565335 0)
(92.78588412 -0.7037473988 0)
(92.46417034 -0.4777362501 0)
(92.46978393 -0.5364995263 0)
(92.61898357 -0.6184643771 0)
(92.66193812 -0.631500346 0)
(92.34483344 -0.3226709442 0)
(92.32244929 -0.3919926595 0)
(92.27567788 -0.1626294854 0)
(92.22535924 -0.2360593894 0)
(92.18067452 -0.07989320243 0)
(99.79760846 -1.318205012 0)
(99.94462196 -1.316766734 0)
(99.78326579 -1.301068127 0)
(99.59800969 -1.301500323 0)
(98.15448437 -1.25449935 0)
(98.3559325 -1.253796126 0)
(98.13929436 -1.237597173 0)
(97.94406185 -1.237627558 0)
(96.6326444 -1.187526432 0)
(96.80176971 -1.187622205 0)
(96.61638417 -1.171152229 0)
(96.45610933 -1.170314836 0)
(95.39080251 -1.114698098 0)
(95.52430555 -1.116010756 0)
(95.37295068 -1.099102852 0)
(95.24757796 -1.097009294 0)
(94.41308999 -1.033918903 0)
(94.51367348 -1.036836997 0)
(94.39314338 -1.019340769 0)
(94.29994941 -1.015605393 0)
(93.74649604 -0.9478474278 0)
(93.67639439 -0.9431740237 0)
(93.65341981 -0.9298030365 0)
(93.58984707 -0.9233933279 0)
(93.09477888 -0.8262568814 0)
(93.18250425 -0.8405549033 0)
(93.0425941 -0.8037601176 0)
(92.97432793 -0.7850006334 0)
(92.75601264 -0.705863893 0)
(92.80297427 -0.7257227742 0)
(92.69591775 -0.6865853607 0)
(92.66148959 -0.661747653 0)
(92.3281081 -0.4509903342 0)
(92.34010833 -0.5096632745 0)
(92.49196665 -0.5851438272 0)
(92.53283625 -0.5929189149 0)
(92.20288676 -0.3047346975 0)
(92.1850569 -0.3720856396 0)
(92.13030934 -0.1536695517 0)
(92.08345655 -0.2243628508 0)
(92.03631752 -0.0758993134 0)
(99.74045292 -1.256451894 -7.376220591e-36)
(99.89081507 -1.257161101 0)
(99.72625568 -1.243793788 -6.106146659e-36)
(99.54000536 -1.24204949 0)
(98.09424597 -1.193670916 0)
(98.29608876 -1.195056482 0)
(98.07938447 -1.181233054 0)
(97.88364597 -1.179237572 0)
(96.56847218 -1.128632204 0)
(96.73847101 -1.130640566 0)
(96.5527549 -1.116602749 0)
(96.39156329 -1.113911121 0)
(95.32057157 -1.058621004 0)
(95.4552905 -1.061645661 0)
(95.30345314 -1.047173774 0)
(95.17682967 -1.04342483 0)
(94.3347828 -0.9815033828 0)
(94.43694405 -0.9858979045 0)
(94.31575865 -0.9708072991 0)
(94.22095041 -0.9656481818 0)
(93.65977292 -0.9011213701 0)
(93.58768176 -0.8951366599 0)
(93.56582938 -0.8853396693 0)
(93.50018601 -0.8778617242 0)
(92.99178023 -0.7843440475 0)
(93.08400329 -0.8004656505 0)