/*--------------------------------*- C++ -*----------------------------------*\
| =========                 |                                                 |
| \\      /  F ield         | OpenFOAM: The Open Source CFD Toolbox           |
|  \\    /   O peration     | Version:  v2012                                 |
|   \\  /    A nd           | Website:  www.openfoam.com                      |
|    \\/     M anipulation  |                                                 |
\*---------------------------------------------------------------------------*/
FoamFile
{
    version     2.0;
    format      ascii;
    class       volScalarField;
    location    "1";
    object      k;
}
// * * * * * * * * * * * * * * * * * * * * * * * * * * * * * * * * * * * * * //

dimensions      [0 2 -2 0 0 0 0];


internalField   nonuniform List<scalar> 
3259
(
37.00477651
37.00284443
36.9914954
36.97992723
36.96959373
36.96230617
36.95834031
36.95601964
36.90985596
36.90907544
36.90868056
36.90842208
37.02788215
37.02266607
36.98650464
36.92862473
36.87672391
36.84021607
36.79660514
36.78324785
36.73193036
36.72924463
36.72794882
36.72724938
37.09048204
37.08102079
37.02278407
36.92333762
36.81005343
36.7263321
36.64953168
36.61913934
36.55904664
36.5528671
36.54993175
36.54872873
37.2428523
37.22749509
37.13653386
36.98539344
36.8159755
36.66059237
36.5299813
36.47061505
36.39287284
36.38098755
36.3752299
36.37297672
37.58660615
37.55790614
37.39758277
37.14891174
36.89009782
36.66480802
36.45236493
36.34281929
36.2358437
36.21351707
36.20322896
36.19921432
38.40022551
38.30590935
37.91326284
37.47184062
37.05700902
36.7212565
36.42400696
36.24075934
36.0903349
36.05045046
36.03323863
36.02648099
40.27830519
40.09525102
38.86499374
38.00403759
37.3313337
36.83605755
36.43667148
36.16918673
35.95529042
35.89228677
35.86506083
35.85444295
42.97751565
40.40091143
38.76525372
37.70863861
37.00429538
36.47636657
36.12471312
35.83339251
35.74035151
35.69967025
35.68400761
47.73779861
42.27983643
39.67574837
38.1609569
37.21099563
36.53582183
36.10198301
35.72508019
35.59665021
35.53967172
35.51785643
51.05340285
43.98447123
40.57574529
38.61776582
37.42960302
36.60821245
36.0956652
35.63190522
35.46454811
35.38881184
35.35976631
52.68806179
45.24314238
41.31585419
39.01957458
37.63544803
36.68297534
36.0991659
35.55286073
35.34608171
35.25074161
35.21369362
53.39586942
46.04428773
41.84814087
39.33277116
37.81113416
36.75132433
36.10515414
35.48851195
35.24214523
35.12724362
35.08189846
48.27834129
43.36259919
51.94486138
48.73754178
53.65203275
52.24975303
54.34862767
53.76652715
54.39042146
40.24589351
42.85384321
40.00511099
52.21602426
45.07383801
47.20756577
42.73260779
40.98819309
56.11633248
58.16795097
50.74914905
44.85933247
43.30122996
54.87060382
54.33543616
52.55535993
46.40094693
45.29843372
56.40827574
55.51017288
39.90910101
57.29329644
57.04679794
58.08869359
52.55493119
46.14244162
51.50302649
56.69590103
54.42549075
55.89310979
50.53961822
57.00031299
56.02851349
56.90109902
57.10905307
50.29123821
55.34230235
54.96014554
53.18325665
56.54900682
56.80282481
55.97705283
56.50449298
52.9945074
57.00176161
56.50463679
41.30818791
42.44258477
57.32316651
39.77834056
64.45449225
48.2236864
49.85802638
53.35473031
47.37165247
46.68469433
58.39120343
49.13187108
47.51119657
44.66516606
50.49696198
45.50243469
47.05101417
43.1497922
54.13717405
57.05247638
57.17607014
56.83433803
57.03511022
54.06631575
41.89995596
44.44739959
41.94790966
41.92281411
69.49858154
49.09745253
64.11957132
47.15734255
60.28974544
48.21610288
57.73169989
57.87826965
54.5223207
54.488075
41.12549369
46.50093018
56.07218842
41.60678874
42.06745198
48.36564873
41.86251124
55.95583353
52.21364471
50.0300999
52.0379109
56.13674243
55.74280556
55.26723898
55.39751829
56.53799938
54.69670713
54.09183387
55.29059933
54.86339089
56.46126334
57.64029193
52.7227375
51.65983932
53.85947119
53.03438676
57.63354964
55.52401325
49.0885397
55.45219346
42.44805719
46.18214122
56.76008219
42.52769599
41.00846324
59.83637934
52.83634365
63.94405632
40.08135702
40.77200574
55.64953474
41.35325696
45.65135931
43.68817219
47.17998358
43.44362898
43.81846264
56.88563157
60.14802614
58.8057865
58.21723177
54.64216099
44.89164475
45.08393987
48.62271568
48.02788584
54.20327226
57.48473158
61.64417475
60.49112007
54.09896882
49.47081219
47.94781975
51.26160742
49.94774087
54.47584377
54.74452006
49.68873688
48.96594945
55.52499315
45.25348238
45.49606395
55.16137338
56.66799169
56.03601089
55.95495137
55.98194304
55.68213635
55.40214699
55.91917538
55.75052419
55.99349488
56.82549908
46.82258659
51.06357752
52.86507261
57.55080379
56.88744942
56.35037469
49.91858332
49.76901133
40.03039814
39.97397004
58.74440258
60.56217659
49.7189744
61.04240399
45.12280608
41.2891588
44.84188019
49.29269378
54.62964657
69.79257833
56.74034256
52.80294108
60.82634919
57.60515728
52.04493414
48.79930289
54.64747125
56.42903485
55.68218105
57.18393375
58.16040945
58.39548242
56.96542464
46.01677136
45.12244302
54.57969353
47.88229733
47.84073047
45.35988138
47.43286838
47.78312499
54.25418999
47.8273675
46.37174832
41.80386456
42.40686309
41.37198638
50.87613414
49.89302973
44.06252284
47.81192898
46.29838506
49.50445782
48.33036446
43.17845229
43.25433911
41.1572792
40.2271959
61.4701596
60.83956656
57.17982316
62.6371455
63.63062972
63.60416528
62.63283468
61.82029316
63.94318238
62.45429911
54.39681368
60.45597173
61.56394516
50.74189962
49.83676192
54.8701434
55.53806287
52.34402466
51.13365437
44.11439294
43.64485883
45.86852432
44.52273056
49.32258379
43.83956038
44.88248352
43.52386647
43.54636163
54.61427905
41.44369818
53.53169999
48.53780777
53.19668782
41.19633363
59.51656071
42.51304007
40.45177998
39.11763815
57.46996698
56.99045784
47.53295034
57.45112809
57.18825695
57.21583417
54.5332533
45.89082668
45.29632672
48.79883908
54.88282978
45.78772404
45.95308168
41.41363249
41.76109721
44.22018874
50.7798742
54.71011164
57.62493171
43.35199272
41.69309312
41.6636296
51.7686095
53.47177694
57.19835291
58.47248578
60.20506529
53.98766128
49.00103442
44.55396878
60.88160224
54.05872374
43.89820713
65.08474276
49.616336
42.8648416
44.63174677
57.52775622
40.2110048
40.40201308
49.45818323
47.41866069
45.78156754
47.92996428
45.42970834
40.80087847
40.25340198
43.11108297
43.4394401
46.44122643
66.20700603
61.13083407
58.4274005
69.24361489
66.23316769
41.26521168
44.40312357
43.32149699
51.16262906
50.54762336
44.12012643
52.06725266
51.2139348
41.40414708
48.7129939
42.27219344
42.56859356
47.4369116
40.71093199
41.49409449
48.69122279
48.37881714
43.0019399
43.4445874
48.86100216
48.31639354
48.75390284
55.23170299
45.65383871
46.97938083
60.00224887
57.30213347
56.48296615
46.25380394
44.68200537
40.43429261
57.10561979
57.77419533
61.30456851
42.43321981
55.49603328
50.16920059
55.85026583
54.66739031
43.78509848
44.75917923
45.61292823
50.53427148
54.21847985
54.6244342
53.58777343
53.89532208
59.75381419
58.9777361
59.29489658
58.30614589
58.63366956
59.25147883
48.4256242
47.63951707
47.92962957
47.21890692
47.41436856
48.38329872
61.16188492
60.05653956
60.08306693
59.61043575
59.87573229
60.82293516
49.28147483
48.80229949
49.12309276
48.20052013
48.50746848
49.07109395
52.85706888
53.00408746
52.0999786
52.28295474
62.77978844
62.14426919
59.92262753
47.48272927
62.70556656
62.0729025
67.99788043
62.32030814
64.81042506
60.22679854
51.55090008
66.60091195
61.13855591
50.40679598
50.06761748
58.82926094
46.77208825
51.19723617
57.41734809
54.33746139
55.78001031
53.54074746
65.29752642
61.60230154
65.76269478
59.61007267
62.55731554
65.30338382
66.7954258
66.13818234
55.85097051
56.18261866
56.52004116
55.36476966
55.59087798
55.53122445
57.8798997
57.62039521
57.95272479
56.91597089
57.24512498
57.43266753
45.70832827
47.90754726
47.88247188
47.77277391
47.90243337
46.14058546
48.22381768
47.89826012
47.40210853
48.17492411
48.57782238
47.18154722
47.28860229
47.19448172
47.79061658
47.57212958
46.70564431
50.80121388
47.07394131
41.48589086
52.26465111
52.21582986
51.90235906
43.12314784
50.84828986
50.35273126
41.9864747
42.06675191
45.93209486
61.28740368
59.9736073
59.89839315
59.98936382
60.00979526
61.05857096
63.05930581
63.28200102
62.50552298
65.79388941
65.69129246
65.69729027
65.80995714
62.35933106
64.14424686
65.12126062
67.06807131
64.20632234
50.54379864
50.09388736
50.43719938
49.43182327
49.76882035
50.11854086
51.83826277
51.35300462
51.6113769
50.76975302
51.08669246
51.54689779
47.99717336
47.92988553
48.83318991
44.18391319
45.72407578
44.13621158
48.07050412
48.34188684
47.95181202
48.043269
44.52238509
43.41304025
45.82568549
44.5518904
47.70886851
47.77028395
43.40450784
52.63874804
42.60996528
43.56431494
41.11878777
41.78095884
53.32092426
52.1212104
51.59616843
44.79654331
47.8767964
53.66202299
58.66854246
37.06523251
37.02537548
37.06892411
37.06623158
37.02632586
37.0608132
37.02557582
37.00193752
37.00869306
36.94268951
36.9443133
36.91936171
36.84193466
36.88889305
36.82075544
36.76463838
36.84826345
37.18584707
37.08606164
37.19336991
37.19006046
37.08741683
37.1802636
37.12318416
37.04172237
37.09695776
36.99864676
36.9499221
36.96189455
36.8470871
36.83626994
36.80964674
36.70096578
36.74284749
37.46452535
37.2343463
37.47930189
37.47845051
37.23893806
37.45882381
37.35470402
37.16684366
37.31231594
37.15474233
37.02630348
37.09595094
36.91981257
36.85827854
36.86351609
36.70803705
36.69639629
38.10241406
37.5672563
38.13082657
38.12432244
37.57480445
38.05313409
37.8362145
37.45112561
37.75160675
37.46988204
37.21513584
37.37262364
37.09268715
36.95266397
37.0058058
36.77267162
36.71832618
39.90558946
38.34321246
39.93717035
39.70587988
38.32094841
39.3564317
38.78185202
38.02020896
38.57939525
38.01858993
37.58376557
37.84820093
37.38762762
37.15441319
37.25237382
36.90149135
36.79814956
41.45488259
41.49244045
40.28256613
40.89873812
40.2261871
39.74589235
39.96783374
38.8500534
38.20173291
38.55168655
37.81273968
37.48253686
37.60758965
37.09610648
36.94446998
44.7987334
43.41817273
42.09048718
41.81314888
39.90057898
39.10303577
39.43159823
38.33385564
37.93498675
38.0432985
37.34201956
37.15432787
49.21576383
46.5272972
45.39283023
43.601909
40.97604373
40.18528357
40.34046672
38.882559
38.47542874
38.50469313
37.60811762
37.40857596
51.82666572
48.74916855
48.04330509
44.98381257
41.89485022
41.24029457
41.13424815
39.37602307
39.01902298
38.92517905
37.86077606
37.6734491
53.04465202
50.0090359
49.65846713
45.90098328
42.55996167
42.09588929
41.72347816
39.77027199
39.49272762
39.26370965
38.07633918
37.91793342
53.55664658
51.12354893
50.99252636
42.69762587
39.84958748
38.12196805
47.50998572
48.95405573
50.16197964
43.64232404
44.47799272
44.01581426
51.59973124
53.70431241
54.16712634
50.5356259
51.54710883
49.4624834
53.50614818
55.19957803
55.42064958
54.28906938
54.62831151
52.52832141
54.27719496
55.28842531
55.33633451
54.99530559
55.06387919
53.88059743
55.36883354
55.41453622
54.44897159
53.06221824
53.97808386
54.27530492
41.47084265
54.9137334
52.23488773
42.29597504
42.45105577
43.09269491
40.16917731
41.40654045
41.11475198
51.63688333
52.42268486
53.05308247
45.75834647
46.58108813
45.93009441
45.04882057
43.74782802
45.38618896
42.14267941
43.15966406
43.87322873
41.7329802
42.44184401
41.56148093
56.34696799
54.56260791
54.1906024
58.94942456
58.81871768
58.23446418
47.76967705
46.84659097
49.6317769
44.37068257
45.80689749
46.35907655
44.5582114
45.20759822
43.85583611
54.77768533
52.71870088
52.92059847
51.49068126
51.35276386
54.26095992
49.48204799
48.96852343
52.03154667
46.06799677
47.68561697
48.02801826
46.85294966
47.29521005
45.7089798
56.29984955
54.36741647
54.69253603
50.52124555
51.41776092
55.66689571
39.71535755
39.69929604
40.22837371
57.20932791
53.94962788
55.11563372
56.44660147
56.57941963
57.10092602
57.94690336
59.10564832
59.0636647
53.65766799
54.28476034
53.09239781
47.15294969
48.51664252
46.94747481
52.07233398
50.60648019
49.93219903
54.08077752
53.58507591
55.86996121
54.52289064
51.82022458
51.65013027
53.83181202
53.49671887
55.71428891
52.90149375
53.53197979
50.9669739
56.74569641
56.5722985
56.48591795
57.13571125
57.10863372
56.18561823
57.35801674
54.92794628
54.50686955
56.40751985
56.21506775
57.41740397
49.64031122
51.84463722
52.67071619
55.15954139
49.05363729
50.20588341
53.05793259
53.16702468
55.03077166
55.00805113
55.16413929
53.36044136
56.58869699
57.196976
57.20476871
56.09469167
56.04926254
56.69725003
55.90905889
57.16931231
57.15587128
57.21354843
57.21767734
56.07671262
52.77113519
54.71318775
54.95176337
56.94428619
56.16003554
56.31307881
54.92817885
55.1737816
56.60075555
55.43355671
39.78174911
49.54920717
54.02252789
50.93500708
50.84373493
50.16949641
53.12074222
47.16595918
48.81246139
49.0073796
48.32632458
48.58554144
46.94776672
48.22403265
40.66626367
41.82888703
44.31887539
44.73458261
48.0634587
46.92718517
45.22165944
43.84665996
49.17709876
48.49444641
49.7918641
44.69551005
45.23421577
46.66464429
46.51179531
43.13985094
43.65474901
40.77752004
40.93455317
43.6237714
55.20974162
55.25677212
54.22433399
57.1071381
56.41062482
56.11348724
56.41668315
56.41171383
57.11656451
56.93464698
56.11503539
56.10299713
56.11893025
56.1189884
56.96235534
53.9686225
55.11367258
55.16779679
43.0992712
43.93445981
44.2037633
44.70525225
41.89230963
42.94905174
42.69635418
43.08066411
43.0613091
41.91402309
50.79938314
53.83160137
50.39374953
52.63276927
48.26366713
46.4134007
57.06741811
55.41381101
59.72887977
46.81267717
48.3873791
50.16939135
57.28109891
57.09766634
57.60881962
57.9719199
57.79903085
57.62441802
52.22711503
52.23788638
54.53657242
54.4290179
51.98682496
52.16738577
53.65770913
54.04368182
56.18965571
41.48202203
42.61036886
42.27480383
45.64784754
45.15771041
41.77826258
42.01099816
41.93104792
42.16938051
55.81959517
51.7308726
52.12209636
51.53145191
46.43548571
47.47646266
42.43957003
43.58811855
50.7870717
57.90866808
58.21347152
56.50585395
55.31254771
57.08004477
57.54445542
52.93995443
52.75172645
55.13366922
55.49442547
53.21074342
53.10527554
56.96239454
56.88652474
56.69238246
54.50882713
55.7748874
55.92564259
55.38860362
55.60428939
54.31223457
55.15891923
56.2943808
56.39189256
56.06167941
56.18541737
55.02183083
56.25686479
57.07230078
57.02412551
55.62056993
55.26807216
57.46301259
52.39041287
53.69577029
54.03273353
52.92459855
53.32235068
52.03541383
53.60085664
54.91571753
55.17393678
54.35887809
54.63898678
53.33023197
57.51003049
56.17768991
55.87575979
47.44504558
48.59152019
55.89582502
55.38058368
53.70653883
53.83507928
43.95980229
51.88630801
52.29488959
52.98793942
52.48674669
44.52911708
56.67827066
55.40269938
55.61775826
42.12246098
40.66526611
40.68289909
42.49027684
41.77672779
41.00745931
48.46949269
40.23525574
43.4250569
42.21638158
43.57198957
44.5084836
45.04855916
44.54793501
43.40473278
47.57914607
44.96441213
45.98569491
46.48435827
47.98077044
43.6185939
44.73483149
44.33165309
45.03567707
44.94080734
43.75636826
55.49821142
54.98409487
56.61125287
58.23596014
58.63200713
58.47122317
52.3582978
52.52781874
54.68481715
44.81789357
48.34824857
48.06140494
49.24672566
48.77981556
44.91054884
54.21056401
51.24754314
51.24094384
58.93939953
59.09465468
57.75492668
51.92605884
51.25513141
53.07221669
48.97731042
49.9498702
50.51385703
48.77459136
49.38003808
48.47110722
50.84418706
52.04165335
52.4985277
51.04742285
51.56115695
50.40507255
55.53753631
53.07485634
52.51100259
52.17919291
51.99925028
54.63324673
55.5601902
53.21596244
53.04729042
45.35885864
49.803859
49.58493993
50.12950547
49.97008264
45.41936703
55.09919097
53.24586206
53.33509814
57.1807458
57.18752011
56.62257066
56.01291417
56.87286385
56.87370186
56.85059854
56.86358965
55.98946277
57.18795316
57.18025509
55.91672739
55.59681494
56.61823899
56.67493906
56.47768641
56.55305322
55.50930313
55.8690395
56.80209759
56.82970778
56.72475956
56.76720482
55.81814151
56.04286052
57.20336118
57.19811622
55.81515284
55.99979897
56.89173112
47.90334077
53.87312712
53.50178495
54.62790771
54.26448008
50.319571
52.43198046
55.66526249
62.36028567
39.96068714
40.2171062
40.02253694
41.14309141
40.55382524
39.93477188
51.61876125
43.45515555
40.63228077
40.83269406
40.44844043
40.4998636
42.23300508
44.3443756
41.24917818
41.61516291
55.17647004
57.95707414
59.97244685
55.09758976
57.08321284
54.36165692
60.96448031
62.52330496
58.96676785
50.61436707
52.3943384
54.13967448
49.96311789
51.30040435
49.92197259
56.4375251
53.34883127
52.12270271
57.41509227
56.60573934
56.12562931
58.24450983
58.07447239
58.08837072
47.95612949
47.90872942
45.38048285
54.5636092
52.24485223
52.28068187
51.38621031
51.68175154
54.34158894
43.44116422
43.05800629
41.38142479
50.5946642
47.08547274
47.55965512
45.96026996
46.52858844
50.21931422
47.31393804
43.25780623
43.65747398
42.78486432
42.92554228
46.75161079
49.15736524
44.90215069
45.38804925
44.09337343
44.47269799
48.69741701
42.6923602
41.91461826
41.92597937
39.99462366
40.2794435
45.14949257
40.90380032
39.80879245
39.8375517
39.92567497
39.80290712
40.43203791
56.84415379
58.47545283
58.73158188
55.99195693
56.56762208
54.86055783
61.0519705
58.89227231
58.31799422
59.739267
59.36932567
61.50241445
54.99698686
52.56132564
52.36881983
53.10496009
53.20862205
55.54538791
43.86661052
43.15211704
42.88847355
43.92709938
43.55013689
43.73256921
45.47535622
42.72141392
42.7492894
42.73771111
42.71257729
45.00827095
40.86214542
40.70825717
41.69132744
41.06076242
41.28978683
41.02331909
41.83572588
41.02651305
41.19829594
39.95296977
40.3992738
41.05213202
39.39227839
39.87368683
39.51361045
49.17040755
49.316645
47.68527366
57.26854002
56.43072839
56.42026434
56.4648684
56.4415312
57.17718853
45.50406575
46.64209557
47.1108098
46.02717874
46.53710275
45.32141446
52.36594308
47.89204618
47.93900843
48.95277207
52.17727846
60.42973922
45.87839445
47.07261018
46.70087169
47.47136632
47.41269857
45.91747163
42.4187034
42.19588007
41.68199775
43.52992372
42.72753882
42.93329276
51.25226212
51.83185092
51.33163998
55.76888759
53.5682983
52.7637689
55.14885435
54.31225282
56.64131436
42.77740962
40.43066342
40.75865469
39.93527086
40.10380232
42.18384743
40.74889878
39.74221613
39.86902047
52.36062093
55.24415003
54.94636536
55.7523194
55.50845103
52.94021148
59.25086016
56.6252632
55.87266899
57.80296023
57.19008009
59.66015789
53.46625026
54.8535877
55.43988279
41.26719794
40.22637278
41.65796203
41.36497066
42.61178113
42.25882737
40.28322831
48.41174248
45.59098565
45.46000777
46.87364281
47.54511482
48.16526137
48.70498628
47.67476099
47.01252232
42.08616464
42.56737197
45.97411851
40.54454321
40.54030531
40.47094519
40.92977249
40.71727713
40.39176056
43.14982623
43.55199365
43.41406655
43.91249186
43.84219483
43.30373319
45.40822421
44.39054095
44.94927515
51.79112196
49.05219291
49.3532303
48.08517873
48.51453738
51.47841186
41.51662673
44.48645775
43.9847489
53.43524687
53.56101872
55.29847269
45.95591194
50.63364746
50.34641109
51.31060539
50.99755179
46.44804617
44.93367894
45.79496822
45.44634908
46.44406603
46.20522522
45.24789366
49.12417857
47.11097384
47.77092763
37.01572523
37.01496628
37.00450745
37.01050681
37.00016712
36.99833673
36.98320573
36.96207231
36.98581302
36.94274692
36.92565556
36.9743801
36.91102394
36.89920922
36.96561416
36.89057964
36.88230159
36.96013072
36.87645669
36.87232456
36.9570427
37.03836762
37.03942223
37.02857636
37.03246722
37.02598683
37.01808228
36.99138077
36.97694476
36.97577447
36.92073873
36.90168712
36.91498675
36.85479793
36.8405278
36.86665011
36.75189899
36.73528851
36.80573453
36.72053695
36.70913127
36.7890462
36.7010912
36.69696563
36.77923041
37.11783107
37.11992437
37.0923105
37.10714475
37.09558745
37.07098957
37.04145574
37.01703758
37.00062141
36.93153289
36.89982175
36.89446294
36.80512888
36.77497995
36.78481167
36.67194205
36.61813191
36.67252307
36.58526369
36.56136294
36.63231103
36.54430613
36.53435488
36.60988423
37.30779869
37.31125397
37.2470043
37.2920654
37.26990061
37.21308637
37.18364433
37.14611192
37.10257926
37.01526976
36.96836623
36.94322753
36.82671019
36.78170805
36.77469085
36.65956128
36.54738603
36.57664645
36.48498822
36.4385888
36.49612618
36.40565621
36.38496451
36.45240027
37.73672076
37.74048601
37.59794007
37.70189552
37.64522563
37.53998079
37.49572747
37.43017603
37.3406761
37.21216191
37.13790951
37.08262121
36.92242028
36.85590344
36.83016218
36.70377347
36.54153183
36.53733955
36.43126805
36.34865105
36.38859867
36.28997582
36.25081105
36.31105219
38.76153089
38.76571972
38.42050599
38.56820212
38.44447707
38.24484809
38.10552199
37.97387488
37.80556528
37.58269157
37.45841067
37.36282168
37.11564098
37.01294744
36.96517093
36.80337162
36.57406072
36.55249755
36.42757163
36.29878388
36.31773291
36.20235273
36.1345716
36.18692005
40.60122399
40.62393164
40.35606891
39.19504225
38.9056232
38.62983843
38.17111612
37.96170659
37.81881796
37.41801669
37.26318858
37.19133813
36.95837008
36.64336667
36.60438615
36.45402287
36.28686197
36.28702833
36.14406625
36.03989988
36.08195081
43.54834956
43.22869069
42.72975432
40.86280736
40.2819518
39.90659263
38.97583241
38.63867391
38.46087792
37.81749126
37.59507334
37.5038862
37.15704775
36.74665894
36.69172854
36.50404031
36.2975251
36.29014302
36.11089932
35.96604083
35.99916217
48.26614597
47.33544893
46.86431493
42.74418426
41.84323416
41.45708345
39.89381664
39.41151298
39.2267109
38.27634015
37.97758905
37.88060727
37.37536
36.87034095
36.80732677
36.57123439
36.3211228
36.30796143
36.09661863
35.910751
35.93633982
51.33707679
50.23006361
49.9433507
44.35234303
43.22472435
42.90871941
40.755562
40.14611432
39.99033133
38.72501051
38.35509594
38.26341557
37.58702765
36.99770877
36.93486945
36.64603427
36.35265365
36.33583159
36.09673785
35.87164412
35.8910101
52.82520715
51.77123237
51.62186615
45.49564067
44.24712596
44.02554651
41.45024112
40.74824089
40.63235567
39.10918183
38.68320775
38.60462091
37.77123253
37.11596001
37.05890976
36.71862717
36.3867883
36.3689205
36.10368311
35.845071
35.85979248
53.46428457
52.48234611
52.43248451
46.2056826
44.91679767
44.76498504
41.94073639
41.17619231
41.09860578
39.38607433
38.9237419
38.87690995
37.16855053
36.40197828
35.83696712
40.60113375
46.38105119
45.87021268
46.60851553
49.64642455
49.31690308
50.41322125
51.48535342
51.31060252
52.39330347
57.25824067
57.04936855
57.12527852
55.62362869
55.36311856
56.45647614
56.90357744
57.21350112
57.22840733
56.81145892
56.82728726
56.07094453
57.07479092
56.04605588
55.82117802
57.25454724
57.26822837
57.21354966
57.15490172
57.15884071
56.77470123
55.94702094
56.77703281
56.78677742
57.18228494
52.3543735
52.29246382
53.27495354
45.34414324
44.8974357
44.42336136
57.07988008
57.12730908
57.11875201
57.07621476
57.08370859
57.15065567
56.86892923
57.14289331
57.14660453
57.12123658
57.12263756
57.01135809
41.8936255
42.17877935
42.23374653
42.21108228
42.22202485
41.98617579
49.07484484
47.55816941
46.61589313
57.05036572
57.07922441
56.59624882
56.39490317
56.97898322
57.0111515
56.94820206
56.81937996
57.60642361
57.61354152
57.14589425
57.04164076
53.97727303
54.05872771
55.58334047
42.88192745
46.75953672
46.28791413
49.49920733
49.09110676
45.65747186
53.52021578
53.23644056
53.70959542
54.83855587
54.0709557
53.74994526
56.77859716
56.76827249
55.95785777
56.01094709
56.79762607
56.78479835
47.21865709
50.30276942
49.88952891
42.29279132
41.85430505
42.01610616
57.21341206
57.06166909
57.06808981
54.48523325
55.44830636
55.48718775
41.52178146
42.05500579
41.91269293
43.93379144
43.52160877
43.66118674
57.13556018
56.68970684
56.80591629
46.29509205
46.90277131
46.32663904
46.1515828
45.40574002
45.55457901
37.04870069
37.0357288
37.07053174
37.05310231
37.05173533
37.04934007
37.05242637
37.06974726
37.02795378
37.03879612
37.03635354
37.05175557
37.03695171
37.04483633
37.01380384
37.0272694
37.04063586
37.00954326
37.01719004
37.00582847
36.98865259
36.98074456
36.99857354
36.93931201
36.9618476
36.96749128
36.95858836
36.95922092
36.93861494
36.89223506
36.89343843
36.91793485
36.85295728
36.87407227
36.8669156
36.90084894
36.88561475
36.86871115
36.79933192
36.81795691
36.83589389
36.78916167
36.80367658
36.78161727
36.8566118
36.82892319
36.81738267
37.1448223
37.11248972
37.1961766
37.15357665
37.15096151
37.14742266
37.15241044
37.1950366
37.0913557
37.11887432
37.11459898
37.16493973
37.12653644
37.13881243
37.08997851
37.11053839
37.14597997
37.05837967
37.08102198
37.0625547
37.0669694
37.03897755
37.06618068
36.9772651
37.00952558
37.03423303
36.97693068
36.99065211
36.96126592
36.9237411
36.90953108
36.94420529
36.84005118
36.87492032
36.88555056
36.86660429
36.86902095
36.83681963
36.77218204
36.77111552
36.80609605
36.7105623
36.73935306
36.73475167
36.76307864
36.74884726
36.72514905
37.36809429
37.2971836
37.48315809
37.38730837
37.38042838
37.37503933
37.3853624
37.48330371
37.24561264
37.31044273
37.30509584
37.42371599
37.3442555
37.36009861
37.28282632
37.31788526
37.39050002
37.19298428
37.24486322
37.21649878
37.2638452
37.19975017
37.24312304
37.10374255
37.15320797
37.21105287
37.06583336
37.10502308
37.06095238
37.03647176
36.9998279
37.05246991
36.89365033
36.94647745
36.97767359
36.90088779
36.92108409
36.8734118
36.80937544
36.79330329
36.84247694
36.70080851
36.74632075
36.75770777
36.73534373
36.7388891
36.69736991
37.86899838
37.71654341
38.13325647
37.91910249
37.90191226
37.87010825
37.90554767
38.13816978
37.59332979
37.74221219
37.73765476
37.96595976
37.82640198
37.85565023
37.68815908
37.76194301
37.9071597
37.50116018
37.60164816
37.55365776
37.66029365
37.53539901
37.61337019
37.37188562
37.45455345
37.56621447
37.27981742
37.35948574
37.28631448
37.27705682
37.20265285
37.2871604
37.03874656
37.11985808
37.18346064
37.01726812
37.06452849
36.99209986
36.92325472
36.88679879
36.96084364
36.75042905
36.81689233
36.8456242
36.77308233
36.79278764
36.73283661
39.14614333
38.71733652
39.96452263
39.24040038
39.2322377
39.03430222
39.14724977
39.83230125
38.3831985
38.77345648
38.72344356
39.15449138
38.85850536
38.99588768
38.48502243
38.65452788
38.98608039
38.13122123
38.34784757
38.23221869
38.38352716
38.16517816
38.32381655
37.85781911
38.01020297
38.19689621
37.6952555
37.84169143
37.71138133
37.68560524
37.56716781
37.70938278
37.30182683
37.43168727
37.53193597
37.25663934
37.33854931
37.22403974
37.12613212
37.06588186
37.17960826
36.86243497
36.96059516
37.00938544
36.8792147
36.91719874
36.82834057
41.47253125
41.09299679
41.05764222
41.004604
41.05506531
41.54262607
40.33895015
40.68030433
40.6652937
39.54803377
39.21215013
39.55934885
38.62001734
38.90204827
39.17895007
38.41010112
38.64125447
38.39789437
38.28252815
38.11967069
38.35927156
37.69519265
37.89830676
38.03693188
37.64494023
37.76676111
37.58584519
37.42052343
37.33828151
37.50876548
37.04249923
37.18339394
37.25033181
37.06279423
37.12128534
36.99157422
44.29156489
43.74306644
44.12068511
42.90450243
43.30799011
43.78664905
41.06554478
40.67236337
41.33250833
39.63614234
40.11564788
40.43812063
39.47900885
39.7865082
39.35653532
39.0214482
38.83860763
39.21392665
38.20202708
38.50259822
38.65810115
38.18471327
38.33628416
38.06384438
37.78283834
37.69000712
37.93221497
37.2785297
37.47289382
37.54989385
37.32001051
37.39504259
37.21492711
48.20328847
47.77410341
48.74586828
46.1497761
46.90354402
47.29735573
46.07571543
46.50323205
45.81440962
42.57262138
42.21618999
43.17933702
40.72988
41.41321159
41.71097851
40.77074364
41.09090731
40.44950679
39.79086628
39.61703865
40.13757528
38.75321092
39.15814902
39.30915772
38.8285923
38.98754622
38.61136024
38.16924012
38.07578394
38.39426712
37.54297467
37.79309144
37.87142124
37.63077422
37.71164325
37.47557446
50.72694967
50.48145935
51.5899458
48.53825135
49.45561855
49.69965817
48.93485921
49.21430652
48.29090566
43.78538566
43.51444715
44.67418868
41.69523068
42.53678529
42.76860209
42.00801855
42.27539066
41.4615538
40.46921662
40.32700203
40.96500442
39.2670677
39.76429057
39.88671298
39.47358741
39.6130976
39.14172353
38.52497831
38.44144452
38.82809799
37.80016039
38.10042819
38.17172929
37.94999302
38.02781247
37.73913762
52.00671272
51.8756072
52.92681834
44.62398856
44.44328034
45.69714527
42.43569008
43.37149919
43.52037606
42.99174051
43.17781783
42.25321249
40.99171975
40.88304827
41.61065142
39.68241176
40.24452993
40.34335066
40.02810565
40.12880179
39.58686232
38.81648258
38.74872328
39.18633401
38.02471538
38.36328892
38.42258483
38.23923032
38.30726926
37.9763882
43.66481089
43.7942309
42.80953752
40.43513868
40.50492622
39.91066662
38.47496737
38.51728187
38.16255388
49.3690442
48.60567579
48.169106
49.30774435
48.91514327
49.77536841
53.87482965
52.82926888
52.64683577
53.1560924
52.99597568
54.01866204
50.89024997
49.96832287
49.61075735
50.57642641
50.26007585
51.22841799
55.24103794
54.5023987
54.45970116
54.41718564
53.44199913
53.30396825
53.69218206
53.57228459
54.51850506
41.01204572
40.61314937
40.55900331
40.16721127
41.28463605
40.85392039
40.87602471
40.66522367
40.75352315
41.21009155
44.58638736
45.18660132
45.64239729
44.2542144
44.72908551
44.24348874
46.04118756
45.35654064
44.81700201
47.479212
48.33633574
48.65333494
47.65866634
48.01461947
47.18063065
50.05106298
48.97573904
48.59703502
49.34013598
50.27942308
50.4593111
49.90104426
50.11201403
49.14481513
52.22798407
51.14177801
50.93359366
50.81983753
53.31058628
53.16082555
53.64858505
53.4989467
51.1509298
56.8950088
56.98556676
57.23285847
54.38431515
56.17931788
55.97054518
56.52554649
56.35841407
54.77444137
47.61212321
47.07519164
46.56809434
47.85452006
47.38766369
48.07649202
56.18025348
55.13920664
54.84729191
53.12969486
52.06043093
51.83237794
52.4601533
52.24880209
53.32879837
57.16918316
57.17854627
56.80801493
56.61403636
56.95645557
57.05416717
56.85470167
56.92394453
56.52895079
56.13401046
56.8576469
56.87975957
56.40662411
56.21454825
57.22564067
56.34809601
56.6954627
56.78805304
56.44910467
56.58905186
56.27463154