/*--------------------------------*- C++ -*----------------------------------*\
| =========                 |                                                 |
| \\      /  F ield         | OpenFOAM: The Open Source CFD Toolbox           |
|  \\    /   O peration     | Version:  v2012                                 |
|   \\  /    A nd           | Website:  www.openfoam.com                      |
|    \\/     M anipulation  |                                                 |
\*---------------------------------------------------------------------------*/
FoamFile
{
    version     2.0;
    format      ascii;
    class       surfaceScalarField;
    location    "1";
    object      meshPhi;
}
// * * * * * * * * * * * * * * * * * * * * * * * * * * * * * * * * * * * * * //

dimensions      [0 3 -1 0 0 0 0];
oriented        oriented;


internalField   nonuniform List<scalar> 
6464
(
0
0
0
0
0
0
0
0
0
0
0
0
0
0
0
0
0
0
0
0
0
0
0
0
0
0
0
0
0
0
0
0
-1.969909999e-07
0
1.192395663e-08
1.674881563e-07
0
0
0
0
0
0
0
0
0
0
0
0
0
0
0
0
0
0
0
0
0
0
0
0
0
0
0
0
0
0
0
0
0
0
0
0
0
-1.722273572e-06
-3.611412867e-05
3.144889021e-06
3.573919221e-05
-1.29975942e-05
-2.866040161e-05
2.361789163e-05
2.468130096e-05
-6.190437402e-06
-1.094345738e-05
1.705332028e-05
6.781062519e-06
0
-1.943132434e-07
3.827917075e-07
0
0
0
0
0
0
0
0
0
0
0
0
0
0
0
0
0
0
0
0
0
0
0
0
0
0
-1.111667133e-05
-5.9609407e-05
1.505541803e-05
5.991382663e-05
-7.078267226e-05
-5.504317771e-05
9.010204095e-05
5.152057132e-05
-7.783320332e-05
-3.630018813e-05
0.0001053332187
3.022466352e-05
-3.07091285e-05
-1.242772415e-05
5.174847867e-05
7.614501574e-06
0
-1.406126832e-07
1.035725791e-06
0
0
0
0
0
0
0
0
0
0
0
0
0
0
0
0
0
0
0
0
0
0
-2.900615186e-05
1.876004711e-05
3.352557916e-05
-1.766272192e-05
-0.0001500054125
1.369621039e-05
0.0001683034044
-1.233622774e-05
-0.0001974731811
9.285449709e-06
0.0002283125352
-8.246938341e-06
-0.0001417882433
1.073518564e-05
0.0001760929212
-7.059115605e-06
-3.191941128e-05
1.879276248e-06
5.054036583e-05
-1.072126421e-06
0
0
0
0
0
0
0
0
0
0
0
0
0
0
0
0
0
0
0
0
0
-4.25937754e-05
0.0001740443557
4.340837533e-05
-0.000173769771
-0.0002119132648
0.0001719656443
0.0002190274976
-0.0001678862514
-0.0003240181239
0.0001577183565
0.0003419302138
-0.0001415040767
-0.0002755408391
9.425395369e-05
0.0003063524201
-7.948843398e-05
-0.0001188803493
3.708180396e-05
0.000142736902
-2.511883769e-05
1.871112919e-06
-3.143708745e-06
5.547406997e-06
-3.100623599e-08
0
0
0
0
0
0
0
0
0
0
0
0
0
0
0
0
0
0.0001589641909
-1.637409485e-05
1.64720477e-05
-0.0001590621438
0.0001672757015
-0.0002364014054
-0.0003463692235
0.0001808578476
0.000120338962
0.0001142981179
0.0003212972951
-0.000377137
0.0003853700234
-0.0003073849992
-0.0003811337924
0.0002408744082
0.000397166489
-0.0002099020547
-0.0002072125988
0.0001109304356
0.0002285502868
-8.188322066e-05
1.67985302e-05
-2.558854223e-05
3.336792954e-05
-5.403546896e-06
0
0
0
0
0
0
0
0
0
0
0
0
0
0
0
0
0
0.0002439076256
-0.0001085417802
0.0001081733714
-0.0002435392168
0.0004906005071
-0.0003967589285
0.0003981943822
-0.0004795232641
-0.00043923813
0.0003925179711
0.0004455186812
-0.0003497265788
-0.0002732227453
0.0002035199894
0.000280436339
-0.0001556943489
4.225349078e-05
-5.168444173e-05
5.979256812e-05
-1.861608973e-05
0
0
0
0
0
0
0
0
0
0
0
0
0
0
0
0
0
0.0003210009882
-0.0001074298691
0.0001072582492
-0.0003208293683
0.000649834056
-0.0003983836819
0.0003981361579
-0.0006413267741
-0.0004623387955
0.0005411983418
0.0004653854704
-0.0004874023116
-0.0003053710091
0.0002957993653
0.0003104505349
-0.0002306121695
6.875677133e-05
-7.005725133e-05
7.341847321e-05
-3.347929222e-05
0
0
0
0
0
0
0
0
0
0
0
0
0
0
0
0
0
0.0003978789249
-0.0001065565299
0.0001063751311
-0.000397697526
0.0008026509166
-0.0003971025597
0.0003966694034
-0.0007921443311
-0.0004624033044
0.0006683741304
0.0004603363974
-0.0006018956772
-0.0003067129757
0.0003643702326
0.0003045292789
-0.0002838381484
8.395986376e-05
-7.110547935e-05
7.004712322e-05
-4.059376901e-05
0
0
0
0
0
0
0
0
0
0
0
0
0
0
0
0
0
0.0004750173326
-0.0001055656557
0.0001053312559
-0.0004747829328
0.0009541394897
-0.0003940379238
0.0003926326388
-0.0009332747385
-0.000443781213
0.0007652603859
0.0004347016685
-0.0006836548723
-0.0002799182199
0.0003978193329
0.000272222803
-0.000303757549
7.918418521e-05
-5.522491775e-05
5.180927714e-05
-3.396784918e-05
0
0
0
0
0
0
0
0
0
0
0
0
0
0
0
0
0
0.0005506938757
-0.0001042378281
0.0001040866182
-0.0005505426659
0.001089959885
-0.000386894538
0.0003839547994
-0.001050192135
-0.0004072132716
0.0008218987282
0.0003989727979
-0.0007237655999
-0.0002369699858
0.0003921888244
0.0002199072811
-0.0002882278711
5.950458027e-05
-3.437828747e-05
2.925747066e-05
-1.932817503e-05
0
0
0
0
0
0
0
0
0
0
9.700843184e-05
-0.000310691085
-9.716980054e-05
0.0001569318117
0.000153920642
-9.925865242e-05
0.0002449748696
9.819140836e-05
9.55355226e-05
-0.0003885835184
-9.576755075e-05
0.0001956006928
0.0001932148537
9.645815057e-05
0.0001620289369
0.0001595223326
9.474370193e-05
-0.0004649546486
-9.450047729e-05
0.0002334739603
0.0002312374637
9.535645552e-05
0.0001999958762
0.0001980621158
9.29673934e-05
-0.0005407856538
-9.339098085e-05
0.0005412092412
0.0004753061958
9.44548388e-05
0.0005509720719
9.268919725e-05
-5.059155889e-06
4.981729707e-06
-0.0002353185508
-9.869824791e-05
0.0002347581463
-9.975893675e-05
0.000165204771
0.0001018298672
1.44191533e-05
-6.960549333e-05
-1.442417581e-05
6.961051584e-05
-0.0001224297269
-2.960417014e-05
0.0001227233937
2.931050336e-05
-0.0003105538391
-0.0001075671149
0.0003559090817
-0.0006096610217
-0.0003568387572
0.000610792705
-0.0003585308374
0.0004945957981
0.0003568471421
1.596407105e-05
-8.837346753e-05
-1.590744245e-05
8.831683893e-05
-1.457380795e-05
-7.957961877e-05
7.964687102e-05
1.450655571e-05
-0.0003884507242
-0.0001066893242
0.0003543614253
-0.0007654209663
-0.0003548022736
0.0007658906773
0.0006503516422
0.0003554714018
1.402115911e-05
-0.0001079110477
-1.40980557e-05
0.0001079879443
-1.47933064e-05
-9.85426438e-05
9.825051443e-05
1.508543577e-05
-0.0004649147445
-0.0001056055598
0.0003520378359
-0.0009159500961
-0.0003529058959
0.0009183967934
0.0008032223328
0.0003539027145
2.64298176e-05
-0.0002528385486
-2.65548299e-05
0.0002529635609
-2.705736391e-05
-0.00023652258
2.653269254e-05
0.0001189550612
0.0001180921901
0.0001470770602
3.186962896e-06
-0.0001466657271
-3.598295993e-06
2.547025856e-05
-0.000291096161
-2.542608564e-05
0.0002910519881
-2.605301598e-05
-0.0002744203519
0.0002744409329
2.603243501e-05
-7.895567242e-05
-1.460127272e-05
7.898313719e-05
-7.001076347e-05
7.007929171e-05
1.435062506e-05
-9.762812593e-05
-0.0002825577023
9.73367329e-05
0.0001429296135
0.0001399194819
-3.13334569e-05
7.047050738e-05
3.10814966e-05
-0.0001402293106
1.517798954e-05
-7.894187757e-05
-1.519178439e-05
-9.775696059e-05
-1.448154796e-05
9.744520216e-05
-8.933854877e-05
8.922240777e-05
1.608021205e-05
-4.944529496e-05
-0.0001788696163
0.000178914603
4.940030825e-05
-1.64486064e-05
1.646363741e-05
-8.935357979e-05
1.524062398e-05
-9.79467798e-05
-1.505080478e-05
1.512827264e-05
-7.952990187e-05
-8.844203792e-05
-1.638003601e-05
-0.0001761790479
-4.945214866e-05
0.0001761859016
-0.0002337949447
-2.702863055e-05
0.0001171858994
0.000116580312
-0.0001084368101
0.000108422156
1.403581324e-05
-9.469935424e-05
-0.0004359962957
9.469473637e-05
0.0002190412552
0.0002169596584
-3.004290765e-05
0.000108718909
2.985512556e-05
-0.000216967937
2.968105738e-05
-0.0002337477715
-2.972823055e-05
1.542656296e-05
-9.872858277e-05
0.0001071306512
-0.0002147551555
-1.478461243e-05
-1.554483863e-05
-0.0004265133204
-9.509492198e-05
0.0002146212761
0.0002122876121
-0.0002721757017
-2.610698299e-05
0.0002722296687
-0.0002554528133
0.0002554670591
2.641557181e-05
-1.681078304e-06
-0.0001466849618
0.0001462233674
-2.456631936e-06
0.0001478526138
0.0002931747816
-0.0001466788991
1.482401296e-05
-6.414802276e-05
-5.037367144e-06
5.436137695e-05
-6.239551922e-05
-1.045409512e-05
6.322032055e-05
9.629293794e-06
4.074638976e-05
-0.0001232852175
-1.834156089e-05
0.0001008803887
-0.0005405632803
-0.0001044602015
0.0003505693359
-0.001058479672
-0.0003512774406
0.001071534793
0.0009571428805
0.0003520857937
3.922138094e-05
-0.0001417261518
-1.418037467e-05
0.0001166851455
1.489649281e-05
-0.0002817029061
-1.510226062e-05
0.0001412402217
0.0001406684522
-7.980847978e-06
-0.0001369882244
0.0001369704235
7.998648873e-06
-3.312368681e-05
3.209081687e-05
-0.000121396857
6.872510186e-05
-0.0001380644238
-3.159962832e-05
-0.0002725711469
-9.704441328e-05
0.000137288933
0.0001346985013
-0.0001366265083
-8.095788737e-06
0.000136741449
-9.547643768e-06
-0.0001325151718
0.0001329139456
9.148869958e-06
-9.401999214e-05
-0.000512204869
0.0005124606979
9.376416321e-05
-2.930338851e-05
2.918429977e-05
-0.0002553337245
2.883992792e-05
-0.000272078767
-2.893686264e-05
2.951030474e-05
-0.0002363518273
-0.0002528289941
-2.931294297e-05
-0.0005032813858
-9.415240878e-05
0.0005034138024
-9.744017335e-05
-3.332845672e-06
9.745805041e-05
3.314968611e-06
-0.0001196333676
-2.973356139e-05
0.0001197627588
-0.0002103206077
-6.006033961e-05
0.0001065662215
9.922826779e-05
3.149140488e-05
3.309505313e-05
-8.579411116e-06
8.753932314e-06
-9.761469454e-05
-8.06886955e-05
9.551270845e-05
-2.875205919e-05
-0.0001315072498
2.854936583e-05
6.611827851e-05
6.559166464e-05
-1.081931499e-05
-3.828604816e-06
-6.604077569e-05
-1.040908221e-05
1.002744058e-05
-6.201387758e-05
-6.548531174e-05
-9.48202602e-06
-0.0001285568564
-2.831095474e-05
6.44627018e-05
6.365305019e-05
-1.385628331e-05
-8.41536436e-05
8.416301008e-05
1.384691682e-05
-8.377176583e-05
-1.392346191e-05
8.383894443e-05
-1.386590623e-05
-0.0001038138609
0.0001037440698
1.39356973e-05
-0.0001035713219
-1.403978832e-05
0.000103745204
-0.0001265639114
9.544500144e-06
-8.61084713e-06
0.0001256302584
-0.0001258870332
0.0001602364573
6.396965684e-06
-2.675608149e-05
-0.0002455403959
0.000245547141
2.674933635e-05
-1.133625156e-05
9.533375967e-06
-0.0001240841576
1.017606812e-05
-0.0001268287909
-9.911188591e-06
-1.015030967e-05
1.851072723e-05
-0.0001166059424
0.0001082455248
-0.0001225696485
-1.205182054e-05
-0.0002433162873
-2.679831932e-05
0.0001219450283
0.0001214134968
1.428213199e-05
-0.0002910812724
-1.440402973e-05
0.0002912031702
-0.0002840086392
1.467159786e-05
0.0001424619234
0.0001417716108
0.000182478137
1.367618814e-06
-0.0001446243748
-1.458102277e-05
-7.488494303e-05
7.476621694e-05
1.469974886e-05
-7.406183396e-05
-1.461749935e-05
7.409831054e-05
-1.326763304e-05
-9.408828502e-05
9.402415978e-05
1.333175828e-05
-9.362371386e-05
-1.33096257e-05
9.366570652e-05
1.431450039e-05
-9.354200604e-05
-1.439620821e-05
3.84854934e-05
-0.0001859369073
-3.854069454e-05
0.0001859921084
-3.864259611e-05
-0.0001790206834
0.0001790459817
3.861729779e-05
3.838646287e-05
-0.0001956756362
-3.840956298e-05
0.0001956987363
-0.0001885160818
0.0001885457812
3.845579401e-05
1.432132492e-05
-9.409510955e-05
1.470068132e-05
-8.372212215e-05
-1.4750325e-05
3.870188447e-05
-0.000166696834
-3.872231847e-05
0.000166717268
-3.880312688e-05
-0.0001596163099
0.0001596358257
3.878361115e-05
-0.00017625249
-3.86639195e-05
0.0001762738134
-0.000169071498
0.0001690799555
3.8693427e-05
1.473672702e-05
-8.418968931e-05
-1.40806479e-05
-0.0001131808819
0.0001132308795
1.403065036e-05
-0.0001143478139
-8.044719558e-06
0.0001122422237
-0.0001125684107
-1.417969738e-05
0.0001126674602
0.0001272996602
1.04766379e-05
-0.0001276002299
0.0001322487175
9.589657744e-06
-0.0001319765399
-9.861835331e-06
2.62224997e-05
-0.0002627017046
-2.637711296e-05
0.0002628563179
-9.952275444e-06
0.0001326533492
0.0001264968132
1.034734706e-05
-1.696336815e-05
0.0001994415051
-0.0002931080335
0.0002930344236
-7.24357439e-05
-7.058759013e-06
7.949450292e-05
7.762771452e-06
-0.000138873059
-7.693580195e-06
0.0001388038678
-4.826370412e-06
-0.0001369154475
0.0001365914197
5.150398215e-06
6.840115952e-05
9.570475019e-06
8.524841395e-06
-8.649647593e-05
-0.0001372792952
-6.058278513e-06
0.0001385112033
-3.185884376e-06
-0.0001355441411
0.0001341947453
4.535280181e-06
-0.0001068961955
-9.88789595e-07
0.0001080310722
1.672101236e-06
-1.818188384e-06
-6.217258253e-05
-1.090494606e-05
6.262343346e-05
-0.0001148144142
-2.223875942e-05
0.0001118598492
2.51933244e-05
-9.954045552e-06
-0.000108523255
6.631188332e-06
4.949916749e-06
-1.508033926e-05
-8.595362206e-05
8.544979796e-05
1.558416337e-05
-1.125003848e-05
1.118213698e-05
-7.980851333e-05
7.987641483e-05
1.111319944e-05
-8.179206762e-05
-1.117086215e-05
8.184973033e-05
1.424213892e-05
-8.151906204e-05
-1.433138126e-05
8.160830437e-05
-1.453457113e-05
-0.0001059710839
0.0001058799239
1.46257311e-05
-1.388117832e-05
0.0001053251941
1.423036572e-05
-0.0001056743815
1.098514319e-05
0.000109547876
-0.0001089096864
-1.162333278e-05
-1.109583784e-05
1.101704723e-05
-9.755184035e-05
9.763063095e-05
1.97751809e-05
-0.0001005342187
-1.277501546e-05
9.353405321e-05
1.545539438e-05
-0.0001004869717
-1.555496976e-05
0.0001005865471
-1.45919328e-05
-7.665806765e-05
7.670548946e-05
1.4544511e-05
-1.21732942e-05
9.227679456e-05
-3.564577784e-06
-7.653892257e-05
-7.903443698e-05
-1.076833966e-05
7.855273816e-05
1.508922697e-05
-7.400586727e-05
-1.514519366e-05
3.885765258e-05
-0.0001469965064
-3.892668174e-05
0.0001470655355
-3.891420781e-05
-0.000140328638
0.0001402924447
3.895040113e-05
-0.0001570185957
-3.883299271e-05
0.0001570484616
-0.0001499584446
0.0001499667305
3.884936675e-05
1.512290349e-05
-7.491861955e-05
-1.377297141e-05
-9.602814956e-05
9.582149644e-05
1.397962452e-05
-1.063403477e-05
1.08905433e-05
-9.533975606e-05
9.508324753e-05
-9.678940488e-05
-1.082321216e-05
9.65167792e-05
1.515495706e-05
-9.187561749e-05
-1.577142276e-05
9.249208319e-05
0.0001075038963
1.15996536e-05
-0.0001081184067
0.0001083825747
1.417698224e-05
-0.0001091924857
-1.336707123e-05
1.438082067e-05
-0.0001099505745
-1.4282123e-05
0.0001098518768
2.970073542e-05
0.0001117338499
-0.0002240986373
-2.990435874e-05
-0.0002238294654
3.782176764e-05
-3.796479188e-05
0.0002239724896
-3.807527863e-05
-0.000216950232
0.0002169635065
3.80620041e-05
1.440154483e-05
-0.0001032949093
-1.467795741e-05
3.834817412e-05
-0.0002052827287
-3.833928743e-05
0.000205273842
-0.0001981612882
0.0001982002041
3.834754703e-05
-0.0002147767349
-3.807957637e-05
0.0002147810326
-0.0002077397811
0.0002079554843
3.813247092e-05
1.43316695e-05
-0.0001037439856
-0.0002648489605
0.0002648869708
2.61844894e-05
9.351457803e-06
-0.0001322769719
1.76354908e-05
0.000136115425
-0.0002723963427
-1.798108141e-05
-3.913409049e-05
-0.0001476962503
0.0001858075657
1.022775052e-06
-9.393647355e-06
-6.49562682e-05
6.434880293e-05
1.000111263e-05
-1.192217949e-05
3.345589194e-06
-6.385915361e-05
-6.399252737e-05
-8.885710035e-06
6.348459005e-05
-4.165490237e-06
-0.0001169172471
7.246005745e-06
0.0001138367316
-0.0001196249561
9.522523974e-06
0.0001059369419
6.962858011e-06
-0.0001414858832
-7.106514247e-06
0.0001416295394
-0.0001399331653
0.0001405276173
7.168319486e-06
-1.598092668e-05
-0.0001794351406
0.0001954160672
8.750681044e-07
-1.200818192e-05
-5.251274841e-05
7.864311465e-06
-4.873920849e-06
-5.4173289e-05
0.0001321312423
-4.650920823e-06
6.013407186e-06
-0.0001334937287
0.0001368572696
6.251591103e-06
-0.0001354604325
-7.648428199e-06
8.519423875e-06
-0.0001342820047
-8.796860849e-06
0.0001345594416
-3.950100499e-05
0.0001731723902
1.308665101e-05
3.552477001e-06
0.0001154921143
-8.306920364e-05
-1.507231778e-05
9.814152141e-05
1.160329281e-05
-6.729720592e-05
-1.16301045e-05
6.73240176e-05
-1.155169914e-05
-6.549243867e-05
6.55718371e-05
1.147230072e-05
1.146399722e-05
-6.936808702e-05
-1.194035329e-05
6.984444309e-05
-6.762811524e-05
6.773794291e-05
1.149346513e-05
-6.464458732e-05
-1.202981028e-05
6.512269846e-05
-1.187627424e-05
-6.273717622e-05
6.289816292e-05
1.171528754e-05
-1.0971122e-05
1.013766699e-05
-6.412281319e-05
-1.104120386e-05
1.073771679e-05
-8.461300593e-05
8.4916493e-05
-0.0001008001119
-1.605139845e-05
0.0001168515103
-8.540428244e-05
-1.446505199e-05
8.478899517e-05
-8.195944691e-05
8.206489145e-05
1.413669438e-05
1.115968187e-05
-8.225807727e-05
8.221159484e-05
-8.409884109e-05
-1.107013028e-05
8.412776751e-05
0.000101976091
-1.065368981e-05
1.150722541e-05
-0.0001028296266
0.0001032704406
-0.0001041174549
-1.30341641e-05
-0.0001050948082
-1.444205553e-05
0.0001050022926
1.219524187e-05
-1.060656993e-05
0.0001016817687
-9.180824745e-06
9.710557042e-06
0.0001014463587
9.123221818e-06
-8.852451834e-06
0.000109277106
1.964033063e-05
9.78801053e-05
-0.0001028349699
-7.41823127e-06
0.0001010723764
-0.0001014177019
0.0001018442994
1.50287969e-05
3.946162375e-05
-0.0001033538429
8.366740001e-05
-0.0001035456351
-9.943024574e-06
-1.078459489e-05
-0.0001257167709
0.0001261558505
1.034551531e-05
-0.0001239884337
-9.289654973e-06
0.0001224934937
1.082659176e-05
-0.0001248677225
-9.947302919e-06
1.130035336e-05
-0.0001250682707
-1.139019586e-05
0.0001251581132
-1.194838131e-05
-0.000122486138
0.0001227884645
1.164605479e-05
7.382152484e-06
-0.0001203356781
-6.671430438e-06
1.160795059e-05
-0.0001197616895
-1.169916734e-05
0.0001198529062
-1.177961649e-05
-0.0001180947539
0.0001179798815
1.189448893e-05
-0.0001219890335
-1.205475792e-05
0.0001220954101
-0.0001200494201
0.0001199497776
1.170759307e-05
9.161448298e-06
-0.0001186965429
0.0001442026727
5.769016349e-06
-0.0001442996354
-5.672053627e-06
5.995766485e-06
-0.0001438017063
-6.185560996e-06
0.0001439915008
-0.0001422587309
0.0001425905551
6.631033773e-06
7.457135671e-05
-1.226598828e-05
1.236921213e-05
-7.467458055e-05
7.602107192e-05
-7.599913106e-05
-1.219523506e-05
-7.593039458e-05
-1.465973249e-05
7.599819427e-05
1.662603537e-05
-1.107254475e-05
7.04675813e-05
-1.010699925e-05
1.078531196e-05
7.389304399e-05
0.0001089028299
1.206430934e-05
-7.132177477e-05
-1.183083241e-05
7.108829784e-05
-6.998612319e-05
7.012446263e-05
1.132565778e-05
-7.394253529e-05
-6.607749484e-06
7.044328552e-05
-7.227404158e-05
7.228134448e-05
1.205700644e-05
-1.442782145e-05
-7.256775432e-05
7.249361219e-05
1.450196358e-05
-1.290438336e-05
1.276163908e-05
-7.213129729e-05
-7.39613436e-05
-1.224717997e-05
-1.067218058e-05
1.05075081e-05
-9.385499812e-05
9.40196706e-05
-9.511443556e-05
-1.074007997e-05
9.522048075e-05
-9.564311302e-05
-1.35802702e-05
9.545041181e-05
-9.258540866e-05
9.345524776e-05
1.428511796e-05
-1.461763631e-06
-0.0001213979396
0.0001228597032
-9.328341051e-05
-1.044087904e-05
9.305210897e-05
1.252399822e-05
-0.0001154171574
-1.307079185e-05
0.000115963951
-1.11226289e-05
-0.0001130384434
0.000112299385
1.186168726e-05
-0.0001170189553
-1.154349874e-05
0.0001167828375
-0.000116240166
0.000117208806
1.155535821e-05
-8.408708953e-06
-0.0001518756162
0.0001602843251
1.364290853e-05
-1.25466225e-05
0.0001072862886
0.000106250889
1.03762291e-05
-0.0001136881437
-1.159974605e-05
0.0001141652609
-0.0001100673644
0.0001095201139
1.419015904e-05
-0.0001706248487
0.0001837114998
-9.424197987e-06
-0.0001297082338
0.0001293874102
9.745021659e-06
-2.439765156e-06
7.313865463e-06
-0.000126194868
0.0001213207677
-0.0001348141175
-4.046165202e-05
-0.0001285271074
1.239295967e-05
0.0001136943826
-0.0001294485499
-9.632659697e-06
0.0001296570116
-1.370437961e-05
0.0001187729618
-0.0002356970387
-0.0001081632923
-0.0004526733971
-0.0003599656475
0.0004586994002
-0.0003485671294
0.000330802631
0.0003527089387
5.262878576e-08
5.219275129e-06
-0.0001326040509
0.000127332147
1.539924369e-05
-0.0001352730834
0.0001199264685
0.001107971854
0.0003495118885
-0.0001755034141
0.0001909026578
2.879580301e-05
-0.000274376227
-0.0005791734671
-6.004472575e-05
0.0002885090097
-0.0005787433966
-9.250078474e-05
0.0005788147369
-5.540280221e-05
-1.411450893e-06
5.68776309e-05
-6.337780267e-08
8.196001016e-06
5.877045504e-05
-8.98567143e-06
-5.798078463e-05
6.564028993e-05
-6.340843045e-05
7.338615537e-06
-6.328631909e-05
-1.309207894e-05
6.931963902e-05
-5.873347892e-05
-9.85296635e-06
5.759958102e-05
1.098686425e-05
-5.58248554e-06
6.279678541e-06
-5.609999521e-05
-0.0001013261115
-0.0002032921022
0.0002052046311
9.941358264e-05
-7.215878739e-05
7.033524824e-05
-0.0002084970685
-0.0001199379906
-3.281906377e-05
-6.721209717e-05
-1.456300331e-05
6.711800542e-05
1.465709506e-05
-1.213747724e-05
1.20482379e-05
-6.753887589e-05
1.257640903e-05
-6.955224335e-05
-1.239225271e-05
4.929646952e-06
-0.0001459178234
-5.066297276e-06
0.0001460544738
-0.0001444249918
0.0001447758899
5.644868374e-06
4.173562103e-06
-0.0001461007961
0.0001375642254
1.760439033e-05
-0.0002745213493
1.751470503e-05
-0.000281568952
-1.764865913e-05
2.574111573e-05
-0.000281269043
-2.581791891e-05
0.0002813458462
1.264135988e-05
-7.005107404e-05
-7.145054731e-05
-1.277561082e-05
-7.181706514e-05
-1.437871967e-05
7.176796337e-05
1.424541731e-06
0.0001443150163
0.0001465672241
-2.247897478e-06
-0.0001467759586
3.661841818e-05
-8.857584554e-06
0.0001188063905
0.0001858955738
-0.0001463470365
0.0001463622059
5.008313649e-06
-6.354046766e-05
5.349478687e-05
-9.723553318e-06
-0.0001192373184
0.0001106193109
-6.307459302e-06
6.291483057e-06
-0.0001417101755
0.0001377631515
-4.091188864e-06
-0.000139979422
-1.411810906e-06
0.0001249945878
-6.29372923e-06
6.42606197e-06
-0.0001370477803
7.688264806e-06
-0.0001389494763
-7.611847535e-06
7.856203785e-06
-0.00013887509
-7.809736672e-06
0.0001388286229
-0.0001377967842
-3.896835293e-05
0.0001378509293
-3.929384738e-05
-0.000130566213
0.0001303675706
3.94924898e-05
-3.156904507e-05
3.118184602e-05
-0.0001311200507
-0.0001346390534
0.0001349195005
8.238976765e-06
6.18653957e-06
-0.0001354790896
-0.0001370325233
-6.540501159e-06
-3.222461343e-05
-0.0001110390056
0.0001130922428
3.017137621e-05
-2.5869202e-05
2.499156782e-05
-0.00011393678
-6.130001444e-05
-1.12816503e-05
-6.580525651e-05
6.016870568e-06
5.595978113e-05
-1.041003372e-05
1.06320447e-05
-6.602726749e-05
-1.051941221e-05
-6.59313972e-05
-1.616440619e-05
-8.511807689e-05
0.0001012824831
-6.821224977e-05
-9.8378643e-06
6.188570789e-05
0.0001268787625
-8.719254046e-06
-0.0001267703556
6.522429333e-06
-5.520941597e-06
0.0001258772748
0.0001234107179
8.741969799e-06
-1.027156876e-05
0.000170508026
-0.0001238206375
3.714217542e-06
0.0001098348512
7.207298151e-06
-0.00012463097
-0.000126817115
1.108679581e-05
-1.111817369e-05
0.0001268484928
-0.000125400938
0.0001254578506
1.124344074e-05
1.075752697e-05
-0.0001256477061
-0.0001202503891
4.025532842e-05
9.850578789e-05
-1.211783548e-05
1.135671574e-05
-0.0001194892693
-1.119682075e-05
-0.0001175269571
-0.000142915809
0.000141072095
3.211332801e-06
-4.840671073e-06
5.299176642e-06
-0.0001433743145
-0.0001431735628
-8.575707195e-06
1.091603435e-05
-0.0001106490746
0.0001083087474
-5.580711205e-06
-0.0001107004832
0.0001077054872
-9.673496436e-06
-0.0001158711382
0.0001138642546
-8.022165414e-06
-0.0001155155856
-4.876099201e-06
0.0001106956343
7.169132687e-06
-0.0001136049643
0.0001008551204
-0.0001476844011
0.0001548535338
-0.0001106465623
0.000110681445
1.434593801e-05
1.448291753e-05
-0.0001103732997
1.235019129e-05
-0.0001131505291
-1.288780589e-05
6.694705074e-07
0.0001234392563
-1.529466651e-05
3.976694577e-05
-0.0001390667425
0.0001145944632
-0.000134394873
0.0001243194817
3.033435524e-06
-1.715099167e-06
-0.0001353175422
5.746926756e-06
6.532325553e-06
-0.0001366994695
-6.341185321e-06
6.459469293e-05
-4.972866621e-05
-3.920979865e-07
-8.610437795e-05
8.164872264e-05
-8.798990796e-05
0.0001367842224
-6.288491608e-06
-0.0001365540093
3.870730991e-05
-1.461288673e-05
0.0001126897992
2.638953977e-06
1.412072807e-05
0.0001174350633
-0.0001333664622
0.0001213925294
-0.0001351196736
-1.239712567e-05
-5.886172655e-05
5.970120461e-05
1.155764762e-05
-1.319067264e-05
1.406396527e-05
-5.960677155e-05
-6.270750975e-05
-1.250098883e-05
-7.705181802e-06
1.158922081e-05
-8.626349461e-05
8.23794556e-05
5.089970807e-06
-8.487349726e-05
7.207834465e-05
-1.210667341e-05
1.187471612e-05
-8.836584391e-05
8.859780121e-05
-8.731628113e-05
8.679882852e-05
-8.04706252e-05
1.124182068e-05
8.04109415e-05
-1.30862814e-05
1.305137819e-05
-8.043572198e-05
-1.316758715e-05
-7.972720758e-05
-1.295752425e-05
1.288778678e-05
-8.172233015e-05
8.124320706e-05
-8.114935313e-05
8.131416559e-05
-9.795811626e-05
1.133475511e-05
9.764040837e-05
-1.354970828e-05
1.410327648e-05
-9.851168446e-05
-1.325787414e-05
-9.784367449e-05
-1.462774425e-05
1.475806664e-05
-0.000100664541
9.871015065e-05
-9.923461842e-05
9.726989031e-05
-7.747178293e-05
7.143907425e-06
6.676329772e-05
-1.306222145e-05
1.311211233e-05
-7.752167381e-05
-1.296595083e-05
-7.663519318e-05
-1.319328996e-05
-7.900873417e-05
7.823545082e-05
-7.831662845e-05
7.461101859e-05
-9.609855256e-05
1.081668336e-05
9.61724125e-05
-1.249464322e-05
1.267210384e-05
-9.627601318e-05
-1.227665983e-05
-9.555773945e-05
-1.294538865e-05
-9.710189037e-05
9.647323891e-05
-9.674652372e-05
9.646671011e-05
-1.222312171e-05
1.310113139e-05
-9.007073595e-05
8.919272627e-05
-8.895898343e-05
8.861057784e-05
-1.925801419e-05
3.776635691e-05
-9.313399559e-05
7.462565287e-05
-9.138759147e-05
8.523070867e-05
1.891413261e-05
0.0001264254603
-1.61449829e-05
0.0002019525486
-0.0001458314843
0.0001208289168
-0.0001470566067
0.0002048097064
1.081329248e-05
3.850531612e-06
4.968497883e-05
-7.980187084e-05
9.061516332e-05
-6.479244456e-05
-8.078462621e-05
8.41302154e-05
-1.064804776e-05
-4.738011089e-06
-6.539856736e-05
-6.424748267e-05
-1.02597187e-05
-1.042554471e-05
-7.663820866e-05
8.706375336e-05
-6.177090439e-05
4.660734859e-05
-0.0001169889225
0.0001145113749
-0.000155649338
0.000165171862
-0.0001388556005
0.000121462863
-2.412652824e-06
-0.0001405341366
-0.0001420808476
5.086606438e-06
-1.54853204e-05
-0.0001345804419
0.0001105647573
0.0001872931182
-0.0001311196054
0.000119186762
-1.092202745e-05
-4.215928632e-06
-6.793124756e-05
6.625359175e-05
-6.65435745e-05
5.719814455e-05
6.848562421e-05
-1.167284396e-05
-6.875313354e-05
1.151060927e-05
-1.123723484e-05
-3.763024526e-06
-5.297255952e-06
-6.736268363e-05
6.282207529e-05
-6.777721533e-05
5.826403075e-05
-8.455496885e-05
1.105844885e-05
8.423423678e-05
-1.213451444e-05
1.181474019e-05
-8.42351946e-05
-1.245153423e-05
-8.429598614e-05
-1.174010241e-05
-8.397003866e-05
8.39012432e-05
-8.382660542e-05
7.890829361e-05
-8.28886234e-05
1.119618142e-05
8.285212384e-05
-1.280820052e-05
1.272935296e-05
-8.280977583e-05
-8.217849102e-05
-1.257421183e-05
-8.397616348e-05
8.361509062e-05
-8.34599495e-05
8.374114176e-05
-0.0001025011272
0.0001017243401
1.228401244e-05
-1.245603011e-05
-0.0001031993052
1.31542081e-05
-1.184140706e-05
-0.0001034442497
-1.025614677e-05
-0.0001022828482
0.000101932425
0.0001011787504
0.0001420347049
-4.006627177e-05
-0.000110820885
-5.930358189e-06
0.0001479650631
6.094067846e-06
9.725267995e-05
-0.0001085634508
8.813750967e-05
4.318933219e-06
-0.0001044065167
9.266935225e-05
-0.0001349565173
0.0001392754505
-0.000105269666
9.774772491e-06
-1.389581593e-05
1.230836371e-05
-0.0001036822138
-0.0001024915922
-1.161108072e-05
-0.0001037759615
0.0001045747688
-0.0001038774858
4.040797519e-05
-1.757306039e-05
0.0001033209357
-0.0001284697053
0.0001633567389
-0.000126843444
-1.142728632e-05
0.0001747840252
-3.065148679e-06
7.857633711e-06
0.0001186182329
0.0001113848398
0.0001213080453
-0.0001233904022
8.351183451e-06
0.0001166710794
0.0001132716168
-9.707267131e-06
-0.0001200869491
9.458538053e-06
0.00012206544
-0.0001204159914
-7.555266723e-05
1.23401421e-05
7.558173726e-05
-1.319592052e-05
1.305500338e-05
-7.541175009e-05
-7.470902267e-05
-1.31614784e-05
-1.293882143e-05
-7.602626047e-05
7.60275841e-05
-7.591140215e-05
7.617249113e-05
-1.069275855e-05
7.579270493e-05
7.567429067e-05
7.044534547e-05
-1.155783547e-05
-7.071834241e-05
1.008442557e-05
-9.36401621e-06
6.97249361e-05
1.111309177e-05
7.005963165e-05
5.835709703e-06
6.05257284e-05
-7.010864174e-05
6.658033524e-05
-7.034081943e-05
3.62013485e-06
-7.361557418e-05
6.338768984e-05
1.658225477e-05
6.681218147e-05
-8.909361165e-05
0.0001056758664
-7.341647037e-05
-9.396063865e-05
1.075952906e-05
9.370861769e-05
-1.180487878e-05
1.200316971e-05
-9.415892957e-05
-1.173460997e-05
-9.392526694e-05
-1.214188808e-05
-9.524920731e-05
9.463282183e-05
-9.47715402e-05
9.465227092e-05
-9.452604755e-05
8.500862554e-06
8.456342137e-05
-1.110142002e-05
1.102792084e-05
-9.445254837e-05
-9.473300269e-05
-1.143169408e-05
-9.35863264e-05
9.315415743e-05
-9.355793068e-05
9.121414095e-05
-1.906216485e-05
4.033206128e-05
-0.0001168535154
9.558361896e-05
-0.0001129332244
0.0001047870939
-0.0001164969585
0.0001032121503
-7.366018743e-06
-0.0001171531051
-0.0001189095736
0.0001063389624
-1.151370812e-05
-0.0001073718768
9.992722757e-06
-9.562475565e-06
0.0001059087152
1.178223317e-05
0.0001054967782
8.773847037e-06
0.0001035711099
-0.0001057426124
0.0001049539839
-0.0001068800914
0.0001155242357
-1.332872494e-05
-0.0001137952568
8.515570132e-06
-4.067573559e-05
9.075866685e-06
1.959344821e-05
0.0001017088988
-0.0001131095152
9.20272278e-05
-0.0001122480811
-0.0001278564506
1.691931608e-05
0.000118251
-8.278548731e-06
9.935422125e-06
-0.000129513324
-6.028547694e-06
-0.000128444869
-9.584014459e-06
-0.0001332315758
8.001472705e-06
0.000132151398
-0.0001317999904
0.0001086090621
-1.717508627e-05
4.034224521e-05
-0.0001289570267
0.0001057898677
-0.0001249956807
0.0001156782281
-4.900567462e-06
-0.0001296550876
0.0001667842954
-0.0001313426177
0.0001791772551
-0.0001398812957
0.0001268463866
2.304676289e-05
-2.524989983e-06
1.315375329e-06
-2.374419227e-08
2.26786079e-05
-7.848713485e-07
1.681900343e-05
1.167924858e-05
-5.232895988e-06
-1.94644934e-05
0
-1.872630312e-08
5.598867269e-09
1.3696685e-05
-5.43443844e-06
4.094689727e-06
9.242516197e-06
-2.12967638e-06
-7.036424347e-06
0
0
0
1.854452684e-06
-7.564661754e-07
0
3.314139978e-08
0
-2.104028309e-08
0
0
0
0
0
0
0
0
0
0
0
0
0
0
0
0
0
0
0
0
0
6.149485027e-05
-7.053489107e-06
6.33053784e-06
-3.89360822e-06
6.155041501e-05