/*--------------------------------*- C++ -*----------------------------------*\
| =========                 |                                                 |
| \\      /  F ield         | OpenFOAM: The Open Source CFD Toolbox           |
|  \\    /   O peration     | Version:  v2012                                 |
|   \\  /    A nd           | Website:  www.openfoam.com                      |
|    \\/     M anipulation  |                                                 |
\*---------------------------------------------------------------------------*/
FoamFile
{
    version     2.0;
    format      ascii;
    class       volScalarField;
    location    "1";
    object      nut;
}
// * * * * * * * * * * * * * * * * * * * * * * * * * * * * * * * * * * * * * //

dimensions      [0 2 -1 0 0 0 0];


internalField   nonuniform List<scalar> 
3259
(
1.109387541
1.149239065
1.156513085
1.156366514
1.156223655
1.156134883
1.156070056
1.156046543
1.155824144
1.155840278
1.155865558
1.155893069
1.023633934
1.039172536
1.149017404
1.157065492
1.156332665
1.155813775
1.155404589
1.155235721
1.154959612
1.155003585
1.15507745
1.155156622
0.8044795223
0.8257341387
0.9178905948
1.092585158
1.157004024
1.155827035
1.154938819
1.154530859
1.154141885
1.15416395
1.154272376
1.154406586
0.5507319139
0.5715114056
0.653072546
0.8014967741
1.036809609
1.15652587
1.154862725
1.154028975
1.153377866
1.153359122
1.153477248
1.153654296
0.3293962561
0.3516414588
0.4321508076
0.5673210085
0.7729456905
1.081774137
1.155375999
1.15381233
1.152739811
1.152574492
1.152671212
1.152877295
0.1646950906
0.1923500331
0.2738056569
0.4000383671
0.584984801
0.8589790387
1.156603195
1.153951364
1.152264001
1.151844045
1.151874308
1.152088427
0.0602059575
0.09455509194
0.1759654136
0.2932558893
0.4614323906
0.7005615444
1.080459788
1.154526184
1.151908335
1.151153547
1.151067221
1.151270471
0.05347357507
0.1314734532
0.2360198044
0.3887557378
0.6080787564
0.9586184526
1.155492828
1.151742195
1.150553102
1.150288894
1.150456567
0.06414848456
0.1273504422
0.217876323
0.3560838537
0.5564357864
0.8822174638
1.156745367
1.151765398
1.150051588
1.149569794
1.149680623
0.08930471486
0.1436901589
0.2260747948
0.3547589062
0.5402193233
0.8421304587
1.15818981
1.152019748
1.14973345
1.148985618
1.149021201
0.1213175161
0.1729609375
0.2533302475
0.3766251268
0.5520177162
0.8335447093
1.1592797
1.15247201
1.14959646
1.148583067
1.14853044
0.1580115898
0.214312396
0.298374336
0.4220069369
0.5890420156
0.8524903633
1.150364639
1.153161481
1.149701281
1.148408226
1.14826538
0.05711016954
0.04628981619
0.08166747054
0.05999296529
0.1145473171
0.08552980919
0.144879584
0.1194018746
0.1487265355
0.06052225127
0.04785352977
0.08968415013
0.02916915751
0.01986628084
0.06169855058
0.1079236134
0.1113095379
0.03480828093
0.04944969237
0.08593952393
0.1230271238
0.110126905
0.06032659532
0.04334222814
0.1172280443
0.1505394052
0.1288681211
0.1095949402
0.08148821929
0.02045813082
0.1360404618
0.1311380128
0.04818382024
0.03039390868
0.04928847418
0.03223499482
0.04676142833
0.04291301981
0.03463878014
0.07134876691
0.05056423874
0.05733945911
0.04800869191
0.0507912848
0.06988802591
0.07773484366
0.06176880802
0.1021571693
0.08306500929
0.1058123393
0.05789705692
0.08013014234
0.09780602203
0.1302077479
0.1139197777
0.01438149228
0.01283259715
0.1377106928
0.02318310471
0.0181438919
0.008530959983
0.009194665069
0.1510311882
0.1869321739
0.158796298
0.01037968811
0.06675955947
0.05807954159
0.02276385813
0.03054789516
0.04781056061
0.05629702372
0.04050811678
0.1337992257
0.1243794311
0.1322901501
0.1094664015
0.1231813695
0.1306308537
0.0238660025
0.02008747663
0.03123288524
0.02272180411
0.01776274241
0.02332547634
0.02127600023
0.0101692512
0.01696938915
0.02206917894
0.04395835638
0.04463946275
0.05196189809
0.05076956157
0.02034938469
0.01019373731
0.09713876816
0.01713627646
0.03152799805
0.009454505372
0.01451241259
0.09301940352
0.08443503808
0.07129255
0.01037074722
0.03873599898
0.03811654883
0.04103196443
0.04070527075
0.05445934741
0.06842427322
0.06399291347
0.07488683469
0.06998276036
0.05479128435
0.05786548403
0.05633792937
0.05128415738
0.06229432093
0.05773478501
0.0592282295
0.07343676335
0.009263980046
0.07200941684
0.0336645694
0.0498520979
0.1263476882
0.03770104865
0.02190082802
0.006872618026
0.08901617208
0.003469184606
0.02128548579
0.01585546483
0.005985309684
0.01393541034
0.010851696
0.009868993607
0.008793496863
0.0130593559
0.009196716543
0.03749106143
0.01610564117
0.01508726369
0.04767532169
0.056286906
0.01674688173
0.02290323678
0.01074512742
0.0107942779
0.04531466464
0.04497781495
0.01826119195
0.01623565718
0.03767118267
0.04335926581
0.03916821875
0.04969614876
0.04483849179
0.03900034225
0.04196361139
0.0110865575
0.01079820059
0.03619669262
0.02430545576
0.02657880858
0.06578709148
0.09216575643
0.1022205927
0.0945262797
0.06477584079
0.08245016998
0.0767623232
0.09172414253
0.08469546083
0.06600372334
0.1290987664
0.05244022288
0.07062770852
0.01082286587
0.01222886369
0.006299176486
0.01198401921
0.009288767084
0.009139948438
0.03122175033
0.02387088025
0.006756945053
0.01122922219
0.007357555689
0.01172562632
0.01091015793
0.01452177183
0.04759969394
0.01010181558
0.009577210033
0.01758537474
0.02170810419
0.01845176238
0.02994015662
0.0230990699
0.01806238296
0.0162355317
0.01259594079
0.01385972166
0.01085529108
0.03961820581
0.04693593114
0.01481100965
0.01396087363
0.01564627019
0.0162150961
0.05490425603
0.009917946308
0.0100939223
0.01307091902
0.01010496798
0.0101642104
0.04660218662
0.01039800791
0.01532445186
0.01387446021
0.01249903629
0.02269071677
0.05899129861
0.0535647692
0.01144202717
0.04400208362
0.03766786703
0.05158388938
0.04624923917
0.01198494158
0.01195912826
0.04116298844
0.03407125971
0.02543902856
0.02414806745
0.04363095555
0.01742233953
0.01755414218
0.01386723671
0.02529180731
0.02983206403
0.01826337777
0.02552100251
0.03438962758
0.03475560761
0.02666621644
0.01154810974
0.01120453788
0.04169947582
0.03772337643
0.01125001863
0.01168265426
0.02748561019
0.02325169444
0.03582935907
0.02980933411
0.007455936486
0.01477944859
0.01382714542
0.02170541032
0.01527449741
0.006530487622
0.03093988032
0.009484936217
0.01001636025
0.009462757011
0.02871386483
0.01028240963
0.05501710166
0.1172397081
0.1524825811
0.01000303007
0.009961660199
0.19799516
0.006666254245
0.1366014857
0.1423286431
0.1593066124
0.004903144277
0.007717635315
0.005705581046
0.004901454573
0.005927739845
0.004634276996
0.0589051148
0.03688468523
0.02310258271
0.02605007115
0.02320730303
0.02713051489
0.05051784617
0.04368090639
0.01337899648
0.07499435285
0.08808333712
0.1338134521
0.0286909714
0.03423612115
0.03303433882
0.01080010988
0.01168757572
0.01055667509
0.01050346149
0.05245774499
0.01542799395
0.009459094673
0.01198428305
0.01113900109
0.01035525444
0.02607348442
0.03249882696
0.06630386915
0.03784847872
0.03460124574
0.02547470467
0.04989907588
0.01692759896
0.02360763163
0.02395997699
0.01513233536
0.01029151941
0.02079536351
0.01987425878
0.01816689933
0.01693687184
0.020621404
0.01860727262
0.01096251686
0.01172819016
0.00670941525
0.009269546708
0.01116180669
0.06652486611
0.0607819043
0.02468763339
0.009236115412
0.01504044195
0.01352721442
0.01090647986
0.01558404333
0.01363986997
0.009353750459
0.009397632914
0.01307664596
0.01243528254
0.009284283293
0.009304085164
0.008045775454
0.06719273189
0.0276687232
0.03407245061
0.01034629961
0.01015483289
0.01018095949
0.01074216646
0.01120381627
0.01754106543
0.006525267364
0.004209965736
0.007882357624
0.01233739692
0.009788443891
0.01039659209
0.009747395929
0.009974351064
0.01119460337
0.01038202705
0.006877697531
0.005356709533
0.01386169642
0.01427918326
0.01340585671
0.01353148378
0.01563877527
0.0238830742
0.02421326962
0.02343019025
0.02371679399
0.01549513983
0.0106253054
0.01841070857
0.01837500762
0.01902756288
0.01855480773
0.01044119769
0.01734349444
0.02677311608
0.02971212126
0.02451273039
0.02529604111
0.01681650557
0.01105172055
0.01836174967
0.0183453481
0.01832349939
0.01835909345
0.01089710983
0.0129170375
0.01318452164
0.01244001228
0.01309075121
0.01054026529
0.007129221906
0.01049249041
0.0109739647
0.007073525915
0.01019542132
0.009733072816
0.01515118808
0.004135262988
0.009156525959
0.007133994526
0.005593193024
0.006839032457
0.009282530757
0.00699757874
0.01016424144
0.01074310278
0.01029556325
0.008493285423
0.00980779149
0.006558173566
0.009827311419
0.02183460546
0.02136557034
0.02172769677
0.02701821497
0.02708968899
0.0211969148
0.01974490303
0.02108561999
0.01321921244
0.02115945026
0.02245690847
0.01532413572
0.02122825398
0.01406911301
0.01451990786
0.02297888332
0.02325335235
0.02247094764
0.02285482099
0.0143190725
0.01582369947
0.0275423979
0.02705949701
0.01001005986
0.01005234751
0.01137051366
0.009294956679
0.009571785925
0.009806727693
0.01006721747
0.00970465256
0.01240489081
0.02275984108
0.02037029685
0.02631116697
0.02495254769
0.01438254746
0.009265254917
0.01016254528
0.01632635262
0.006568001958
0.009362525199
0.009341198123
0.0119951391
0.009286401244
0.009500596966
0.01976529683
0.01756683049
0.0101873184
0.02536830606
0.03619661875
0.03672482256
0.03296805669
0.03407028269
0.02392606109
0.01656529079
0.01777248036
0.02693573344
0.01924392392
0.01831987038
0.02043783742
0.01943380466
0.02733692932
0.01873516271
0.01941230284
0.01547232867
0.0200491282
0.01142299926
0.01837572014
0.018388012
0.0183799381
0.01839665855
0.01137432264
0.01172350794
0.0170265986
0.01477855147
0.01828364942
0.0179538979
0.01172073804
0.009308196308
0.009552969486
0.009140529378
0.01183916509
0.01042823754
0.01441726905
0.009608256843
0.009540188968
0.009607990898
0.009604812356
0.01423462149
0.0194203739
0.01075163266
0.01234999538
0.009722980753
0.009478489523
0.01680599573
0.009706862843
0.01207561406
0.01154416214
0.01556135947
0.01321242446
0.009670556648
0.009371235486
0.009580350587
0.01089807331
0.01016231425
0.00650367031
0.01051520965
0.8715218267
1.026690325
0.8669031827
0.8766626081
1.033077057
0.8868436894
0.9560332244
1.132665498
0.9822139083
1.116854147
1.15726991
1.158150901
1.157054779
1.156489354
1.156749556
1.155960809
1.155921924
0.617489631
0.8096945481
0.6129585001
0.6226754832
0.8145675393
0.6338268431
0.6904118477
0.889653906
0.7169670802
0.8248536925
1.042787376
0.8708559023
1.046138514
1.157386244
1.115385389
1.156684757
1.156063321
0.3844314879
0.5551847819
0.3798842762
0.3901732145
0.5604201502
0.4014354917
0.4561527903
0.6270854669
0.4811619172
0.5790772445
0.7572328176
0.6189743196
0.7717053742
0.9702267929
0.8326035153
1.045649505
1.157043339
0.2047682619
0.3339876987
0.2002849313
0.2137259452
0.340082425
0.2261442332
0.2830975023
0.407206415
0.30732375
0.3992068384
0.5272880765
0.4365230866
0.5708962035
0.7144392521
0.6250235163
0.8220796772
0.9824798676
0.07240351239
0.1694139136
0.07228392692
0.100441536
0.1790077039
0.1135743254
0.1714692399
0.249502473
0.1950890527
0.2806367057
0.363378336
0.3148279321
0.4381600217
0.532088549
0.4873727428
0.6650595659
0.7778410651
0.02939172123
0.03822841374
0.06455290387
0.0726327668
0.0963126138
0.1127899764
0.1381321259
0.2152677676
0.2594141808
0.2461897831
0.3580072031
0.4134112903
0.4027392931
0.5635772446
0.6336435779
0.05404159808
0.07695628127
0.07997312635
0.1259506258
0.1920554173
0.205992708
0.2194326933
0.3202509713
0.3450638908
0.3609096594
0.5083134495
0.5459236182
0.07335186612
0.09000789446
0.0838398083
0.1382992507
0.1969382716
0.1912461817
0.221277157
0.3148468634
0.3162535457
0.3531735986
0.4911843989
0.5002712311
0.1008612396
0.1161323252
0.105735868
0.1646363907
0.2209876573
0.2016313307
0.244659615
0.3330546088
0.317529134
0.3689495904
0.4973509971
0.4893048662
0.1336359597
0.1503326367
0.1370864823
0.2026267594
0.2612758549
0.229623867
0.2855183552
0.3733905201
0.3411699173
0.40829312
0.5297415716
0.5038877635
0.1656475679
0.1828615256
0.1714657413
0.2739323879
0.3870031264
0.5431738576
0.05413430836
0.04779703445
0.05220957194
0.03872252997
0.03870493365
0.04587170826
0.07837766066
0.07332696145
0.07839533704
0.05377558022
0.05934474101
0.06228957894
0.1105815757
0.1079806828
0.112442949
0.08054680319
0.08538763491
0.08943712959
0.1418250969
0.13811515
0.1404279086
0.116315315
0.1204283839
0.1235098233
0.1427059138
0.1451870335
0.1514257308
0.003052417286
0.003729100406
0.003559450076
0.03133672113
0.003089399549
0.002791835975
0.05026944187
0.04259826328
0.03954646435
0.06918558085
0.04310180502
0.06471529782
0.02837934133
0.02760483681
0.02840322663
0.01712363237
0.01728906849
0.0200774343
0.08112567097
0.0782184238
0.05530921634
0.1071328911
0.0908591623
0.09253671329
0.09310197887
0.09098960869
0.1081198366
0.03519915632
0.0220928537
0.02189378637
0.03600802703
0.03527911503
0.04962972665
0.1017569138
0.0933610247
0.07532416566
0.1178730096
0.1047760121
0.1104884557
0.09565684451
0.09983679564
0.113518703
0.05890915521
0.04622832169
0.04787498713
0.03041102408
0.03062033447
0.04380254651
0.1325473429
0.1204674312
0.1049069651
0.142733694
0.1315204159
0.1394904268
0.1170417233
0.1240024986
0.135502225
0.1054948044
0.0788505012
0.08305180184
0.0507502644
0.05586380723
0.08517002231
0.03072800166
0.02824191721
0.0178345601
0.1346214595
0.09275436397
0.1065318707
0.1228831225
0.1271495589
0.1307739479
0.04724053014
0.03815734207
0.03677607012
0.02943616974
0.03027824027
0.0310532497
0.04224385538
0.04620449935
0.05164292562
0.03397858549
0.03553641812
0.0337880183
0.04638835692
0.04472881707
0.04369207794
0.04257536102
0.03011240987
0.03020726931
0.02182539682
0.02180848802
0.03470865634
0.06660345873
0.07068285633
0.07934924413
0.05142653667
0.06606976626
0.06073931692
0.07515207554
0.0733972741
0.05601355256
0.05215071783
0.05000838212
0.04814624403
0.06001158956
0.05670047556
0.05337719352
0.06268842139
0.06013228588
0.06468712457
0.07424145354
0.04344086901
0.04900945656
0.04933846706
0.05059590466
0.06309189122
0.09780687234
0.1038860601
0.1065372751
0.08589407909
0.09662060985
0.09404876661
0.1101163512
0.1049448162
0.09559519696
0.06010566054
0.07872977305
0.07693580013
0.09138232513
0.08780810696
0.07089263466
0.09352090873
0.08822823589
0.09414733169
0.130452728
0.1139172141
0.1183149538
0.0871012799
0.09136603874
0.1180311753
0.1113298712
0.03346609553
0.007390056806
0.009422608084
0.00900533436
0.1609595116
0.1580363763
0.1375171175
0.1767786986
0.1654393438
0.1751338373
0.1477991839
0.1561644736
0.1676560206
0.06257616849
0.03497208563
0.04221022087
0.04828941027
0.04982373467
0.06049880282
0.02439220788
0.03331703858
0.03334291222
0.0321422858
0.03074129803
0.0288243324
0.04637263181
0.03901437224
0.04057472394
0.05409642965
0.04343090536
0.04556624837
0.02855217272
0.03089587116
0.04268459158
0.1319542944
0.1355053464
0.1375023697
0.1290609374
0.1300279628
0.1311240204
0.1371144886
0.1338200097
0.1328895341
0.1173883259
0.1186549777
0.1140270499
0.1270129264
0.1209206272
0.1188627884
0.1271352212
0.1244382317
0.1279711943
0.0127174017
0.02097213335
0.01789372251
0.01717195412
0.0281703259
0.01751544087
0.02680699454
0.01229858013
0.01546724864
0.02515494367
0.02011581891
0.02238662193
0.02487214295
0.01119221402
0.01562077486
0.01397092183
0.01646962212
0.01500873706
0.01556246549
0.02072806056
0.01839754816
0.0194519784
0.03214234956
0.03092373496
0.04290938834
0.04543939664
0.03303417514
0.03235155107
0.03960038951
0.04037286145
0.05285895341
0.04955008584
0.03719715011
0.03859844294
0.07101527405
0.07492716656
0.1012080924
0.01942314819
0.03048022388
0.02808376641
0.04405998876
0.04210147231
0.0294573372
0.02565674802
0.02381139926
0.01301506885
0.08924883701
0.05790628534
0.06101868535
0.07996530921
0.05970492022
0.06406969077
0.04502629729
0.05014582941
0.07545213595
0.03887619269
0.04091654245
0.04026750774
0.03737574482
0.03623587581
0.03725177284
0.0297338888
0.02977815138
0.04125332268
0.04015345247
0.0290561401
0.0295489483
0.06789339502
0.06606074889
0.05236894804
0.06714693586
0.06573983896
0.06743984385
0.06186900919
0.06249936083
0.06558313358
0.0732817824
0.07197456184
0.07361812661
0.06882769136
0.07035770745
0.07159171218
0.05565157834
0.07163667242
0.06985069503
0.05383577159
0.05188143689
0.05355935651
0.05465721076
0.05289671013
0.05460714398
0.04946383814
0.05118116017
0.05298412278
0.0608499122
0.06026087605
0.06100533339
0.05614470849
0.05832244361
0.0592766433
0.05494768371
0.0570463011
0.05582800554
0.03609479743
0.04129825206
0.0813693561
0.07025888358
0.05756826607
0.05899426604
0.0408268408
0.06769816333
0.06790984775
0.07581197593
0.07179102909
0.04320420079
0.1223391545
0.09580049063
0.1002507303
0.03535499804
0.02351367238
0.02597812049
0.01218613013
0.0134917333
0.02390785438
0.06861887532
0.01917749453
0.01148018626
0.01243183448
0.01140569325
0.00867803647
0.005932276898
0.009876793902
0.01361432926
0.007291943912
0.008975313643
0.009132488128
0.007770650834
0.007377844236
0.01121398925
0.007982864884
0.01100624761
0.005804446994
0.006880627128
0.009896229183
0.02406682047
0.0226834355
0.03601754896
0.04869655873
0.03482152552
0.03421462914
0.04310432407
0.04457373415
0.05747235077
0.01823045304
0.03106430843
0.02947839894
0.03534135566
0.03321524532
0.02074119951
0.04445922657
0.03106044286
0.0318039174
0.04315265257
0.04017050249
0.0462539258
0.03987974647
0.03736528284
0.03575809937
0.04190903766
0.03921015954
0.04084642329
0.03604821662
0.03759847336
0.04058813415
0.04808148808
0.04608964104
0.04778850538
0.04247281303
0.04430307417
0.04650924536
0.04252555348
0.04307416778
0.0415510119
0.02991997624
0.02999588183
0.04224450124
0.03511310666
0.02219238261
0.02335881755
0.02516291637
0.03826670297
0.03703137464
0.04048641831
0.03940879418
0.02586140141
0.06443009861
0.05183101162
0.05302167218
0.1015514589
0.09912739191
0.08901952957
0.09984983002
0.09785758342
0.1005338302
0.0924211019
0.09513434379
0.09699707732
0.08211781012
0.08045329485
0.0612382016
0.08056385336
0.07890626124
0.08076554602
0.07533568604
0.07710334368
0.07853943949
0.08936835146
0.08721925163
0.0897691977
0.08275554166
0.08496963583
0.08682686498
0.0690111195
0.08582257084
0.08390562758
0.1048094875
0.1093083128
0.1293067979
0.05692890329
0.08432490803
0.08016306452
0.09327291662
0.08872313251
0.06651465129
0.01046123919
0.01035272839
0.01269326181
0.02897904953
0.01842496742
0.02058921595
0.01418197712
0.01637119092
0.02641831153
0.007464604595
0.01145074288
0.0200465164
0.01797392222
0.02477499854
0.02227096373
0.01265102884
0.04558740564
0.03339369037
0.03593764846
0.02029843009
0.02044005883
0.02322519666
0.01730283415
0.01893054846
0.01942346902
0.02484034214
0.02692635937
0.02496173945
0.01716529731
0.01542070373
0.01644052168
0.01469734174
0.01489991444
0.01647870382
0.0140294633
0.01363442043
0.01302239333
0.0414652019
0.02982700367
0.02690544825
0.03386436431
0.03329504074
0.04605913597
0.0285762842
0.02799079651
0.01594929792
0.05398976182
0.04114528743
0.042002322
0.03332598881
0.03528915247
0.0480208517
0.03472578993
0.03275803238
0.02117604948
0.05724605219
0.04579231053
0.04777349978
0.04114708979
0.043500175
0.05533800021
0.04196294458
0.02867645746
0.03094723401
0.02455753616
0.02631734212
0.03958132547
0.04998692008
0.03665497842
0.0387426647
0.03302679025
0.03474488818
0.0478276116
0.0125836379
0.02249738028
0.02128617416
0.0198974354
0.01759215177
0.01105989225
0.03922150077
0.02824822768
0.03074213084
0.02328813979
0.0257679195
0.03620290496
0.04195554315
0.04279343534
0.04486172422
0.03381479321
0.03526590559
0.03524414193
0.03154745111
0.03604232707
0.03451495601
0.03907145915
0.03732314871
0.02796343215
0.04147984769
0.02983045333
0.02985928629
0.02571840052
0.02788925544
0.03916008689
0.02568229436
0.01410251178
0.01571875833
0.01298530006
0.01366793989
0.02442724899
0.03414731175
0.02207343828
0.02325886922
0.01828309568
0.02051783402
0.03212745865
0.01984908414
0.0214363592
0.03293851393
0.02632778514
0.01579585098
0.01806167611
0.08211970896
0.08695190175
0.068052659
0.1256285158
0.1058403405
0.0964948518
0.1314121844
0.1167106068
0.1374724619
0.1845807519
0.194748768
0.2102992243
0.1328584631
0.1430429713
0.1398108186
0.1473879812
0.1452562752
0.1391897798
0.005633274553
0.004025183316
0.003736052023
0.006824124701
0.00572185689
0.006350756185
0.004336502265
0.004444504039
0.006540537153
0.004203848133
0.003800284356
0.003183073392
0.005139433472
0.003941958502
0.005101137621
0.00364072485
0.00368384586
0.004659663952
0.0315352469
0.03862124492
0.04345864774
0.03373858963
0.03415441392
0.02918099314
0.02597548054
0.02665773414
0.02678122253
0.02424166855
0.02588884626
0.02522947105
0.02739129992
0.02634649889
0.02558264177
0.04816737516
0.03840132422
0.04071459554
0.03330233894
0.03583346467
0.04586754812
0.01541110651
0.02543004977
0.02265876652
0.07913115059
0.102444707
0.09785225057
0.1117223978
0.1071887482
0.08361795765
0.03022058036
0.02970488128
0.0284744474
0.03273180411
0.03102011105
0.03201587183
0.03231130932
0.03135541687
0.03250170142
0.04339285277
0.02813812839
0.03896080591
0.03706115454
0.04362867228
0.04178444829
0.03021754084
0.06192789341
0.05320727444
0.05294507149
0.03656105899
0.03329446232
0.0346015699
0.02673441163
0.029348553
0.02827244012
0.038517864
0.0408863229
0.05203819627
0.01894303635
0.02961912055
0.0273621439
0.03432254465
0.03210212417
0.02123726692
0.02080036686
0.01897500443
0.02235129762
0.01343865281
0.01619955145
0.01783213646
0.01414474633
0.01508208479
0.01195328248
0.06435452529
0.05425004019
0.05560224637
0.05001290813
0.05184512695
0.06267372953
0.02697548506
0.03936187479
0.0371251182
0.05442266531
0.05582271636
0.06874475968
0.02936772708
0.04355058756
0.04191648987
0.04736952588
0.04562941834
0.03176558784
0.009626885199
0.008546476267
0.01005515609
0.006056027787
0.007169626394
0.008005478172
0.006276388188
0.006537963256
0.00530478755
1.073192407
1.07867173
1.115185122
1.108519577
1.157485466
1.156619805
1.157250183
1.156927327
1.156443323
1.156647559
1.156409026
1.156289938
1.156204743
1.156038111
1.156170346
1.155900651
1.15580344
1.156094428
1.155722366
1.15566671
1.156054242
0.9790487571
0.9734655598
1.019513533
0.992666339
1.025806656
1.069831976
1.096397823
1.158157473
1.157733247
1.157350564
1.157079289
1.156853809
1.156424052
1.156218324
1.15617821
1.155768803
1.155336369
1.155526779
1.155130695
1.154976269
1.155303165
1.1548668
1.154811484
1.155201231
0.740974085
0.7398202755
0.8032042839
0.7621426654
0.778455666
0.8432498975
0.8507744065
0.8854060319
0.955291005
1.017995421
1.076951816
1.152810958
1.157347577
1.156920786
1.156655019
1.156253161
1.155310561
1.155279868
1.154830504
1.154495755
1.154699935
1.154257496
1.15412059
1.154425624
0.4908439708
0.4900074261
0.5499025332
0.5117150642
0.5264003899
0.5863864202
0.5921692399
0.6217053185
0.6833273952
0.7363601983
0.7850398046
0.8515362784
0.9635816782
1.03742812
1.108657985
1.12351118
1.15591019
1.155545604
1.155017943
1.15435779
1.154375531
1.153891816
1.153601171
1.153796997
0.2823322583
0.2821778193
0.3288190525
0.3061877397
0.3214477678
0.3669336071
0.3864337494
0.4146841302
0.4606740784
0.5206533443
0.56303406
0.6122517496
0.7189445742
0.7818435779
0.8369235132
0.8939076997
1.149279613
1.156625118
1.155864659
1.154689105
1.15445248
1.153848029
1.153271182
1.153394631
0.1330295998
0.1333170267
0.1647320395
0.1624056106
0.178863955
0.2090180014
0.2441905972
0.2710254737
0.3012914178
0.3680341237
0.4072458826
0.4397442277
0.5493073617
0.6063266622
0.6442893525
0.724387069
0.9638826492
1.048554733
1.157428739
1.155596851
1.155048062
1.154200124
1.153198595
1.153181018
0.0486391977
0.04891605897
0.06012152277
0.1600904987
0.1850460357
0.2015387959
0.274847982
0.3101729372
0.3296687532
0.4388098025
0.4900616203
0.5139984621
0.6232098597
0.8331316396
0.8940986011
1.012412077
1.157015618
1.156203657
1.154961653
1.153447388
1.153242463
0.05321177741
0.06118291259
0.06177559698
0.1276118914
0.1490967001
0.1539332703
0.2283535335
0.2604499631
0.268983119
0.377255554
0.4240931511
0.4366470929
0.5648582843
0.7451263005
0.7826738196
0.9159643524
1.112480384
1.157801802
1.156069657
1.153994505
1.153648835
0.06733838314
0.07274848005
0.07012062748
0.1300015936
0.1482051664
0.146200628
0.2178366272
0.2468591607
0.2474563174
0.3529429569
0.3959238534
0.3999631746
0.5443948516
0.7023202941
0.7187633603
0.8578947216
1.039610786
1.071628138
1.157394928
1.154807662
1.154345882
0.09297787523
0.09693599461
0.09345834268
0.1499351322
0.1668577977
0.1608059341
0.2313870824
0.2584614902
0.2533970772
0.3577929306
0.3982847055
0.3960119784
0.5449786182
0.6923248329
0.6939779154
0.834150185
0.9980526095
1.015526866
1.158868083
1.155844745
1.15529529
0.1254830461
0.1300993652
0.1259134735
0.1820367015
0.1989369163
0.1898251144
0.2625154646
0.289150089
0.2796063943
0.3860918563
0.424747238
0.4157481173
0.5725988928
0.7101337956
0.6981153786
0.8398731403
0.9858624564
0.9890507214
1.139650213
1.157044465
1.156442539
0.1577166306
0.1654576599
0.1604542674
0.227228191
0.2456587406
0.2321987217
0.313189502
0.3402323589
0.3255214513
0.4365030319
0.4740677034
0.4597886422
0.7275633603
0.9912884881
1.157696546
0.04999976411
0.06794901681
0.06586083018
0.05926122014
0.09035788775
0.08748338734
0.08238958354
0.1214368716
0.1173404332
0.1132237421
0.13518796
0.1347845977
0.1315276806
0.04560255285
0.04493242591
0.04573904348
0.05051176249
0.06801808768
0.06738078993
0.07193645192
0.07141712518
0.05685660311
0.04942535143
0.04777297046
0.04690768155
0.06644962015
0.06578532822
0.05130547139
0.1097152025
0.1077695045
0.1022959624
0.05849949339
0.07311475398
0.07247153571
0.1354254655
0.156702713
0.152593771
0.1504186562
0.023005092
0.02642005698
0.02648899124
0.1262984137
0.1265238774
0.1251758472
0.1366823201
0.1347828908
0.1346464984
0.1130607369
0.1137243744
0.1120814356
0.1234434743
0.1225100814
0.1217496918
0.02544715704
0.02176284908
0.01958513492
0.01938727667
0.01930994796
0.0227330429
0.009989979422
0.01151497792
0.01167025328
0.06939033636
0.06922669832
0.05400882604
0.05505148825
0.06974680731
0.06961223151
0.05501801432
0.0540624183
0.05651307118
0.05799578181
0.0577361071
0.05672577825
0.06089718034
0.06198762339
0.07536179851
0.03592696852
0.0484812321
0.04667866002
0.06060276217
0.05854829421
0.04779419815
0.03742349365
0.03629414775
0.03625708901
0.04012567582
0.04028825153
0.03953283346
0.07863368872
0.07756370193
0.06369387914
0.06689983048
0.08076183252
0.07963126014
0.05396789095
0.06467184982
0.06235149728
0.06355567923
0.06535624288
0.0575488901
0.1343823944
0.1401411672
0.1380636105
0.1555754657
0.148793279
0.1529677884
0.0505126698
0.04600309175
0.05420448832
0.02676963627
0.02726029026
0.02406317772
0.1319633942
0.1299134022
0.131071834
0.03133176296
0.03222483816
0.03580740097
0.0118871604
0.01224931415
0.01116089685
0.9288083039
0.9795506499
0.8645650622
0.9220421889
0.9263628603
0.936175604
0.9233644097
0.8671536093
1.021108698
0.9742255654
0.9895097419
0.9070720406
0.9695847003
0.9430148835
1.022559171
0.982306116
0.9250937576
1.082743842
1.033545793
1.084557206
1.025082071
1.097291346
1.041353023
1.158042637
1.123428405
1.060842553
1.157484956
1.157911981
1.157603627
1.157787227
1.157370413
1.157727462
1.156804026
1.157097894
1.157396771
1.156672421
1.156857811
1.156614874
1.156452828
1.156309096
1.156559457
1.155904729
1.156104869
1.156196431
1.156047947
1.156057941
1.155890914
0.6813934722
0.745882207
0.6120799361
0.6757122997
0.6767214426
0.686423389
0.6788801166
0.6152637541
0.8065145772
0.7430295349
0.7507844521
0.6489142947
0.7132895619
0.697697902
0.75600508
0.7323023966
0.6675664725
0.862732847
0.7978400527
0.822819348
0.7482368617
0.8159148529
0.7832349524
0.8957338226
0.852455382
0.7836647464
0.9933556032
0.9230434929
0.9688789879
0.9232445457
0.998721702
0.9434094441
1.122848353
1.058053714
0.9807636342
1.157827741
1.134582463
1.15781808
1.157710534
1.157283579
1.157785154
1.156419421
1.156822246
1.15716415
1.156341629
1.156545596
1.156213134
0.4381951214
0.4952857132
0.3791119326
0.432930339
0.4337387467
0.443606474
0.4361224687
0.3824983944
0.5530570895
0.4931863502
0.5006109864
0.4161487009
0.4695838496
0.4547839414
0.5094904654
0.4877935623
0.4344139029
0.6048094024
0.5446411425
0.5665861064
0.5097340549
0.5636779073
0.5347156549
0.6343802585
0.5965920126
0.5424529582
0.7177564988
0.6552649273
0.693390369
0.6643066556
0.7236928269
0.6774748023
0.8313123283
0.7741294917
0.7143497081
0.9075517609
0.8390621621
0.8972775942
0.8980722753
0.965433651
0.8965580193
1.118967596
1.039923296
0.9705265101
1.157596378
1.11071605
1.157462401
0.2441403277
0.2872871713
0.2002121338
0.2392565225
0.2391067905
0.2519542687
0.2439071004
0.2048005917
0.3323356342
0.2864098359
0.29434311
0.2418110664
0.2798396107
0.2641840441
0.3202028507
0.2983959702
0.2610740398
0.38549391
0.3398667344
0.3614616236
0.3347756069
0.3723925954
0.3450033746
0.4380830471
0.4032729164
0.365618441
0.4925895923
0.445525452
0.480225309
0.4760535385
0.517751827
0.4766332445
0.6136593447
0.563516912
0.521717552
0.6595204044
0.6090828464
0.6618420423
0.6855013848
0.7314271551
0.6693485064
0.8705380537
0.7981229636
0.7512514547
0.9069903857
0.8500932978
0.9234610287
0.1088682205
0.1355844542
0.07700551726
0.105365058
0.1032444672
0.1215125993
0.1122781841
0.08855602142
0.1696972952
0.1385857251
0.1489826768
0.1295874633
0.1531112607
0.135633257
0.1938114128
0.1721256015
0.1498183665
0.2281096305
0.1980389697
0.2197733518
0.2211715368
0.2442040302
0.2177496884
0.3049359526
0.2728251494
0.2495320943
0.3312631671
0.2997973951
0.3322556331
0.3517223804
0.3782425211
0.3394455311
0.4653558125
0.4198991701
0.3931991187
0.4839175564
0.4494080669
0.4973854804
0.5413763321
0.5724254539
0.5161077655
0.6999181068
0.6326284914
0.6002222791
0.7080555157
0.6682650973
0.737213732
0.0310303294
0.0394516806
0.03883127984
0.04556455886
0.04137036177
0.03393877266
0.06163857207
0.0507966439
0.05512052768
0.1614049481
0.1718607153
0.1475848812
0.2272193461
0.1983704629
0.1871604915
0.229352567
0.2122876553
0.2419826219
0.2800130843
0.2937045692
0.2590941909