/*--------------------------------*- C++ -*----------------------------------*\
| =========                 |                                                 |
| \\      /  F ield         | OpenFOAM: The Open Source CFD Toolbox           |
|  \\    /   O peration     | Version:  v2012                                 |
|   \\  /    A nd           | Website:  www.openfoam.com                      |
|    \\/     M anipulation  |                                                 |
\*---------------------------------------------------------------------------*/
FoamFile
{
    version     2.0;
    format      ascii;
    class       volScalarField;
    location    "1";
    object      omega;
}
// * * * * * * * * * * * * * * * * * * * * * * * * * * * * * * * * * * * * * //

dimensions      [0 0 -1 0 0 0 0];


internalField   nonuniform List<scalar> 
3259
(
31.99197801
31.99057858
31.98536696
31.97941724
31.97443123
31.97058295
31.96894522
31.96758804
31.93379905
31.93267803
31.93163799
31.93065437
31.97081344
31.96571629
31.94381323
31.91576016
31.89110282
31.87383371
31.84737665
31.84046958
31.80364923
31.80011308
31.7969577
31.7941729
31.98875496
31.97771371
31.93196902
31.86974813
31.81497443
31.77493776
31.73287717
31.71776576
31.67638842
31.67042871
31.66491073
31.66018728
32.14226838
32.11314518
32.01111131
31.88665676
31.77617165
31.69889522
31.63144892
31.60285907
31.55329568
31.54350355
31.53528165
31.52848893
32.72856213
32.64405789
32.34813613
32.04795318
31.80779682
31.65931642
31.55021825
31.49803338
31.43453826
31.41967597
31.4081141
31.39901746
35.11874093
34.59813594
33.37844069
32.52371856
31.9712575
31.67108692
31.49222406
31.40579445
31.3212379
31.29803086
31.28226613
31.27058666
46.75972665
43.66555599
36.27033495
33.59475058
32.3394723
31.75857837
31.45925414
31.32816494
31.21367328
31.17940857
31.15809414
31.14337062
72.76696618
42.97278099
35.55225666
32.96162305
31.93374737
31.45654225
31.26346806
31.11233803
31.06362621
31.03539505
31.01725753
137.4311922
52.76131447
38.25284546
33.80487574
32.18177654
31.47558382
31.20996551
31.01767099
30.95222039
30.91562767
30.89367232
171.3956234
61.22043286
40.96346121
34.68937157
32.4602612
31.51434185
31.16558694
30.92994307
30.84588702
30.80004769
30.77381539
171.0238384
65.95270518
42.92727905
35.42967531
32.72231926
31.5584202
31.12809678
30.8492184
30.74651232
30.69063321
30.65978261
157.8180978
67.3346104
43.95787815
35.92521459
32.93023779
31.59546595
31.09381787
30.77497169
30.65330604
30.58776733
30.55208235
161.693204
82.03036857
205.8539888
167.8206748
202.598927
207.3259972
182.6145461
200.1441145
179.7732768
46.39671301
74.73273588
43.42859708
479.3013827
167.847861
130.1146248
57.66360576
46.94659422
1612.154665
1143.095668
169.4582127
70.32264116
61.25138843
909.5591012
1253.637353
172.2438264
77.17991398
72.63537769
514.6978103
681.2048829
1950.769665
333.5459514
389.2041897
1112.060368
505.0307336
127.0735886
407.1387583
779.7375562
1268.274547
1613.599254
189.4724095
1127.285101
977.1371123
806.2546648
1124.386857
186.9743096
711.9368837
889.7718331
207.1092957
680.780118
536.8260942
966.837622
705.1590241
208.0350871
400.8744265
496.0037486
2872.315828
3307.404128
327.8345554
1715.833192
2849.142646
492.9264656
5422.495111
159.917316
79.02808307
78.06456366
5625.525817
735.9525957
818.0367006
140.9613015
360.9583935
117.3755436
835.7637946
1065.213484
190.0527989
410.5814981
348.6714521
519.1943579
422.0742094
192.9009962
72.63321223
146.5708468
71.40429208
75.00593443
3912.604255
337.0365162
2777.065471
369.9650873
2038.866067
303.8652729
1313.327081
1296.571824
1049.275002
1073.242969
2020.969887
4561.715568
577.2380017
2427.994718
1334.288714
5115.61915
2884.600404
601.550122
618.3883598
701.7577558
5017.759066
781.4550181
740.6219753
1346.931344
1360.94214
1038.168874
357.4447435
348.7199949
359.0726735
358.8000774
1030.478917
955.2507639
318.6803154
292.429924
344.3232804
326.3411632
973.075679
756.079254
5298.86069
770.0686367
1260.91193
926.3831045
449.237204
1128.02422
1872.461771
5855.411125
593.5589277
3527.133042
1883.036987
2571.479687
1123.87536
2967.494745
4206.840969
144.8416825
391.8264963
130.7431178
153.9260013
1517.311844
3734.593705
3897.710527
1221.118803
970.7792606
2680.597228
1968.452769
4525.094378
4449.383857
1196.153005
965.1798961
3375.692831
3725.819004
542.9957761
235.8143947
198.4135243
281.7740652
248.5205486
567.8969171
1304.571229
4481.890513
4534.639735
1533.97974
1861.865205
1711.742037
838.4832364
614.8486583
321.5160328
333.9555832
864.2410868
351.8430019
357.9900444
338.324017
348.6311823
848.3384278
435.0736263
892.8754306
722.996379
4884.572466
1733.891232
2120.634706
1561.758564
5374.080636
5445.217954
1282.131774
1674.591369
5838.724904
1319.524962
539.4887639
1314.167169
4135.852695
2843.259023
942.0623639
4879.587576
5704.129531
3968.785388
1150.584238
707.5448999
1869.578971
1266.620941
637.5963466
402.7546522
1151.946135
4071.4407
5129.496818
1443.37515
1239.144682
3942.707742
4080.362458
2941.069712
2782.742868
994.0885731
4827.843976
4739.55803
3470.290138
4694.014713
4701.115297
1164.198376
4599.666389
3025.997194
3013.008357
3392.810623
1823.30011
862.4345511
931.4523422
3850.936743
1086.583294
1229.121496
959.6883526
1044.998044
3602.725303
3616.847162
999.8613016
1180.678268
2416.372129
2519.438323
914.7232009
3595.220113
3624.821371
4586.65029
2476.408029
2072.276766
3501.169563
2447.172641
623.9276432
1739.459497
2308.686922
4393.957172
4447.908737
1315.847318
1472.24528
4652.794488
4376.886729
1604.999585
1877.061431
1280.193827
1493.583533
5536.02425
2966.251421
3245.968865
2005.208187
2850.919442
5781.730456
1339.491225
5643.865047
4845.852842
5621.690144
1434.719216
5788.191955
67.19625711
43.86628567
37.36635039
5745.255844
5720.979907
78.97092491
5989.456168
339.725675
283.7055435
172.8148368
332.415799
236.3625063
515.7254927
1879.090361
326.1708711
357.0915603
55.67480841
65.66251329
128.3949892
418.6627042
820.2326255
1207.525922
858.1520393
954.4923987
3114.107225
690.300103
607.0589363
363.3685454
1312.238623
1673.217847
587.9665879
4537.086656
3812.079583
5767.119073
5146.753173
836.829855
3052.50603
5245.357797
3576.754772
4006.799748
5555.416966
1542.218299
1243.183735
745.9320832
185.172088
146.8709635
259.5149569
910.4318575
2410.316936
1705.101241
98.6692569
125.1853945
312.1206474
3183.738817
2087.130524
1611.531421
4088.335529
3211.865093
2217.692648
4050.449742
3693.792171
5754.585688
5453.084703
3952.776434
782.673543
842.5852297
1677.120946
5274.186357
2810.56857
3146.8854
4349.424583
2612.347202
3042.118039
5205.529376
5147.979026
3288.453326
3493.655029
5262.765107
5193.030017
5396.033441
821.9892454
1650.016099
1378.808392
5799.392164
5642.843567
5547.902062
4305.817093
3988.105866
2305.121816
1359.789853
1648.504787
1494.546876
3439.398124
5669.546038
4825.542846
5729.762722
5480.796691
3911.268406
208.1453979
296.3547935
986.9169834
3911.388493
3825.459286
3997.340461
3982.957299
3820.875557
2469.436539
2448.859551
2488.505013
2472.242648
3823.875066
4557.574805
2587.598239
2608.414133
2481.605616
2555.368358
4633.88398
3526.502986
2243.165845
2022.173591
2431.81542
2367.000118
3616.859336
4459.167657
2657.824029
2677.686598
2630.530288
2642.14944
4503.129243
4092.04269
4020.175241
4188.097038
3993.884987
5903.448198
6124.897476
5711.001412
4326.852743
5951.842104
2624.296753
3704.871066
2602.572033
3484.63601
2601.482097
1043.514541
3568.471222
2646.161819
5430.28591
5632.510506
5787.865361
4353.685262
4972.747477
1169.845571
5540.234154
5807.407917
5448.158217
2990.552155
2157.68107
3026.675836
1589.992849
2309.266657
3080.796637
3382.919921
3136.64869
4224.984716
2655.20219
2516.821994
3612.913032
2618.721164
3947.030947
3986.244284
2507.536786
2492.230966
2532.869187
2504.728653
4010.920925
2888.599366
1739.410905
1769.52557
4772.476347
4765.298188
4057.915663
5188.170246
5004.109003
4833.631566
4785.326654
5005.622003
3803.463324
2077.72111
2316.828374
1816.362484
1906.503904
3247.38329
5482.980698
4632.101506
2541.038518
5826.818367
5577.109674
5556.285005
3595.05192
5475.564594
5299.95446
2124.252171
2394.669428
4508.752261
2415.904457
1656.884244
1631.005652
1819.620864
1761.353019
2551.969199
3806.71288
3560.673567
2320.542825
3418.943541
3585.79461
3214.493242
3386.365064
2281.138834
3423.735778
3354.63861
4334.710872
3202.449588
4424.739728
2726.091113
2742.939225
2689.444491
2705.31848
4406.287956
4421.736483
3016.046001
3492.316349
2776.784429
2845.437394
4397.922521
5156.44189
5017.276105
5342.490341
3732.012592
4384.6408
3061.343409
5003.041124
5067.183366
4990.826129
5001.99975
3127.753352
2235.43792
4262.207139
3607.441868
4906.815073
5039.862505
2582.679928
5422.838346
3528.596151
3773.709552
2642.364754
3162.247699
5513.738888
5561.829119
5385.624249
4110.50119
4711.20999
5909.783226
5579.398264
31.97325576
31.96808102
31.97678165
31.97390881
31.96946522
31.9688444
31.9406015
31.95128199
31.92964396
31.88963979
31.92367917
31.87785087
31.8411326
31.89730449
31.83122504
31.80439864
31.87781345
32.06658802
31.98398881
32.07287227
32.07539582
31.98382903
32.06190342
32.00195076
31.94480624
31.97896845
31.89809614
31.8841089
31.8733304
31.80165119
31.82711919
31.78191836
31.72944534
31.78272921
32.45470839
32.12935517
32.47063034
32.48817728
32.12307882
32.4382346
32.29460556
32.04196404
32.23462968
32.04147513
31.91782614
31.98179424
31.83092788
31.8022696
31.78969782
31.6913732
31.71566271
33.96280322
32.68613386
34.02835232
34.01882413
32.65695046
33.74883266
33.2318885
32.42476079
33.02716695
32.49562469
32.12087976
32.34763313
32.00222388
31.85878839
31.91354789
31.71260836
31.6914686
43.94340884
34.91029255
44.07326415
41.42808033
34.70322913
39.18491171
36.08547615
33.63479972
35.28438377
33.61265881
32.71046815
33.22663368
32.41221486
32.08214192
32.2230869
31.819835
31.72978881
64.45609925
61.94513112
46.65865804
49.7969436
43.74015731
40.92884668
40.8771552
35.88060727
34.08273684
34.9297847
33.15552875
32.57107384
32.78243716
32.03805999
31.86422184
97.40130486
68.91890508
57.45430627
50.2777425
39.33448471
36.69677043
37.4708422
34.21386939
33.4019919
33.57588929
32.36067864
32.11141949
155.2840273
95.7832521
86.16643113
59.44158546
43.02245591
40.34555945
40.22735227
35.39575851
34.52742913
34.46935379
32.73639566
32.45298735
174.0272958
110.1291344
106.4164167
65.15070829
45.86820998
43.91989576
42.45516787
36.41734284
35.69913634
35.2612213
33.09359667
32.82814371
166.9303656
112.3033932
112.5176042
67.26776464
47.40765412
46.41813394
43.75196226
37.12419039
36.65782876
35.82132478
33.37607606
33.16985284
152.7249532
114.7970975
115.9296396
47.62549245
37.25539552
33.43137909
149.0036088
203.1200125
229.107894
93.5244976
109.8946868
92.81864773
203.1569809
292.6764891
294.6792383
237.1995872
258.1664177
179.1292307
204.0593771
271.7681792
268.9517089
294.5101643
292.1599606
208.4186702
184.8561458
216.2743065
212.1550788
245.4336258
240.3669301
197.9686905
207.7300398
204.023842
177.5895633
1558.622258
1557.775859
1467.248462
64.46033021
2050.442294
1473.944908
66.31226291
71.71553243
83.41538772
45.40978401
59.7679043
52.69536164
456.6917799
526.262729
563.6115064
213.7563413
253.6584976
206.2673284
83.33040472
71.55958167
105.5485779
53.99535478
63.60322197
68.97445646
53.12352391
58.24112187
50.36346014
1600.804504
2469.694891
2475.159001
1637.118982
1667.239034
1173.378701
104.8011708
98.15647192
159.7600888
67.65811278
82.79797818
86.26102577
74.06951819
78.71803991
64.59352084
929.8671002
1140.398331
1105.391388
1693.158413
1677.080436
1238.76268
112.3166983
110.9299209
173.9485556
76.05174148
92.85438586
93.92382575
89.07149903
91.23179896
74.50839901
533.6741453
689.4999479
658.5352132
995.4873368
920.4127585
653.5972893
1292.480975
1405.687006
2255.64149
355.3058409
581.6397802
517.3628638
459.3519462
444.9832159
381.2204676
1069.538429
1548.998047
1606.035243
619.2755483
659.5562271
529.0335753
164.5941627
193.4216084
140.8405534
431.5621044
328.6196637
301.8699666
469.6066857
447.7467593
684.3348
1280.620747
1720.892642
1709.857642
2466.475751
2453.022824
1605.198668
282.8029513
291.007
191.2331364
1103.432198
559.9228804
573.8793689
598.7570024
604.5181335
1003.071858
878.3682728
508.0904798
488.5404158
573.2341822
571.5020811
1075.691699
180.529399
264.10144
279.0697505
742.9749655
1129.204788
1024.412163
1075.386727
1050.816762
872.2320824
282.3439556
275.1215579
206.0871867
658.819532
496.6547895
508.3051927
303.6718983
316.4613088
593.0972667
930.1795936
583.9611447
592.5337175
520.2231851
532.1047509
791.009008
208.3716264
290.4158393
284.9446563
410.5595076
492.9898961
475.9590989
630.6242447
603.8762582
479.5407264
497.921682
1188.717969
683.2434644
1345.592848
794.8791664
117.554279
112.0128434
165.0414789
78.95941985
94.79458938
94.5697072
94.58271885
94.84179815
78.57957581
770.6453401
1162.820659
990.9658411
917.7762813
897.8568729
794.4530545
220.6725535
134.0923949
104.2292553
277.0178299
252.6326269
334.5547486
103.428011
125.2203124
153.9362034
859.7941789
993.2984491
958.0501045
1428.175727
1324.919856
1022.002783
225.8210093
221.1649165
187.7558013
381.3143606
274.3484728
268.351173
257.9607864
265.3590227
371.947137
472.9559871
287.1013743
299.4369996
271.0780538
283.3891399
458.6227995
195.2008034
235.506536
230.4020771
113.4323333
125.123681
142.4208864
165.2657335
72.11843202
102.7618218
87.12891407
116.6169595
111.3476084
73.96226742
490.7956335
751.1892121
408.012291
932.529574
369.7614082
272.0772581
1388.321018
1184.07336
1968.072897
237.8955557
344.001132
450.475397
1782.106775
1846.402656
1342.569117
1275.807431
1749.673803
1781.194908
1318.853569
1293.886153
1031.737651
1098.464654
1397.602365
1351.541197
755.5798361
721.2828711
555.1893565
2135.700229
1397.967713
1505.311047
1036.038565
1072.592191
1418.263378
1637.424904
1760.965303
3240.042829
625.4377877
893.3550529
854.1989402
644.422593
777.7497321
741.0128267
942.5507445
869.2271933
673.1031675
1098.503592
1147.76425
823.5822616
698.9043848
972.678609
1031.180656
1780.458479
1771.490976
1336.466147
1382.058629
1831.308055
1797.196807
611.1824544
612.0032943
1082.557214
355.2249668
452.7287842
454.503137
445.4962424
449.7944476
352.4368957
359.5219884
453.9677231
452.0795607
455.1863509
454.8782136
359.6339942
1010.876357
608.1400604
610.1558278
542.0001206
524.591822
898.704754
310.8086702
393.0800401
402.1944995
367.7394217
379.2749343
301.569977
339.0032118
431.9806609
439.4186723
414.5645017
421.264132
332.9972998
1046.63248
572.6607019
556.0612311
1314.456624
1176.599923
686.9395028
788.2360331
932.9191669
912.5476575
1076.737789
766.4359779
770.0634196
698.9389046
731.1045315
1030.666377
463.288069
578.3133157
554.7865647
1191.414604
1729.430667
1566.044745
3486.773601
3096.468546
1715.229592
706.3580169
2098.045481
3782.609089
3395.828802
129.5469004
183.2522317
252.0699309
177.0646374
119.7753383
374.7898917
201.5638461
295.0735902
350.6476054
496.1455692
143.3808407
217.9383042
180.034524
256.5807607
247.7940288
151.1804802
2306.005128
2423.975631
1571.76861
1195.894775
1683.786286
1708.953878
1214.687829
1178.447795
951.4978319
2458.408108
1556.39224
1630.394006
1393.458874
1468.597178
2165.282139
1219.332143
1649.929571
1611.151959
1365.834914
1471.09573
1021.695891
379.2933913
350.1001181
481.9578666
223.9663027
272.1867692
288.907683
237.0001361
254.9677668
210.8026487
271.5098675
338.685144
352.4430558
306.5036436
321.9949593
259.6540278
652.8799456
426.3768949
402.8019605
1743.958367
1733.546311
1293.262913
1582.320549
2397.938219
2270.974988
1802.607376
1301.493338
1338.998091
1238.180791
1267.99319
1756.260858
855.1778153
1027.297373
1005.91128
473.4936615
484.9094754
636.0690843
325.4158545
392.3836921
385.6547956
405.996099
399.4069141
330.1454205
563.874361
574.8983356
913.1020495
354.1841749
441.28365
436.3559589
449.2696679
445.6821447
356.5620319
341.7975874
419.0119835
412.7517666
430.8748637
425.2579594
345.6726165
812.0845007
542.5406901
553.9235661
532.539126
512.3105238
423.3151706
841.459048
638.8756108
667.4119218
585.6781335
611.6159173
756.5186019
986.228474
1584.21329
2735.229098
1378.950925
2182.750464
1943.859205
2901.082906
2477.145702
1511.632257
663.3499557
3794.963874
2026.899834
2271.774272
1632.631395
1818.505211
3338.305968
972.7330383
1235.238685
1157.982358
951.9494917
1428.640223
1775.334213
1032.125122
1297.621225
861.7050905
1972.324582
2304.906009
1491.440646
524.8026407
731.8560852
914.9437445
514.1244781
627.9936386
473.2628193
1434.656177
912.9993203
779.1904277
1384.657246
1897.801736
2086.032122
1719.93513
1744.237914
1261.169353
1678.17933
1711.588643
2845.296582
1010.628819
1269.765154
1244.709325
1541.92605
1464.522322
1131.624847
1250.976992
1314.425903
1954.161697
883.8105383
1028.239724
995.5237808
1116.974984
1069.61842
907.501428
1127.517111
1508.478036
1410.706817
1742.229515
1631.074373
1181.153239
983.4045617
1224.994602
1171.526264
1335.07898
1279.978158
1018.186261
3392.688231
1863.088846
1969.63433
2010.039126
2289.625739
4082.272372
1042.892279
1409.249207
1295.861757
1714.42096
1544.669026
1116.817503
864.7132979
1210.479499
1280.959298
837.3239763
891.5844784
656.0820951
1935.242574
1308.153074
1227.276885
1527.246619
1455.109619
2199.38719
1325.87244
1762.002242
1753.853703
2064.862473
1907.853803
1418.418403
1708.04874
3059.888743
2728.489913
3382.832832
3186.298539
1790.31905
1331.740447
1935.421813
1837.977977
2337.553326
2081.72935
1400.928453
2058.641353
1899.028505
1265.731888
1559.598052
2613.964065
2271.290818
55.36591506
49.56296616
52.18188619
41.24307372
44.14658886
48.48227742
38.71795207
41.32248539
39.12262303
94.10663115
93.50274898
78.77772599
326.5073869
243.5025503
249.874665
230.7108747
236.6858194
293.4921965
287.2250643
424.1459116
513.1938927
287.8549167
356.4210396
252.1470848
992.0154122
481.9281993
434.0573743
820.2770669
1463.235474
3002.720885
350.2471837
537.976101
454.8667278
593.4272281
590.1389364
361.1774714
79.75839717
70.7425824
62.70855734
97.19259119
81.63674963
88.49516423
450.8423155
484.4247337
436.2298812
961.7114382
667.8712722
587.8166816
811.0301196
720.4242369
1039.452304
888.0992471
1052.845553
1001.082146
1199.173155
1119.171777
919.6883015
2644.125439
1562.805283
1759.540637
661.694169
539.2582169
561.5237773
499.0254461
517.8570696
633.1201211
1479.920612
972.7383127
886.5196766
1122.983354
1052.955956
1533.448165
559.6297838
722.8195041
764.7014666
951.013711
1429.603711
1069.227421
1116.127416
976.6921364
1011.353006
1333.107433
781.7437314
856.8562499
858.6258642
172.3936752
201.9424744
219.9175807
286.5366205
225.7482628
205.4587744
1092.640149
1041.115193
883.4687175
2140.340253
1368.720764
1479.085314
1192.50402
1268.367069
1901.928375
104.3497319
116.9479212
109.916075
148.8634213
137.5181593
111.839036
217.8537014
162.944338
208.7393905
804.7782456
904.1872179
887.6121654
961.4553628
935.7588694
821.3714461
1539.050239
1130.191536
1184.770609
981.856485
959.4842782
804.4027348
1564.844014
1162.639824
1201.112289
1083.198627
1117.646326
1462.212707
222.5902461
284.5743875
251.8455058
383.6347501
335.4863976
254.4793813
680.3224007
441.8601807
572.1063004
31.97840889
31.97757785
31.99176214
31.97273811
31.96598853
31.98833064
31.95783097
31.94848236
31.98238279
31.93950192
31.93131039
31.97673773
31.92429727
31.91867887
31.97246348
31.91500896
31.91053107
31.96981997
31.90771224
31.90567335
31.9682601
31.96986014
31.97100665
31.97125183
31.96360808
31.95766199
31.96283468
31.93641841
31.92738953
31.93807776
31.90108502
31.8920989
31.90981131
31.86962246
31.86295099
31.88665017
31.79865982
31.79618464
31.85190962
31.78907556
31.78345065
31.84362972
31.77950149
31.77745124
31.83794253
32.00514729
32.00731816
31.99067577
31.9959786
31.98231279
31.9687575
31.93888135
31.9208607
31.91630666
31.86619239
31.84735303
31.85482889
31.80127528
31.78694721
31.8027511
31.71618751
31.69548791
31.74341047
31.68020204
31.66868548
31.72452853
31.66044515
31.65557844
31.71264001
32.20891037
32.21370717
32.1464296
32.19309898
32.15811369
32.09991526
32.06759857
32.02655809
31.9804389
31.90653033
31.8700024
31.85617552
31.77653627
31.74888385
31.75411261
31.66685212
31.61784225
31.65313971
31.58824367
31.56611331
31.61547106
31.55032016
31.54033249
31.5934262
32.9802853
33.00283554
32.73209499
32.89099307
32.79542072
32.5998965
32.52715373
32.41618939
32.27339157
32.11912139
32.03602866
31.97917426
31.83293982
31.77967637
31.76302424
31.66366532
31.56985592
31.58961274
31.51862787
31.47916688
31.52022218
31.45126127
31.43303294
31.48189805
36.40370182
36.53921388
35.06500753
35.47707022
35.02908248
34.33191116
33.8782576
33.52518823
33.13865712
32.70257931
32.49822583
32.35829195
32.04074367
31.92815097
31.87684775
31.73129969
31.55961873
31.55789475
31.47284183
31.41128659
31.44261621
31.36575018
31.33421404
31.38008645
50.89236008
50.92628748
47.68418795
37.52404226
36.2957956
35.38438466
33.95803266
33.46643139
33.18999112
32.47087402
32.24770853
32.14846947
31.88346887
31.58616606
31.56772482
31.45459437
31.36246513
31.38463376
31.29460285
31.24537822
31.28739357
80.57679853
72.73160262
67.1433744
45.29158068
41.80215548
40.20114117
36.11626383
35.07826213
34.66146602
33.15367466
32.75710227
32.61127878
32.11490784
31.66253521
31.61947836
31.46275067
31.32974494
31.34400289
31.23592001
31.1665616
31.20461016
143.5542681
120.1867797
115.1179107
55.16974941
48.84493908
47.11885293
38.87861434
37.13641555
36.67112047
34.02551915
33.40981722
33.24155931
32.39162184
31.77209467
31.7150782
31.49348644
31.31133434
31.31846585
31.18781478
31.09673773
31.13134493
172.7207714
144.9146509
143.4443901
62.78957725
54.63563117
53.43001689
41.43034318
39.08263299
38.72310571
34.8925082
34.06870547
33.90950741
32.66402111
31.89119741
31.8323543
31.53637498
31.30335137
31.30584697
31.14827163
31.03500212
31.06652507
169.8985388
146.0212998
146.5594971
66.58319807
57.86553354
57.33037946
43.19587242
40.48894653
40.27966849
35.58161842
34.60804126
34.48286673
32.88728409
31.99856529
31.9476296
31.57812592
31.29904662
31.30060908
31.11416292
30.97985607
31.00871099
156.2701017
137.4484591
138.7967546
67.32338656
58.88527335
58.80201805
44.0843231
41.22243418
41.14456453
35.97848859
34.93454128
34.88529881
32.0420925
31.29545172
30.95540644
51.09293212
109.5354081
103.7506109
122.4409537
141.4265026
139.1131727
167.014101
147.1220839
147.3907076
173.0495073
340.9105877
385.8213343
377.5284504
615.2341195
596.4487143
749.397716
1126.541119
841.1512743
839.9102184
789.7450792
795.7095321
986.181753
832.3280437
647.1913945
629.0765059
835.3900233
829.2461614
1115.154936
430.3893477
440.3773298
555.0043216
956.3676145
776.5468626
783.5735349
367.2582077
139.8679727
141.086561
161.506295
166.2854251
140.4081947
128.1187009
400.4720971
343.8629381
350.0382964
306.0254486
312.0237737
355.2535535
502.9945034
410.6115208
419.8945745
359.0448207
365.7677829
433.1788154
72.30281715
80.59906448
83.11625182
82.84440045
83.50425286
76.19382483
532.3369263
376.3794554
309.2675766
822.1658622
824.5261697
1047.907406
1024.402881
816.9403794
818.981812
734.8754742
719.8461375
937.0880146
993.4091709
762.4237848
747.6102802
886.3673611
872.0890518
737.5532639
1193.586022
964.4873839
991.6290251
816.7813736
838.4720242
955.2931867
498.8704281
487.4463317
517.9936952
594.958187
523.2721666
507.2660489
722.0645258
731.8922521
878.5437239
837.2360093
703.2731218
713.0968196
874.9398255
777.8155343
800.1336149
62.37170897
57.78985934
60.81171979
334.8174924
294.6008979
301.0187493
174.8740023
200.0848518
196.7920527
58.28495177
65.97388137
61.93870796
113.5190052
103.1030276
109.219906
370.5198929
430.9622405
418.5930816
168.3543863
184.9559228
159.338872
276.6725122
233.3735231
249.5034766
31.96847037
31.96694631
31.97834928
31.97288941
31.97155578
31.96914897
31.97217064
31.97749496
31.97056919
31.97032123
31.96770918
31.96090058
31.95795247
31.96474746
31.93966327
31.95045639
31.95236983
31.95673479
31.95136253
31.94390098
31.91526769
31.91942762
31.93028877
31.8980587
31.9100136
31.9029704
31.93008097
31.91885181
31.90955355
31.86443434
31.8769497
31.88827775
31.85756313
31.86772048
31.8533078
31.90259254
31.88431146
31.87639377
31.82086723
31.84092993
31.84954623
31.82715734
31.83420257
31.81260232
31.88155984
31.85733334
31.85195265
32.03055235
32.00037531
32.07602539
32.04110482
32.03839501
32.02832785
32.03724519
32.07836554
31.98895906
32.00727408
32.00423491
32.04026178
32.00973458
32.02003593
31.97281229
31.9940153
32.02150549
31.95819937
31.96983487
31.95449458
31.95205207
31.93105054
31.95228089
31.88861897
31.91049954
31.9251192
31.90147405
31.90369768
31.88469415
31.84860619
31.84613323
31.86770268
31.80707062
31.82527646
31.82547104
31.84118241
31.83204866
31.81572328
31.76284654
31.77364321
31.79009156
31.74502403
31.75885765
31.74549753
31.79257559
31.7746636
31.76330383
32.32101411
32.19946013
32.48011849
32.34862833
32.34339207
32.30702564
32.33060406
32.50005058
32.13788107
32.222129
32.21750911
32.38158321
32.27439124
32.29612295
32.17753972
32.23102278
32.33891948
32.07488231
32.13079915
32.10329531
32.16880027
32.08393067
32.13009998
31.98921805
32.03709736
32.10420545
31.94974848
31.98549022
31.9449749
31.92672071
31.89692891
31.94230815
31.81488067
31.85412978
31.87662539
31.82878714
31.83703055
31.80564916
31.75360377
31.74960528
31.78041257
31.69665968
31.72092809
31.72150085
31.73415573
31.72590091
31.70502114
33.40166761
32.9505562
34.08803012
33.48129855
33.49500742
33.33256399
33.40267249
34.11193623
32.69458766
33.03840905
33.00480723
33.5648999
33.19885751
33.3052454
32.86204867
33.0214829
33.41551938
32.5151549
32.72053806
32.63523334
32.83442533
32.59510846
32.72684007
32.34693026
32.46771986
32.657927
32.19725215
32.31006207
32.21098176
32.21806662
32.12559972
32.23179903
31.94392241
32.03009363
32.10357556
31.91632154
31.96140238
31.89317867
31.83588945
31.80361687
31.86862957
31.70013394
31.7481063
31.76921214
31.72498946
31.73324661
31.69393142
38.60405356
36.22510642
43.91025379
38.84699035
39.01924862
37.72333861
38.35220246
42.43064382
34.88871095
36.46782361
36.1509192
37.92157277
36.50510736
37.24471667
35.00437256
35.6166688
37.04972222
33.93754241
34.68696675
34.27241877
34.62078142
34.01613914
34.48016927
33.2668814
33.61611252
34.07229711
32.9149118
33.21399945
32.94267742
32.90439114
32.70303076
32.96399742
32.28672292
32.47955177
32.63654526
32.21087146
32.32227936
32.17066272
32.06333382
31.98896292
32.12439718
31.7829912
31.87698598
31.93038672
31.79747346
31.8329309
31.7533568
64.19615128
57.04215783
56.47603521
55.15148195
56.17302562
64.13555734
47.34719788
51.16184986
50.62610791
38.70681945
37.41630173
39.04928826
35.22199473
36.18076426
37.10005854
34.67047837
35.33696428
34.57551855
34.19625425
33.84399339
34.45715092
32.94363177
33.34526518
33.61742416
32.85149449
33.06749772
32.74086371
32.48009463
32.35637909
32.61900098
31.97418972
32.14519582
32.23558462
31.99260923
32.06481546
31.91504337
85.01286581
78.69558188
88.01445243
64.17838136
69.94196401
74.78833594
45.31995314
43.5561022
47.75035888
38.45809629
40.60012864
41.84731707
38.18969863
39.31631826
37.4926925
36.0839042
35.63261041
36.8561663
33.9466892
34.68351943
35.02917523
33.95704364
34.27752003
33.65066113
33.07215235
32.91614388
33.36985344
32.27427816
32.55793014
32.67456931
32.33348239
32.44151662
32.1892333
129.1541124
124.8849881
149.8319886
92.59532297
105.9963549
109.5560424
98.09268842
102.2289329
89.93258672
52.02591311
50.5173679
57.39505818
42.22286512
45.6935189
46.80685652
43.17746821
44.42429092
41.23249805
38.15772921
37.72830318
39.66102344
35.12889295
36.25590734
36.59528764
35.45917362
35.82092767
34.81031268
33.74569155
33.58264448
34.25808668
32.64305003
33.05501736
33.17889659
32.79987797
32.92660558
32.54775183
146.8712481
146.144072
173.6155586
109.1009077
124.8290696
125.859553
122.0360977
123.6343337
107.8920231
56.58678749
55.71079723
64.06910193
45.31677365
49.71631402
50.42003429
47.91432867
48.83705811
44.58947071
39.87434144
39.56722886
42.03805604
36.21484273
37.67484081
37.91297217
37.00979023
37.30775973
35.94504935
34.35420496
34.2146492
35.08601936
33.00769805
33.53634471
33.64575458
33.30183744
33.42512609
32.92337845
144.2970218
144.9817468
168.2620677
58.61406061
58.34540168
66.99123264
47.20514944
51.98215993
52.22894826
51.066433
51.50874401
46.76327341
40.96125566
40.77895966
43.56514381
36.99050982
38.64282509
38.79853668
38.24024509
38.40596259
36.81382606
34.80106488
34.70429711
35.70572046
33.31055282
33.92210614
34.00085821
33.74530754
33.84552586
33.25028011
52.44371309
52.60325123
47.7939705
38.95778746
39.02064281
37.31003598
34.07058437
34.11321869
33.47504808
211.9092716
183.0216495
175.0243002
195.553707
188.5359781
220.8789409
293.7811468
247.5183016
245.8586565
249.5595377
248.5814495
294.5280884
244.6292747
207.1771122
200.9323475
217.4865176
212.2767986
251.7233334
269.8186009
238.3880557
240.3686757
294.0823693
250.3923018
250.0623279
250.1715073
250.3140808
293.052722
55.49930097
49.52558479
48.56796924
45.08311955
56.84503359
51.77494601
52.80246328
48.33526524
49.510263
54.56113177
79.05253462
89.16797747
93.76339112
79.5938114
84.46312387
76.21413708
114.4636249
97.59319827
91.32974633
102.7773585
118.0073707
120.2405358
112.6631482
115.5664773
100.7606586
163.8574311
136.2654495
132.9867557
112.0369086
127.3032764
127.3460069
126.5137259
127.0335393
111.5697605
173.6702848
147.499063
147.3941165
970.0923139
839.938969
859.718193
801.1714452
821.3283988
941.7298108
406.6873075
396.3030808
347.7469332
559.1104271
464.6963576
480.4176931
435.9609667
448.6169517
536.6816402
173.9632054
155.5073252
146.1015433
169.4781066
160.8975331
184.2085053
717.9825497
582.3605287
563.5734016
286.0960191
239.8453758
236.9190568
244.1919352
241.9271614
288.7458049
836.8740456
840.3726493
1118.294659
574.8884645
642.1907276
663.4793424
630.8149005
638.653337
574.9390935
995.0933199
800.9096696
805.6700508
677.9629138
660.5721116
855.3394918
572.2550452
614.2777997
624.0603743
592.2636996
604.519235