/*--------------------------------*- C++ -*----------------------------------*\
| =========                 |                                                 |
| \\      /  F ield         | OpenFOAM: The Open Source CFD Toolbox           |
|  \\    /   O peration     | Version:  v2012                                 |
|   \\  /    A nd           | Website:  www.openfoam.com                      |
|    \\/     M anipulation  |                                                 |
\*---------------------------------------------------------------------------*/
FoamFile
{
    version     2.0;
    format      ascii;
    class       volScalarField;
    location    "1";
    object      p;
}
// * * * * * * * * * * * * * * * * * * * * * * * * * * * * * * * * * * * * * //

dimensions      [0 2 -2 0 0 0 0];


internalField   nonuniform List<scalar> 
3259
(
93.42683432
-95.34420189
-268.9171481
-416.0293053
-532.5952534
-620.1911125
-683.2069242
-726.3956054
-761.7576154
-777.4349408
-786.3437992
-790.402216
120.5165127
-77.73105182
-261.841918
-415.71986
-535.6590658
-624.4133139
-693.8274523
-733.8748025
-768.2909683
-781.7904118
-789.5059957
-793.0076297
127.4068773
-97.76922454
-299.1620454
-459.3610393
-576.4678729
-657.7395162
-722.7950467
-754.9340053
-783.2396268
-792.139433
-797.1850694
-799.3876956
147.9407132
-137.5730129
-376.1768127
-542.8769769
-650.5240797
-717.5603986
-767.1470183
-786.4646718
-804.3481706
-807.1620837
-808.2391802
-808.5335137
191.9794463
-219.8639073
-519.9361482
-685.9782824
-764.1557592
-800.056796
-824.1707716
-825.9079458
-828.6633728
-823.977167
-820.2490143
-818.285518
274.5102339
-433.0295145
-799.7726566
-908.3435194
-917.4487739
-902.0623871
-889.2215664
-868.4693913
-852.7532371
-839.7208483
-830.7432233
-826.4032918
521.4963852
-1114.058686
-1309.205191
-1217.735842
-1101.209751
-1011.913583
-953.4026425
-908.0501713
-873.0504041
-851.2055439
-837.2763233
-830.7245282
-2899.328085
-2035.440468
-1562.458592
-1279.572071
-1110.744742
-1004.328181
-937.5822712
-883.8738262
-855.1703807
-837.4808534
-829.0808962
-4310.281663
-2546.204477
-1798.989322
-1397.401897
-1172.41986
-1030.553301
-949.0501889
-881.8138815
-849.1138079
-829.2535945
-819.7677427
-3957.832528
-2521.693521
-1814.060303
-1409.104254
-1177.232999
-1023.611487
-938.5793845
-864.8188253
-831.5697597
-811.4050252
-801.7433122
-2959.11461
-2117.80342
-1630.455297
-1317.46548
-1123.989456
-982.8761454
-905.4562974
-832.7740074
-802.4095255
-783.8105623
-774.8442557
-1928.029288
-1576.25214
-1340.329801
-1156.976092
-1026.096095
-914.2924078
-852.8581504
-787.4215074
-762.919531
-747.3472258
-739.7803033
-4623.15907
-3080.577421
-4314.683173
-4673.930438
-3219.616338
-4199.680267
-2100.0474
-3074.365784
-1967.30503
756.2868188
-2714.650998
-920.0242682
-6187.643334
-4010.210112
-4253.513583
-2733.862362
-2200.959214
-6141.584804
-6520.791212
-4054.834751
-2837.956749
-2826.470499
-4482.212401
-5338.713556
-3091.275906
-2418.56677
-2768.414609
-2944.007162
-3593.992309
-1637.475061
-1595.300581
-2167.667289
-6534.934141
-6242.907261
-4232.690968
-5965.97302
-6366.068077
-5390.604039
-6104.96582
-4523.269943
-5971.736443
-5298.874133
-6354.818485
-6006.388581
-4559.298656
-3690.515683
-4421.653057
-3653.912677
-4315.340152
-3617.911985
-5247.949904
-4425.036642
-3796.63736
-2251.633904
-2854.675498
-1592.137695
-1634.29732
-1516.008034
-1586.601536
-7851.474633
-5071.667357
-3520.634163
-2052.598847
-1801.004961
-2272.537147
-2049.168142
-1993.516222
-2294.401113
-3805.402119
-5827.887719
-4009.590766
-2343.711405
-2668.798216
-2509.139805
-2810.610686
-2225.608451
-3525.022322
-2897.099205
-2648.523645
1175.867373
-3522.920106
-1086.806916
853.7962158
-7960.329906
-5606.227141
-7676.893628
-4824.032837
-7520.582028
-5274.208701
-6322.464892
-6350.204823
-4886.732956
-4944.827818
-3110.18543
-3447.708011
-3216.523521
-3426.591251
-3082.279556
-3856.231918
-3478.371617
-3309.504589
-1626.164919
-1901.909249
-1968.97921
-6514.53937
-6502.581135
-5725.248602
-5769.680824
-5669.414224
-5068.023785
-5236.71447
-4787.807831
-5003.007718
-5625.615769
-6217.650252
-5417.251908
-5440.335515
-5283.506774
-5393.316373
-6191.266748
-3991.689569
-3897.330706
-4044.836092
-3030.419883
-2694.604364
-2592.132832
-2714.778459
-3052.622693
-1975.898854
-1535.163297
-6419.334085
-2201.255684
-2358.395992
4705.478233
-2393.408097
-2565.54611
1817.756643
-4436.086283
-1327.983541
942.8973744
-6229.564907
-7050.842899
-6932.071363
-6457.839496
-4653.729588
-4850.111673
-4646.939256
-5608.322923
-5434.988962
-5176.094371
-6539.315944
-7068.978867
-7096.961143
-6316.492933
-5265.260049
-4981.643166
-5429.081156
-5326.013081
-6322.908083
-5540.496957
-5825.388898
-5668.675267
-5973.793523
-4583.320867
-4397.894236
-4256.560366
-4004.302472
-3754.539851
-4018.103031
-4871.687338
-4459.730914
-4709.337063
-4106.98168
-4372.881965
-4816.010206
-2506.352663
-2648.648105
-2337.338877
-1773.018219
-7200.818321
-6186.846178
-6840.985301
-3662.035559
-3726.676029
-2011.50559
-2153.364781
-2165.460735
4210.470073
4422.304251
4036.404176
-2744.238041
-2571.266506
-2526.344358
-2574.210393
-2762.273438
-7943.121788
-6920.419075
-6472.763859
-7237.384715
-7025.293491
-6288.254885
-5572.519295
-6709.976549
-6707.789175
-6605.425737
-6251.203784
-6432.98702
-6885.742901
-6750.813506
-5105.858951
-4915.665377
-4712.591509
-4973.43846
-5174.49674
-4708.092439
-4912.930874
-5235.642151
-5119.209948
-5378.03855
-5170.343425
-3253.356842
-3315.73287
-3284.138134
-3199.548889
-3342.083945
-3701.000547
-3591.003418
-3743.41902
-3389.750332
-3540.694659
-3644.932263
-1839.091987
-1816.006083
-1960.678314
-7139.374571
-7076.900219
-6537.040402
-7247.720812
-7353.950038
-7209.45122
-7324.327298
-7301.696949
-7397.483805
-7326.041128
-6427.662387
-7091.207962
-7160.65425
-6016.903327
-5875.964234
-5588.33275
-5920.63901
-6224.504096
-6055.468521
-3997.498486
-4163.404927
-3795.732322
-3948.023101
-4045.129016
-4448.616119
-4638.666021
-4217.116767
-4391.101844
-2770.968758
-2861.729222
-2928.447654
-2758.732743
-2980.673165
-2907.161077
-1857.352813
-2598.213531
-1966.6026
-1308.225439
-2343.640859
-2398.26798
-1641.846872
-2407.65794
-2144.043327
-1620.962789
-1579.598432
2108.127085
3417.156832
4449.16176
-5147.808343
-1611.597644
1087.559074
-1743.219792
-1387.303346
-3398.457326
-5926.951415
-6701.395142
-6938.292391
-1623.055179
-1767.137409
-1777.5011
-2246.150573
-1974.487098
-1918.032818
-6998.813211
-7077.855447
-6404.415944
-1605.470645
-1705.107541
-1716.751589
-1618.993513
-1574.067194
-7757.15163
-3558.060628
-2030.108458
-2099.788023
-2105.972659
-2340.05176
-2191.552942
-2156.399349
-4847.561152
-4322.682127
-5197.009279
-2480.799597
-2536.649012
-2384.633952
-2212.254974
-1690.59799
-4295.841781
-7828.709275
-7419.230722
-7269.85422
-7776.818852
-7767.078997
-3158.190208
-3190.960739
-3140.570108
-3464.213849
-3457.660679
-3429.650465
-3008.024656
-3149.391113
-3227.99939
-3818.765645
-3765.090795
-3817.358193
-1961.918601
-1938.732914
-1972.135576
-4172.705845
-4238.898693
-3869.399041
-3930.2815
-3956.009923
-4302.209868
-4322.473158
-4200.164147
-4340.842123
-4173.228702
-1975.612394
-2237.856709
-2282.257899
-2383.873195
-2335.645996
-2313.44273
4768.552691
5011.638427
4618.716507
-2449.621406
-2475.412085
-2394.722914
-2584.291686
-2528.124209
-2515.872559
-2811.577148
-2038.818666
-4910.005072
-6488.280983
-6495.553228
-6412.127765
-6455.391643
-7009.196113
-6840.102608
-6874.420484
-6772.466708
-6806.963531
-6971.624858
-5555.069594
-5471.213039
-5526.381885
-5352.23426
-5414.459475
-5498.725909
-7117.654503
-6924.014722
-6904.865967
-6905.570147
-6922.456791
-7127.230036
-5768.187258
-5685.238602
-5735.876698
-5581.584939
-5633.65846
-5721.700933
-6342.122603
-6377.080702
-6235.96692
-6291.799009
-1614.347022
-1780.149433
-1771.274078
-1760.904547
-1619.807217
-7552.058576
-7865.988464
-7514.166058
-6976.249328
-6623.21378
-5786.580201
-7403.762557
-7074.297045
-3603.995407
-3753.280249
-2162.849482
-2151.080501
-2159.890769
4339.583362
-2653.746857
-2587.04834
-2705.876975
-7644.817048
-7537.769264
-7887.8766
-7170.186662
-7481.305182
-7531.708315
-7770.46434
-7748.440318
-6662.993032
-6549.350865
-6582.637532
-6507.732332
-6521.257867
-6623.844659
-6836.229308
-6694.56977
-6734.748582
-6618.804159
-6655.673168
-6792.413687
-5044.886371
-4969.257771
-5029.837138
-5037.8771
-5109.374403
-4762.059167
-4790.934413
-4754.583015
-4851.957157
-5303.35084
-5346.371314
-5303.804763
-5218.514299
-5286.377148
-5092.503103
-5156.420434
-5239.760696
-3292.688188
-3208.4258
-3196.591359
-3222.437338
-3154.493415
-3211.147282
-3380.289822
-3407.165475
-3344.92383
-3660.621231
-3706.542776
-3734.30672
-7112.322284
-6910.598928
-6921.653402
-6898.701015
-6901.667887
-7091.258715
-7283.32247
-7314.559255
-7343.379553
-7605.164423
-7556.875681
-7618.097003
-7639.200502
-7336.039788
-7401.724852
-7544.060004
-7547.806037
-7343.163626
-5973.749451
-5881.180392
-5924.260834
-5784.791933
-5833.788621
-5920.996978
-6166.465895
-6079.248937
-6164.403332
-5965.436934
-6014.208237
-6105.77677
-4085.954794
-4121.644187
-4021.58456
-3988.089685
-4020.566907
-4504.119049
-4536.846598
-4487.572145
-4678.507695
-4599.603003
-4566.471202
-4265.784844
-4301.049225
-4266.295976
-4435.370423
-4382.669952
-4328.724208
-2872.65951
-2854.574291
-2915.914487
-2748.412263
-2798.996876
-2834.53935
-3049.930998
-3094.223587
-2962.596897
-2973.069944
-2984.427436
-1917.16085
178.9513293
168.3904787
124.5045373
-37.94048741
-30.21993531
-91.39027053
-240.5250988
-218.7441213
-286.6677433
-409.0259938
-380.2496007
-445.1536417
-536.8721575
-508.2689303
-563.1727363
-628.4315268
-604.1513618
207.5908859
183.9449603
141.0997777
-60.30137055
-42.396433
-125.0043392
-300.9164998
-252.1653271
-352.1468918
-481.7338809
-423.2279926
-517.386795
-604.8379493
-550.7757938
-628.4436681
-685.4236698
-640.1463316
270.2802615
219.1903467
178.0339357
-104.516447
-68.43342522
-192.6117929
-416.03931
-323.135685
-475.0838401
-609.5590414
-507.5849738
-642.7647123
-715.3145089
-627.7780419
-732.2545232
-768.6204139
-704.0317038
401.9383176
294.5555133
249.4133913
-221.6199608
-122.9502593
-356.7461677
-647.8594585
-459.0497871
-711.2717971
-826.09024
-654.0814432
-844.9613484
-872.4334168
-750.1784941
-875.3457995
-876.2310927
-793.3558474
680.9862039
454.4819707
488.6850183
-657.8635875
-281.6347486
-859.7239331
-1132.695367
-738.2955702
-1156.836385
-1149.409784
-895.8271782
-1133.136253
-1073.739489
-919.434279
-1053.717263
-1000.17981
-906.2181563
642.1860618
-747.3848936
-229.98468
-1548.765706
-1519.00918
-1228.852867
-1850.321125
-1559.038831
-1247.114209
-1480.038867
-1288.77667
-1128.485596
-1238.410124
-1119.519221
-1031.46454
-3682.340259
-2993.301706
-2482.218693
-2466.741262
-1895.486929
-1658.638945
-1758.734824
-1452.74193
-1337.342806
-1377.084561
-1205.156749
-1145.306458
-4324.067326
-3540.345521
-3466.716863
-2573.734221
-1979.095834
-1943.425216
-1831.819735
-1497.263157
-1476.791123
-1415.157944
-1228.083883
-1217.53949
-3609.586545
-3117.72727
-3338.291712
-2239.876598
-1804.964241
-1956.003166
-1690.155342
-1418.776124
-1490.193029
-1348.681891
-1184.626705
-1223.995349
-2564.116379
-2328.400522
-2633.736488
-1714.443986
-1484.137236
-1733.688006
-1417.476896
-1247.85426
-1382.375639
-1200.977128
-1085.128249
-1164.002373
-1562.712703
-1571.45771
-1772.90875
-1394.719478
-1197.636957
-1054.504421
-4535.256521
-5067.28236
-5185.510316
-3285.546519
-3721.700551
-3427.998483
-4417.815403
-4833.706502
-4638.135493
-5199.800448
-5197.354603
-4692.786023
-3364.572633
-3591.154624
-3345.585529
-4565.315825
-4334.880485
-4071.774716
-2234.426977
-2292.223671
-2149.653794
-3196.875866
-3039.831074
-2930.859685
-2008.57496
-1868.782881
-1835.803555
2534.00109
3741.56379
4519.190118
1129.868867
-1607.373564
537.50303
-2360.419345
-2406.433728
-2835.07727
-444.4801372
-1037.521231
-1484.908577
-6090.430239
-6323.925041
-6408.170659
-4249.88213
-4821.527794
-4474.798729
-3423.047163
-3117.422037
-3880.047729
-2595.188952
-2897.170214
-3065.853719
-2395.477886
-2670.238091
-2414.659894
-6175.91777
-6323.074024
-6283.967058
-6694.725241
-6668.922548
-6501.701039
-3411.289084
-3515.742229
-4280.886366
-2874.449637
-3207.721915
-3151.19778
-3171.914321
-3217.255093
-2872.451216
-4536.082222
-4595.713086
-4535.442303
-5429.01565
-5374.537012
-5285.538844
-2739.663451
-3021.372867
-3483.26239
-2553.088115
-2782.687455
-2618.118492
-3056.854532
-2931.366719
-2671.585225
-3034.170908
-3085.147807
-2991.7943
-3707.344202
-3557.065951
-3498.258503
-1633.318117
-1685.184611
-1694.697602
-1838.276856
-1884.7644
-1616.504067
-2192.945857
-2106.626637
-2084.144771
-6540.981837
-6723.200129
-6714.738898
-6475.43074
-6533.502363
-6314.209357
-4721.075722
-5006.304714
-4406.19302
-6071.898956
-5707.305272
-5595.192511
-5976.338241
-5968.073014
-6366.092037
-5441.481875
-5533.624829
-5482.090993
-6246.197084
-6206.920482
-6066.289108
-5045.742486
-4893.054593
-4444.82943
-5851.516909
-5539.555538
-5613.402019
-5105.754696
-5195.008472
-5445.034304
-6308.31689
-5957.871321
-5972.845644
-5650.888667
-5704.570717
-6092.467979
-4574.391599
-5176.907958
-5085.708095
-3788.727963
-3909.358034
-3758.0055
-4476.32292
-4417.212882
-4367.377924
-3922.359826
-3673.09082
-3509.488104
-4209.210428
-4113.991516
-4213.290565
-3412.006466
-3668.258548
-3905.192171
-5091.10628
-4918.432701
-5013.415898
-4314.387845
-4416.857922
-4592.428535
-3936.355964
-4253.885993
-4005.831232
-2336.021883
-2366.953256
-2279.716846
-2899.459943
-2808.429962
-2766.264568
-1528.021505
-1581.976577
-5381.485112
-6229.708451
-5723.077551
-1984.896924
-2221.984815
-2434.140215
-1960.659481
-2075.887368
-1890.077298
-2442.850283
-2261.015403
-2118.752682
-2086.079585
-2142.866365
-1999.361949
-2307.88018
-2261.005609
-2250.671883
-4902.681949
-4117.371287
-3363.154758
-5457.141464
-5289.26704
-5651.990625
-3736.088716
-4121.108122
-4593.395098
-2388.416114
-2403.926743
-2355.181704
-2690.376487
-2644.090507
-2622.424591
-2585.090626
-2437.251242
-2371.262702
-2556.56244
-2506.192114
-2685.53644
-2197.001097
-2349.647463
-2473.33794
-3250.902736
-3085.690593
-3329.623812
-2766.560205
-3002.611704
-3161.313826
-2789.2138
-2886.518515
-2734.889177
1587.269191
-3047.803086
-3067.243159
-3646.226116
-463.105979
-1225.864854
-1844.860199
943.3335935
-864.677938
-221.7996568
-6155.82793
-6599.126557
-5875.915573
-6283.396811
-5300.721173
-4519.150753
-7080.826859
-6848.825853
-7336.28203
-4901.24245
-5329.164741
-5989.273694
-6453.406466
-6425.092354
-6296.189683
-6378.275096
-6517.062663
-6484.689227
-4958.689419
-4899.069467
-4828.829204
-5003.03267
-5079.778383
-5019.164438
-3274.802506
-3179.513219
-3124.965722
-3388.922195
-3355.638928
-3401.483097
-3055.547915
-3103.848287
-3130.455694
-3448.973382
-3498.865171
-3530.203002
-3403.508615
-3508.110714
-3361.115271
-1717.6267
-1729.945584
-1635.622897
-1950.417796
-1808.344919
-1809.399286
-6714.209651
-6716.395042
-6526.488993
-6491.479887
-6693.080824
-6707.612546
-5822.397946
-5778.023122
-5681.019871
-5816.752785
-5914.299185
-5866.319362
-5439.047772
-5514.600011
-5805.640686
-5129.036602
-5314.745808
-5248.307632
-5440.698979
-5380.2014
-5184.979315
-4863.35602
-5025.538171
-4943.43254
-5178.452942
-5104.014262
-4935.038999
-5492.394772
-5280.846867
-5362.436707
-5901.235468
-5933.391471
-6286.847124
-5433.54645
-5675.62087
-5651.969632
-5696.980646
-5691.010597
-5441.642807
-5325.144168
-5538.798846
-5495.115059
-5620.818543
-5582.533043
-5362.137074
-6118.597434
-5818.747687
-5862.355493
-4119.869694
-3959.774114
-3846.984134
-4094.482014
-4139.593202
-4086.404379
-2884.120472
-2851.715803
-2959.259872
-2668.055577
-2759.204159
-2838.04938
-2678.473695
-2718.877052
-2630.320085
-2762.094875
-2779.957347
-2733.819615
-3076.263096
-3017.69609
-2998.318698
-1542.199346
-2256.420935
-2271.964507
-2212.412879
2384.999677
3113.054129
1926.193683
3227.375669
2681.545021
4273.457545
3486.896964
-3813.062054
-3849.626354
-4582.028324
-798.8636131
-1490.733806
-1985.774075
1164.547669
-1077.902612
-29.04544336
-6370.648707
-6354.545056
-6205.418929
-6480.535205
-6642.031298
-6613.736738
-4717.996417
-4656.964973
-4594.253862
-4780.718784
-4717.315766
-4781.196745
-4591.03924
-4653.165146
-4708.046853
-5231.529787
-5318.976712
-5261.013293
-6720.383754
-6725.376282
-6542.447118
-5863.067767
-5795.663809
-6153.084839
-5188.573206
-5477.219239
-5551.197929
-5269.762718
-5383.972241
-5094.999513
-5406.63988
-5675.779381
-5692.006118
-5607.957793
-5648.322062
-5372.998603
-6363.208612
-5949.492115
-5917.478262
-5634.576063
-5584.795441
-5491.515737
-6023.024514
-6158.875023
-6100.667502
-4517.675021
-4468.551534
-4530.036666
-4351.292469
-4408.760402
-4455.795789
-4308.967906
-4359.631077
-4303.046723
-3919.739062
-4016.109484
-4105.639379
-3841.705711
-3928.704724
-3836.940153
-4115.552885
-4021.606655
-3929.500711
-4722.010583
-4821.208727
-5036.816064
-4545.091225
-4680.655963
-4588.75337
-4858.27566
-4770.519714
-4628.229831
-4196.08245
-4305.37064
-4210.289946
-4495.179091
-4400.482235
-4284.714437
-4648.659355
-4519.334889
-4621.199034
-2542.133498
-2454.307564
-2420.942837
-2509.362352
-2487.034111
-2577.365295
-2308.662382
-2397.729136
-2429.439276
-6338.038407
-6810.172206
-7217.835406
-2063.078784
-2079.209665
-2020.997507
-2160.738297
-2126.370358
-2109.650413
4455.029015
-2692.750145
-2666.441967
-2713.482816
-2560.081487
-2610.444234
-2626.726943
-2574.47557
-2593.864577
-2544.582711
-6792.689147
-7157.498198
-7288.119345
-6834.503953
-7006.988988
-6643.436057
-7386.424522
-7448.144565
-7106.689002
-6080.655156
-6419.233309
-6643.73263
-5873.636175
-6165.034923
-5854.39978
-7076.584243
-6563.434222
-6238.621792
-6272.038473
-6401.360551
-6386.328892
-6583.087274
-6550.265804
-6406.224605
-4844.626167
-4907.628278
-4980.671153
-4770.986057
-4839.365437
-4778.888965
-5200.929456
-5140.206109
-5061.231226
-3255.693233
-3307.811081
-3341.508766
-3246.687946
-3276.278607
-3226.137053
-3372.257077
-3324.107158
-3296.085572
-3641.834677
-3676.233746
-3625.747768
-3778.26149
-3727.267642
-3692.491762
-3439.559522
-3470.504154
-3420.799076
-3574.924031
-3522.341683
-3490.067127
-3583.987395
-3552.679107
-3609.175142
-1832.192773
-1892.094948
-1910.90264
-1865.602745
-1877.936939
-1825.336727
-1968.879157
-1924.48024
-1912.967998
-6533.390973
-6716.062224
-6716.411639
-6642.488784
-6672.71294
-6474.467832
-7121.248228
-6891.541912
-6864.136861
-6924.177516
-6913.962324
-7154.670764
-5635.41827
-5731.311178
-5682.996121
-6035.055187
-5971.082353
-5867.49296
-4049.019268
-4088.407344
-4036.538531
-4208.971345
-4144.943591
-4104.85064
-3848.696482
-3888.367373
-3831.836626
-3983.975755
-3940.235147
-3899.22383
-2887.331645
-2832.268227
-2811.905873
-2950.838416
-2966.569905
-2932.111061
-2309.158649
-1857.302822
-1777.123646
-1731.889934
-1799.302395
-2093.351867
-1286.567331
-1525.169909
-1508.934592
-1707.969644
-1531.03327
-1485.695276
-1901.675711
-1898.111305
-2046.648111
-1608.625556
-1752.370513
-1774.136773
2806.333368
3238.895786
2366.914887
3763.842413
3615.138911
3211.953516
4554.037009
4096.757964
4103.006567
-3479.558595
-3402.057901
-4797.976256
-938.5862756
-1748.519369
-2384.805795
946.0460575
-548.8021395
5.936519111
-1863.750409
-1964.731598
-1566.696904
-3103.329221
-2436.369117
-2281.352522
-6184.042755
-6255.512008
-6016.006856
-6791.31388
-6507.622094
-6422.203703
-6661.781914
-6587.14362
-6868.651041
-1670.908485
-1676.63771
-1626.767887
-1772.961858
-1723.798818
-1719.808952
-1741.787679
-1731.788222
-1777.577648
-2154.735131
-2131.13635
-2219.874791
-1954.267113
-2042.647643
-2064.453382
-7042.865521
-6776.457401
-6725.757942
-6839.866275
-6812.757973
-7066.50802
-6348.884271
-6574.956348
-6613.695307
-1577.481979
-2294.38314
-2276.766295
-2323.398627
-2178.370993
-2227.959595
-2243.161159
-2201.125881
-2213.515979
-2166.05191
-4691.100043
-4971.669806
-5132.887743
-5446.067332
-5090.161864
-4858.37459
-2497.833151
-2451.704116
-2437.635269
-2491.529542
-2470.866024
-2515.858728
-2370.797615
-2420.802829
-2435.657793
-2109.486594
-2558.781808
-2615.05611
-2300.006913
-2462.058874
-1940.64886
-3761.987695
-3070.618189
-3071.006235
-3053.495468
-3078.341267
-3030.360807
-3176.070313
-3126.345466
-3102.797108
-3177.369362
-3152.601564
-3203.097282
-4248.015659
-4193.205227
-4149.184805
-4283.40482
-4239.394428
-4295.237302
-4129.68081
-4184.027261
-4227.068078
-2591.503341
-3195.930653
-3276.092207
-2760.347121
-3042.719661
-2364.501491
-4738.56503
-3845.708226
-3669.271825
93.83328575
-2.553382165
-1.808209494
-97.23828421
-187.9670162
-184.9435903
-272.737805
-350.4417619
-346.1908442
-420.4599946
-482.5309364
-478.1391997
-536.7804946
-583.6394636
-579.7625884
-623.7761648
-657.9873923
-654.5821257
-686.1376654
-709.3374567
-706.879262
121.3268947
69.53165224
68.90240387
-81.09444073
-130.6850636
-126.9283667
-267.6861185
-310.2568728
-303.5852865
-422.7220285
-456.1206795
-448.4861657
-542.2126692
-566.9843418
-559.9483215
-646.6960779
-681.1009198
-666.9075577
-706.2579795
-726.5125196
-715.8979504
-742.9257115
-755.6509727
-748.6528129
131.0201756
71.35335135
70.70671405
-105.3831335
-161.224244
-151.1857041
-314.0239476
-358.9818925
-343.1405624
-475.8601296
-508.8566015
-492.393162
-591.6848889
-614.2793233
-599.6533372
-700.4311099
-724.1691087
-700.2338656
-743.1749048
-757.9433842
-740.663564
-769.4329117
-777.6296955
-766.2242524
156.2373023
77.7582009
75.51571898
-152.5538216
-223.0056878
-203.4671259
-404.1931511
-453.6791894
-424.4842717
-571.8794051
-602.4827699
-574.37851
-675.3291182
-694.0571952
-670.6812272
-777.1639458
-785.4198321
-752.6994886
-794.3298565
-800.952955
-778.137317
-805.5242173
-808.4210135
-792.6332613
208.3092671
88.52889618
86.10281848
-254.2166389
-351.2892996
-308.8252685
-573.1308948
-625.4419541
-572.0186038
-734.32023
-756.7582438
-712.1217947
-798.6494012
-807.2271746
-775.6665851
-875.4058838
-859.51301
-821.0162313
-856.1633486
-851.9867203
-825.8173132
-847.2833873
-843.1059476
-825.4168722
302.7686141
67.62506622
83.14276819
-534.3449103
-667.9543425
-558.1194989
-903.4802849
-939.3099798
-844.9463744
-977.4776973
-978.9168944
-915.5917308
-960.9455594
-953.1851708
-914.1238706
-984.8744995
-941.0043101
-899.9230757
-922.107804
-904.6132545
-878.599771
-889.1497734
-876.3645605
-860.0219952
564.8484736
247.627169
266.3890051
-1477.998891
-1438.988957
-1295.982573
-1305.262362
-1262.083614
-1187.367029
-1148.393219
-1116.642198
-1075.890919
-1088.974863
-1018.350155
-981.5346618
-981.3223877
-950.3523629
-928.8946938
-924.9167219
-904.1198254
-889.8461232
-3186.732919
-2985.29574
-2742.676694
-2205.974322
-2030.086546
-1892.450345
-1638.01628
-1540.471067
-1477.682439
-1316.877903
-1260.539909
-1228.889862
-1162.328415
-1071.796108
-1048.905268
-1021.13578
-979.8073361
-967.6709878
-946.0595563
-919.2997384
-911.9394782
-4337.404384
-4029.036855
-3994.908886
-2589.467935
-2350.31786
-2311.187251
-1825.066695
-1697.600047
-1675.163365
-1411.297216
-1340.487614
-1328.710339
-1181.679691
-1088.606073
-1085.480316
-1031.460206
-984.8017377
-985.6836124
-946.9301275
-917.0103588
-918.6796727
-3848.940327
-3643.261407
-3737.011862
-2445.865068
-2246.740773
-2306.508131
-1784.073065
-1666.773938
-1690.62418
-1395.983022
-1327.490244
-1338.651126
-1142.465342
-1062.071018
-1080.619808
-1007.230771
-962.0329815
-976.8651571
-924.8381796
-895.4180274
-906.9629368
-2826.884755
-2724.992288
-2846.704301
-1987.490623
-1866.349365
-1976.57076
-1563.822025
-1481.720826
-1537.901113
-1282.297121
-1229.488479
-1259.968247
-1053.639015
-996.7514659
-1033.625247
-951.4754567
-913.3939174
-940.6674867
-881.2898213
-855.5882982
-876.1665607
-1803.929471
-1782.186026
-1892.077842
-1440.083865
-1394.619156
-1513.120454
-1262.389478
-1221.310583
-1289.361786
-1111.136101
-1079.184402
-1119.728046
-953.0838782
-881.1514958
-829.1662199
852.6451808
-3935.937375
-3849.116071
-4164.457536
-3820.947338
-3893.952008
-4140.436924
-2967.644113
-3087.644485
-3223.116138
-1676.00797
-1683.18961
-1599.406817
-6210.121729
-6201.918541
-6369.155714
-5934.640179
-5809.675395
-5844.644021
-5213.431017
-5256.051321
-5348.291575
-6342.599088
-6194.437301
-6193.659545
-5876.69098
-5905.799146
-6037.765138
-3548.918217
-3639.812436
-3712.052975
-5196.638275
-5114.49509
-5159.028321
-1518.393342
-2015.013469
-2124.719875
-2178.349649
-4199.530164
-3978.688185
-3639.492049
-2725.050248
-2684.355563
-2768.093482
-2207.196114
-2281.795506
-2307.726573
-3432.868787
-3370.028062
-3458.831672
-2852.023064
-2936.631829
-2984.449775
1458.433865
1605.136217
1269.626806
883.3392383
438.36775
447.2492047
-5339.829247
-5053.69862
-4623.447365
-5573.158272
-5608.609469
-5713.499011
-5582.909442
-5489.37827
-5525.018486
-6090.483236
-6103.23707
-6241.105746
-6167.311934
-6043.694426
-6058.546379
-4034.685795
-3983.112105
-3943.382953
-2979.13949
-2956.24828
-3006.034805
-2678.466818
-2722.754513
-2741.968541
-6132.758555
-6097.283089
-6310.005233
-6342.950475
-6179.640621
-6147.605373
-4802.694767
-4851.421301
-4926.928221
-4760.359321
-4695.384036
-4744.970442
-2602.469996
-2586.82351
-2630.333969
-2491.141404
-2236.901839
-2299.877196
-2062.760322
-2048.757152
-2123.085663
-1706.455343
-1730.886533
-1594.936651
-1677.028103
-2016.82482
-2034.306076
-3289.398689
-2936.337104
-2998.924851
-2000.99941
-2020.75171
-1935.459041
-4569.327403
-4783.322668
-4516.173844
-4169.59773
-3779.342893
-3771.284093
174.9481544
171.0944313
70.52571886
70.39010268
122.2472361
-34.20118756
17.2458146
15.5787029
20.93798521
19.40763434
-32.00625229
-142.6161889
-135.4980205
-86.03950362
-230.8750434
-184.6347464
-192.9830456
-172.7695753
-177.5216803
-224.0763003
-329.6687114
-318.4803307
-276.2925605
-396.9265687
-359.4479525
-371.00793
-342.9659412
-349.6929744
-387.6903466
-477.9462695
-465.5648071
-432.9201953
-524.9427569
-496.8122468
-508.9015123
-479.8769392
-486.7882799
-515.7477094
-586.7444767
-575.6120991
-551.7048504
-618.2804487
-598.228694
-608.7991379
-583.5670406
-589.5212906
-610.4189542
198.0415985
190.2413226
73.70953697
72.34625201
135.5237212
-53.40010233
9.005048519
6.178914476
13.67824055
11.48997822
-47.49426362
-186.9967307
-173.0495626
-114.3836403
-281.9674462
-229.1200383
-245.8295074
-203.005107
-214.9576475
-265.8481126
-399.2775692
-377.573393
-331.5680672
-459.2450892
-420.1792049
-442.4738128
-384.7321487
-401.0255872
-439.8346506
-549.565703
-527.7906636
-495.1196486
-584.5893011
-557.6299705
-578.6549936
-523.003382
-539.1871838
-566.6297672
-649.5156455
-630.8274701
-608.9705154
-668.4768553
-650.6353885
-668.4776832
-620.9975035
-634.8687363
-653.3711716
250.0512566
233.1996012
83.27468867
80.37634925
166.1934192
-89.9271959
-5.73964533
-11.89329214
2.921533862
-0.9516938232
-78.14083523
-274.5058212
-246.3528241
-170.5979056
-379.848487
-316.2995213
-349.1745257
-265.5138479
-288.7481413
-349.1985688
-526.5752856
-487.464514
-436.8787526
-570.9074296
-531.9843841
-571.1239275
-468.2440433
-497.909907
-537.1565352
-671.0140604
-634.3765556
-604.8561184
-683.0459755
-660.3077326
-694.9060758
-602.5466856
-629.6174244
-653.821056
-746.3541043
-719.2434608
-702.6803048
-745.5190319
-733.3695165
-758.3672063
-688.4138737
-710.1213466
-724.0425383
358.9983307
323.7513672
88.52080387
89.23483597
227.2551147
-178.3785072
-47.55108602
-70.99435489
-20.12656107
-31.46014571
-146.762574
-472.6265885
-404.7923046
-298.5524257
-573.0594638
-496.2266122
-569.0430451
-388.7388418
-436.9285115
-510.7277821
-761.2380154
-688.294744
-636.4315289
-762.707288
-730.0630503
-799.0559614
-616.3394604
-669.0854855
-705.1300596
-858.0018024
-805.1423902
-787.1895744
-828.552274
-818.5237586
-866.7381096
-733.0124531
-774.061706
-787.8194482
-876.5256833
-840.9096845
-835.7561605
-847.2531357
-844.6502643
-876.8678091
-785.2893372
-814.097736
-819.6397347
604.2265744
520.6001481
-145.6204675
36.03735453
333.6794931
-485.0259329
-246.48596
-380.058456
-106.7267353
-161.7705225
-365.5134381
-995.322415
-811.2892087
-671.6072406
-979.9486862
-911.7732542
-1082.973289
-658.6388818
-770.9412381
-848.2909185
-1163.827394
-1045.18864
-1022.137759
-1058.349204
-1055.4797
-1161.168858
-875.7399672
-960.8753763
-972.9084493
-1114.181151
-1044.262252
-1053.29427
-1019.99242
-1032.731212
-1094.119772
-918.5552266
-974.3682402
-968.2248174
-1034.651086
-993.5432196
-1006.718025
-968.6075259
-980.7538054
-1016.747901
-910.3183848
-945.1466103
-937.205478
111.0374092
204.9030309
609.2911324
-513.9457029
-182.8709156
-366.5363877
6.702827758
-69.17234567
-350.8796563
-1743.547919
-1590.055862
-1660.993701
-1455.072362
-1520.92419
-1646.730601
-1274.186291
-1395.281948
-1349.997431
-1408.996694
-1336.524088
-1393.490755
-1237.115059
-1284.415699
-1345.448234
-1157.336863
-1221.240054
-1183.27759
-1193.802525
-1156.208724
-1194.457539
-1091.628415
-1122.036169
-1154.338514
-1052.639886
-1087.933701
-1062.167746
-3412.08356
-3209.681993
-3449.321576
-2827.37197
-3005.996686
-3185.382337
-2243.726701
-2148.951539
-2352.125949
-1830.297113
-1976.996395
-2055.48312
-1767.992842
-1879.825417
-1750.22094
-1641.300326
-1595.937949
-1704.453915
-1420.735399
-1502.095094
-1540.138496
-1403.039996
-1455.544154
-1381.494264
-1311.513153
-1288.660368
-1350.068174
-1188.715516
-1235.236241
-1254.599424
-1184.409558
-1211.553159
-1168.654113
-4028.906771
-4039.574336
-4338.85496
-3524.751589
-3769.401122
-3768.764469
-3716.36757
-3755.851488
-3518.016778
-2345.756101
-2361.261662
-2597.612686
-1985.420254
-2159.055161
-2149.168553
-2112.448268
-2147.109807
-1973.642206
-1703.644642
-1707.705023
-1836.072354
-1501.006475
-1596.910093
-1592.817844
-1568.667364
-1587.873063
-1493.133313
-1343.717863
-1346.280533
-1418.115681
-1230.027189
-1283.988063
-1281.841444
-1269.198668
-1279.145271
-1225.961913
-3433.851113
-3541.620864
-3731.922829
-3192.712031
-3362.470669
-3268.47362
-3530.915118
-3451.356708
-3278.579849
-2078.545017
-2169.595151