/*--------------------------------*- C++ -*----------------------------------*\
| =========                 |                                                 |
| \\      /  F ield         | OpenFOAM: The Open Source CFD Toolbox           |
|  \\    /   O peration     | Version:  v2012                                 |
|   \\  /    A nd           | Website:  www.openfoam.com                      |
|    \\/     M anipulation  |                                                 |
\*---------------------------------------------------------------------------*/
FoamFile
{
    version     2.0;
    format      ascii;
    class       surfaceScalarField;
    location    "1";
    object      phi;
}
// * * * * * * * * * * * * * * * * * * * * * * * * * * * * * * * * * * * * * //

dimensions      [0 3 -1 0 0 0 0];
oriented        oriented;


internalField   nonuniform List<scalar> 
6464
(
0.4583197693
0.002198607379
-0.002160473819
0.4584149939
0.002080479929
-0.00196724919
0.4584724293
0.001824819916
-0.00167278335
0.4584931983
0.001514585041
-0.001347493138
0.4584848106
0.001197682553
-0.001053353603
0.4584802576
0.0008880960051
-0.000823630227
0.4584480353
0.0007255949619
-0.0005937639408
0.4584583047
0.00048545924
-0.001806966912
0.9186048986
0.0002832376696
-0.0004311693918
-0.001129731513
0.9186727646
-2.680381925e-05
0.9157470723
0.9137731962
-0.0043748581
-0.2291278046
0.2290640817
0.004438598578
-0.004338282184
-0.2292986375
0.2293481003
0.004288819394
-0.003923991348
-0.2294013546
0.2295437203
0.003781625643
-0.003278454613
-0.2294458613
0.2296322279
0.003092088046
-0.0025711218
-0.2294301864
0.2296145195
0.00238678866
-0.001932199156
-0.22938281
0.2295385829
0.001776426268
-0.4588446911
-0.002620010786
0.460233679
0.001231022916
3.375456199e-05
0.460874538
-0.001681492889
-0.4592267996
-0.001983354103
0.917975349
0.0007301239875
0.001882779735
-0.001219166627
0.9179085771
0.0002445020796
0.9142834036
0.9140176983
-0.2289354215
-0.01120751325
0.2288671331
0.01127475392
-0.2299594012
-0.0107895802
0.2303455723
0.01039676784
-0.2304997133
-0.008745307833
0.2311531398
0.008085180875
-0.2304445119
-0.006138135958
0.2308569976
0.005725461772
-0.2303858985
-0.004672301388
0.2307281912
0.0043300087
-0.003115105799
-0.2302340664
0.2308929347
0.002456237532
-0.4627994989
0.0007352850924
0.4615489559
0.0005152578882
-0.4599139437
-0.0007330689266
0.4598316071
0.0008154054856
-0.0003841217065
0.9194904505
-0.0006945563456
-0.0004364233939
0.001273916031
0.9162505394
0.0005877223191
0.9149695973
0.9146054206
-0.2284804434
-0.02280069797
0.2282628295
0.02301406872
-0.2319653358
-0.02232575188
0.2326303731
0.02164491778
-0.2342069628
-0.01844129586
0.235556822
0.01707001218
-0.2340244372
-0.01249734399
0.2355754872
0.01093006787
-0.2343125712
-0.001920024572
0.2384690563
-0.002237355687
-0.003085923122
-0.23170194
0.2316911819
0.003096681212
-0.4614357771
-0.004578272055
0.462517737
0.003496312156
-0.460470371
-0.002401947018
0.4613539595
0.001518358523
0.002272381784
0.9191573875
-0.001047885872
-0.0008914329669
0.001637641815
0.9168852794
0.0007487967776
0.9158584424
0.9153542174
-0.2271833398
-0.03334456786
0.2266285603
0.03389373057
-0.2347822185
-0.03364503049
0.2356788173
0.03272877369
-0.2404268635
-0.0273354855
0.2424360895
0.02529438163
-0.2482636958
-0.01189538958
0.2468116645
0.01330944011
-0.2372415771
-0.01071618718
0.2391469798
0.008791356358
-0.004575535297
-0.2329741376
0.2334684549
0.004081218034
-0.4640251736
-0.005219672238
0.4654435956
0.00380125031
-0.462162995
-0.002823875479
0.4629841515
0.00200271897
0.002911812371
0.9206564485
-0.002551594854
-0.001859278439
0.001545842159
0.9182512496
0.0006893902128
0.9167148943
0.9160436076
-0.2240480648
-0.03947205892
0.2229123838
0.0406066507
-0.2398262001
-0.03835679113
0.240106952
0.03806484553
-0.2545767803
-0.02788457493
0.2525579813
0.02986924761
-0.250467683
-0.02546823861
0.2531142661
0.02277607837
-0.2459844279
-0.01461401427
0.2485337371
0.01202888551
-0.004781979368
-0.2363054033
0.2375584735
0.003524665419
-0.4666363907
-0.005236488894
0.4678177834
0.004055096204
-0.463401491
-0.003207141906
0.4637597204
0.002848912532
0.002205978234
0.9224921991
-0.0019150336
-0.002126695284
0.001143620957
0.9193136069
0.0004374965459
0.9174210187
0.9164811041
-0.02882373578
-0.1088175831
0.1082365608
0.02940475809
-0.02333027918
-0.2494788171
0.04425797691
-0.02374861331
0.1257214338
0.1265782988
-0.03681003439
-0.2565509336
0.2595135113
0.03382531136
-0.2617494085
-0.02389011605
0.2637643387
0.02182818087
-0.2556100463
-0.0157133351
0.2581223622
0.01315063425
-0.006451318434
-0.2426039737
0.2443491721
0.004686945718
-0.4689674156
-0.004178655471
0.469564632
0.003581439045
-0.4645603783
-0.002605966923
0.4653442631
0.001822082072
0.0008839589749
0.9236793481
-0.0009164954854
-0.001154612524
0.0002700578543
0.919927508
3.456412776e-05
0.9176565124
0.9165156682
-0.03060537784
-0.1388336092
0.1416482991
0.02779068794
-0.03267546729
-0.2687252366
0.2719307424
0.02945744888
-0.2716542568
-0.02104966335
0.2741462617
0.01850858654
-0.2653282886
-0.01158474555
0.2673452564
0.009512738488
-0.005723566155
-0.2489491106
0.2504602544
0.004180676779
-0.4705284837
-0.00207028706
0.4712856948
0.001313075927
-0.4659462228
-0.0008016322047
0.4664288759
0.0003189790803
-0.001145133571
0.9240434009
0.000651694638
0.0001293861892
-0.0009716555158
0.9197540299
-0.0005316951752
0.9172165521
0.9159839731
-0.01366365584
-0.1547286111
0.1553124677
0.01307979924
-0.01774929746
-0.2787640601
0.2798825026
0.01662259526
-0.2796947152
-0.01290398363
0.2809730301
0.01156882603
-0.2722383099
-0.007301795173
0.2734848721
0.005984966296
-0.002332434418
-0.253729612
0.2546659546
0.001357453085
-0.4722967039
0.0007848991656
0.4730990176
-0.001587212922
-0.4666094025
0.001887220788
0.4666642452
-0.001942063545
-0.003553489021
0.9231551406
0.002443676973
0.001998072372
-0.002466664234
0.9186672051
-0.001267989962
0.9160178778
0.9147159831
0.004213655427
-0.1529808314
0.1520091999
-0.003242023937
-0.0001527593277
-0.2804153069
0.279653383
0.0009046097613
-0.2834341618
-0.00138286181
0.2836573175
0.001095294566
-0.2761469755
0.0003661416414
0.2766187819
-0.0009162963762
0.002167595469
-0.2558361685
0.2560084798
-0.002382214508
-0.4729511812
0.004808236258
0.4723668452
-0.004223900351
-0.4663761946
0.003995111143
0.466611527
-0.004230443605
-0.006180569586
0.9209811255
0.004469158249
0.003885426449
-0.004064201765
0.9165508373
-0.002052366626
0.9140060427
0.9126636165
0.01391010084
-0.1434347876
0.1420796279
-0.0125549412
0.01319580486
-0.2761088734
0.2748243661
-0.01193075704
-0.2837125994
0.01078860641
0.2817032197
-0.008851752667
-0.2769499247
0.007821144359
0.2765254975
-0.007483083486
0.006356173505
-0.2546224066
0.2540979495
-0.005873517088
-0.4714639403
0.00861492081
0.4702816214
-0.007432601896
-0.4667274502
0.006363986802
0.4657503996
-0.00538693616
-0.00859425202
0.9177336047
0.00611854605
0.005723226721
-0.005603763427
0.9135603487
-0.002761307422
0.9111635867
0.9099023091
0.01723785573
-0.1328993478
0.13157886
-0.01591736787
0.02061244233
-0.2705629804
0.2694871103
-0.01957340022
-0.2797045455
0.01494179027
0.2814506692
-0.01677780661
-0.274432017
0.01615086142
0.2734906203
-0.01529636298
0.009919022709
-0.2504623458
0.248952888
-0.008444620519
-0.4688650961
0.01178459561
-0.01013915275
-0.4647202193
0.008686431941
-0.007428054968
-0.01074889324
0.006415889251
-0.006944110165
-0.00337955013
0.1578946518
0.01629460491
-0.1569950159
-0.008315510075
-0.008878730687
-0.1398731988
-0.03389004102
0.143157862
0.1552058565
-0.002371397942
-0.1562584102
0.001897468887
0.001526482742
0.1584251838
-0.006830537647
-0.00736365019
0.1445800217
-0.01319691833
-0.1460111149
0.00738310205
0.007244909533
0.154074014
0.002855258709
0.002490239248
0.133363602
-0.01703267169
-0.1346648991
0.01833396881
0.01535459933
0.1431355232
0.01878012361
0.1318213341
-0.1054615272
0.1041448246
0.03098325478
-0.1364007691
-0.03445568449
-0.1228142364
-0.02492578336
0.1244097406
0.0423037521
0.009322374525
-0.04198876006
-0.009637366562
0.02506598527
-0.07093856621
-0.02725462601
0.07312720695
0.01542365389
-0.1538576601
0.2810574818
0.02217043362
-0.2786233052
-0.02460481224
-0.2677408623
-0.03658360451
0.2716466879
0.04850580795
0.0008259940436
-0.04859832311
-0.0007334788799
-0.04532732834
0.003555374761
-0.002940094266
0.04471204784
-0.001531209197
-0.1538210201
0.2821485224
0.004357521243
-0.283067527
-0.003438545466
-0.01929400709
0.2826021115
0.03906200231
-0.00423845032
-0.03941759915
0.004594047157
-0.04216476193
-0.001679784553
0.001227686191
0.04261686029
-0.01184156485
-0.144790141
0.2738672884
-0.0102442182
-0.2763371643
0.01271251548
0.001363522524
0.2806321279
0.0702789864
-0.01098560117
-0.07078236351
0.01148897828
-0.07403456237
-0.01009401832
0.07356318542
0.005353820339
0.005211574937
0.008103877044
0.03071320555
-0.007809435916
-0.03100764667
0.06369790036
-0.01130058745
-0.06413773659
0.01174042367
-0.06689348013
-0.01155718559
0.0119361802
0.06651448553
0.004115077061
-0.04569656193
-0.003745843471
0.008946595917
-0.009161193329
0.04251834951
-0.1519260533
0.02390334409
0.1540364367
-0.01276914994
-0.01324457756
-0.08270902886
-0.008554147922
0.08343726209
0.0167725106
0.0441729107
0.004280295851
-0.04433812949
-0.001497175786
-0.04169769671
0.001030110567
0.0001699414203
-2.251911484e-05
0.04835838564
-0.07876816217
0.002128528749
-0.002087002365
0.07872663579
-0.04707819455
0.04688996676
0.0003581692064
0.04156493723
-0.001732511949
-0.04132960107
0.04384866025
0.003879625207
0.0008351523736
-0.04708735288
0.002842236723
-0.07890624387
-0.002704155026
-0.009906449006
-0.07453562774
0.005223657785
0.005183856591
-0.00410700181
0.004287678096
0.03888132603
-0.1502315407
-0.01009046484
0.1488304131
0.005862856141
0.005628736355
-0.07770364167
0.004091779871
0.07717829911
-0.007673439123
0.07381946892
-0.009443498702
-0.07428241923
0.04178438022
-0.001899227538
0.004081376172
-0.007403615135
-0.03943232437
-0.03918752866
-0.008874497492
-0.1515145048
0.005196564735
0.004960896859
-0.01147349549
-0.06735399363
0.01193400899
-0.01121768083
0.0116176778
0.06987898943
-0.02934721255
-0.007433946764
0.006997380056
-0.02970389476
0.008460559252
0.01155111552
-0.007413105943
0.03091334997
0.01306261878
-0.04391499069
-6.097805278e-05
0.01966157139
-0.03598754589
-0.02169579945
0.03802177395
0.0454338552
-0.007711225359
-0.03755146972
-0.0001711601203
-0.01580000563
-0.1341320139
0.2654240799
-0.01916041507
-0.267276081
0.02100006909
0.01550687729
0.2715531646
0.03873793231
-0.007411675004
-0.03112854749
-0.0001977098091
0.06481663821
-0.0132030421
-0.06541017809
0.0069295648
0.00686701718
-0.03333553506
-0.006616374726
0.006710285356
0.03324162443
-0.07090867797
0.07268846314
0.0232862001
-0.009610018875
0.01794701206
-0.08172364752
0.02612105995
-0.1493437864
-0.01416887947
-0.01453444737
-0.00666417922
-0.03348155495
0.006810199112
-0.03547285068
-0.00684428984
0.007298396625
0.0350187439
-0.1388959457
-0.01622427463
0.01765357833
0.137466642
-0.07031070239
0.06983153723
-0.01073851567
0.06692583017
-0.01103866572
-0.06736065995
0.073376517
-0.009651066398
-0.01060217609
-0.07069412747
-0.01577666386
-0.1403287144
0.01720943253
0.02027452096
-0.05226507478
-0.01898961097
0.05098016479
0.02503375236
-0.06885509149
-0.02711722709
0.03788148002
-0.1222656369
-0.01971582883
-0.02095578987
0.06194863539
0.06310714019
-0.05593515512
0.0549589384
0.02125073769
0.03144905545
-0.0005357054804
-0.07912126581
0.02253195848
0.080936283
-0.01204825035
-0.01229872532
-0.04214391002
0.05751060669
0.01608235877
-0.035777859
0.03741381092
0.01802561947
0.01489150934
-0.04397280058
0.02352651472
-0.07724376521
-0.01259107237
-0.01281294294
-0.04085160228
0.002584766972
-0.002573190653
0.04084002597
0.002270273239
-0.04116201565
-0.001959859873
-0.03972796694
-0.003214571705
0.003128106538
0.03981443211
-0.003449968695
-0.04003463149
0.003756633249
-0.006167813683
0.03642720841
-0.03548230044
0.005222905721
-0.009699757487
0.02207670866
0.03305690403
-0.07213086092
-0.01071744829
0.01111182555
0.07173648366
-0.03833071466
0.03648063623
-0.007849679055
0.03639487495
-0.006372326321
-0.03619036231
-0.0341713021
0.03821347865
-0.003811102803
-0.0002310737448
-0.006887029162
-0.03915491086
-0.01056454721
-0.07256576307
0.005533536468
0.0054659129
0.0628363001
-0.0128807801
-0.06334275007
0.01338723006
-0.0131607844
0.06426919777
0.0068619488
0.006846276042
0.01893638033
0.02881521992
-0.009013667932
-0.04360674373
0.006222591217
-0.005999715824
0.04338386834
0.006642524846
-0.04364076005
-0.006608508522
-0.03945611336
-0.0009631551613
0.0008537616648
0.03956550686
-0.001316824679
-0.03963654482
0.001497256139
0.04029624034
-0.001034460051
-0.04057860497
0.08086917152
-0.0003003288155
-0.08116248044
0.0005936377369
-0.0818789543
0.001650485748
-0.001454707635
0.08168317619
0.07963568222
-0.002559921758
-0.07996565013
0.002889889674
-0.000897561802
0.001188747067
0.08057798626
0.04028083268
-0.0009477474981
0.04157430571
0.00241628576
-0.04172031824
0.08225158148
0.00531768273
-0.08228365791
-0.005285606302
-0.08213474937
0.007725794458
-0.007827623607
0.08223657852
0.00234758927
-0.08203870818
-0.002187835389
0.004555431316
-0.004511872878
0.08220802304
0.04169610664
0.002462966046
-0.03810328774
-0.004635474674
0.004817442192
0.03792132022
-0.001875242492
-0.03222250258
-7.355703173e-05
-0.004663125956
-0.03832659227
0.004886430488
0.006159108154
0.03655458307
-0.006318816274
0.006938688996
0.03495274487
-0.006625497699
-0.03526593617
0.06858607044
-0.01136927998
-0.06901727736
0.0118004869
-0.03597088538
0.007436723695
0.005491314129
0.03709500243
0.01917365023
-0.0002372699072
-0.01278785749
0.013150901
0.03608289791
-0.03879889235
0.002715994439
0.03445089582
-0.00699108078
-0.03452261333
0.007062798289
-0.03210310863
-0.006959743626
0.00662755141
0.03243530085
-0.004834729385
-0.01186962921
0.01234562568
0.004358732915
-0.007670956098
-0.03306358419
0.008631431653
-0.03028040412
-0.007685057135
0.006419474608
0.03154598664
0.02666124199
-0.04782300854
-0.02493365829
0.02265601847
0.02343940638
0.01904611307
-0.03420526096
-0.020828398
0.02783536687
-0.05824709044
-0.02953986709
0.05995159066
-0.05236447939
0.02929076732
0.02413422358
0.02560073047
-0.0457160802
0.003880852754
-0.005791226795
0.04762645424
-0.04105118254
0.04030983012
0.0008892176733
-0.0001478652543
0.03921290964
0.0006015258902
-0.03945849125
-0.0003559442808
0.04273034965
0.002676791408
-0.04335543532
-0.002051705739
-0.04048132668
-0.003683152513
0.003826519601
0.04033795959
-0.04249570844
0.003517740047
0.04287917001
-0.003901201618
0.03774302013
0.006931936707
-0.005989379227
-0.03868557761
-0.03738990723
0.03751617858
1.582489286e-06
-0.0001278538394
0.04315533812
-0.00354000593
-0.03939448373
-0.000220848451
0.04280053036
-0.00296583291
-0.04313246176
0.003297764315
-0.04394753664
0.006008019135
-0.006932471708
0.04487198921
-0.03988128383
-0.02786474018
0.05627582914
0.01147019487
0.001860546048
-0.04271772672
-0.0001940018615
0.0428990913
0.00657069542
-0.04282726188
0.08107457619
0.01205401181
-0.08065258863
-0.01247599938
-0.07886559279
0.01461145337
-0.01529141084
0.07954555025
0.00857329227
-0.08197156793
-0.008736473706
0.0111670717
-0.01152906296
0.08143656746
0.04287198515
0.006249697371
-0.04045574494
-0.001122884726
0.0007396856608
0.040838944
-0.03693829407
0.03702304061
0.000170006953
-0.0002547534948
0.0001341261164
-0.03724876028
-0.000275273066
0.04497127449
-0.002717503763
-0.04700916537
0.004755394644
0.003666569923
0.03841364915
-0.004337198939
0.002568323966
0.04163611276
-0.003502639942
-0.04070179678
0.03893894703
-0.004232351265
-0.0388981237
0.004191527938
0.07570100227
0.004553382866
-0.008581784356
-0.07633572673
-0.007243028303
0.07476658009
-0.07518687825
0.007663326459
-0.0764411115
-0.006360777386
0.006775066416
0.07602682247
0.03980043309
-0.003192655392
-0.04005774639
0.07809672192
-0.004489993727
-0.07852753175
0.004920803554
-0.00307877285
0.003419584811
0.07929487026
-0.006001514697
-0.07687352177
0.006433924969
-0.004901038488
0.005292969156
0.07770479125
0.03975789986
-0.003172038476
-0.01140869491
0.01177843639
0.06821632896
0.03468723115
-0.006578776125
0.06663618734
0.006658866837
-0.01284459269
-0.06711464071
-0.03802374853
-0.009449115533
0.01905770893
0.02841515513
-0.0414692561
0.01923991716
-0.01967397975
0.0419033187
-0.03172573082
0.04155431246
0.02625431627
0.01952784856
-0.04067823244
-0.02031887222
-0.02899672445
-0.002283892947
0.03146368872
-0.0001830713262
-0.006149655527
-0.02262152098
-0.0002255479438
0.03348153771
-0.007295606518
-0.0336565586
0.007470627403
-0.00748551298
0.00803857343
0.03389783537
0.01968285542
-0.01941497906
-0.0002678763551
0.01395482825
-0.01669476786
0.00259139459
-0.01330839961
0.01260264804
0.002182041665
0.006647062624
-0.03154318066
0.03283527101
-0.007939152976
0.009311136314
0.03328870762
-0.00816150531
-0.03443833862
0.03413660804
-0.006763333078
-0.03445840712
0.00708513216
-0.04123381262
0.02026454482
-0.0211108484
0.02792742652
-0.0001695155007
0.03151731564
-0.03090771606
-0.0006095995788
0.04566212145
0.01278300279
-0.04459198793
-0.01385313631
-0.04222256326
0.01357248347
-0.0143567334
0.0430068132
0.04734237236
0.01174748693
-0.04534895634
-0.01374090296
0.01196952228
-0.01226365796
0.04595625713
0.0137964915
-0.04154342597
-0.01447562879
-0.03895566458
0.01468646008
-0.01555416197
0.03982336647
-0.04172120284
0.04296966673
0.01799145326
-0.03781604412
0.036946862
0.00118477759
-0.0003155954771
0.02635316061
-0.02626787012
-8.529049579e-05
0.004408905212
-0.04331301751
-0.006811967905
0.002491473293
-0.001907189053
0.04214606541
0.03890799902
0.0005315267102
-0.0002266160895
0.0006492837964
-0.03829383661
-0.0001714913049
0.0004200451115
-0.03771939408
0.03911280138
-0.001813452418
0.001063701599
-0.002190238221
-0.04136917181
-0.003439199116
-0.0403357453
0.003293617743
0.03775440958
-0.03633876858
-0.000351939402
-0.03431196345
0.03528939837
-0.0005573898017
0.03568750456
-0.03528023633
0.006524668472
0.0416641951
-0.0003920454712
-0.002165034579
-0.03201239195
-0.0001345369253
-0.003519228416
0.004392742859
0.04192701591
0.05103562464
-0.007666023467
-0.0002142630614
-0.003579792426
-0.03630463623
-0.03773036679
-0.007025972805
0.007608802215
0.03714753738
-0.00546537794
-0.03629975818
0.00403476933
0.03772554244
-0.006072063063
-0.03711885732
0.03601557309
-0.005977106368
-0.03611930655
0.006080839824
-0.03700810534
-0.005850678498
0.006281556722
0.03657722712
0.03402572165
-0.006921607906
-0.03325376927
0.03710817907
-0.005853749801
-0.03745642261
0.006201993341
-0.03820745043
-0.005351990448
0.005211693144
0.03834774773
-0.00580263562
-0.03724587329
0.006040403569
-0.005654108202
0.005650324731
0.03711196254
0.03609294232
-0.004351113621
0.007390319561
0.03239221119
-0.007596197632
-0.03218633311
0.03241552958
-0.007100431653
-0.0326671734
0.007352075473
-0.00733732932
0.007691366926
0.03312750011
-0.002257491134
-0.04629872246
0.04441265408
0.004143559511
-0.008306333028
0.008757984032
-0.04033293483
0.006112632828
-0.04332615404
-0.006734015425
0.02781766111
-0.03588191714
-0.0002420770037
-0.0424113265
0.04030914688
-0.0001553115133
-4.707906172e-05
0.0413065644
0.006198006693
-0.04398965197
-0.003514919125
0.01010889573
-0.01090181382
0.04813529045
0.005088729258
-0.04730113325
-0.0001989225056
0.009193049613
-0.008255259007
0.0403687738
-0.04273820207
0.007748130531
-0.008024106441
0.04301417798
-0.04300853913
0.04336587383
0.008835714906
0.005975200091
-0.04718519329
-0.03634245802
0.03664317673
1.788031792e-05
-0.0003185990274
0.0002415052715
-0.03676416807
-0.0004156312682
-0.001004171703
-0.04010971949
0.0006581462568
-0.003215298245
0.005757383123
0.04242918961
0.02559239448
-0.02527814571
-0.0003142487681
-0.0005661058587
-0.03570851367
-6.783849247e-05
0.03930947257
-0.005882101556
-0.04003623998
0.006608868963
-0.03794901297
-0.005152425245
0.004364860978
0.03873657723
-0.005183954908
-0.0377973399
0.00477384438
-0.006265727017
0.007416935239
0.03815826435
0.02312233869
-0.02273621845
-0.0003861202426
0.04171723343
-0.04034769232
0.001198782855
0.001973420901
0.03738065358
-0.006570594503
-0.03864157481
0.007263156353
-0.004268357404
0.003656433534
0.0423291573
-0.0208248495
-0.0002859989028
-0.03576213311
-0.00653438327
0.006284320398
0.03601219599
-0.02745503331
0.03059746995
-0.003024413021
-0.0001180236161
-0.009637840443
-0.04273018971
-0.006030384079
-0.02127360172
-0.000151047517
-0.006929792975
-0.03605060276
0.007218262623
-0.03041033902
-0.0002230899536
0.02806037102
-0.1359107254
0.03479984418
-0.2642455439
-0.03829975381
-0.254045402
-0.03966537643
0.2568870969
-0.02541228341
0.02834093192
-0.002701590769
-0.0002270577352
-0.01979796411
-0.005434583917
-0.0001797353883
0.02214319251
0.2638763752
-0.01949101829
-0.0003069458185
0.06654808545
-0.01117944087
-0.02113613396
-0.1292290402
0.01130425931
-0.01712772338
-0.1291889461
0.01841285359
0.01811490986
-0.02015699049
-0.01716286669
0.01920494732
-0.01981631797
-0.01030167019
0.01803991971
0.01207806845
-0.007226063033
0.008228846548
-0.01287241272
0.02505927387
-0.02949669994
-0.03436146627
0.01979306278
-0.0269462437
-0.02062444469
0.02777762561
-0.02278793395
0.02137757845
0.01952526536
-0.1284668587
0.02993279971
-0.0320315027
0.1305655616
-0.1251644745
0.1268373502
0.03620860436
0.02321274896
-0.06908767456
0.01022316879
-0.04105177176
-0.01052174278
0.04135034575
-0.04416894835
0.04464928667
0.01148918396
0.0464019551
0.01070072479
-0.04535519296
0.0312675384
-0.006988302174
-0.0314851963
0.007205960072
-0.007042716543
0.007438870499
0.03201937562
0.03145912066
-0.008516025013
0.006591284046
0.06614844182
-0.01271991325
0.06488157025
-0.01271816632
-0.06536644602
0.06529283979
-0.01148558587
-0.06572385401
0.01191660009
0.04683031571
0.009680535121
0.007533774053
-0.04434430649
0.007976863007
-0.04265451982
-0.008060545262
-0.026455923
0.005506075109
0.007950823784
-0.02942821433
-0.008226504212
0.03570622064
-0.02748641091
-0.0002689859479
0.01771085689
-0.006909831975
0.007040496566
-0.05829963021
0.01502689152
-0.0006422519971
-0.03349671753
-0.003818771836
-0.0002359803524
-0.03283323819
0.0329634086
-0.007541845418
0.004834869227
-0.03104097643
-0.006627130979
-0.02603953777
-0.0002541404952
-0.03327643291
0.03328137388
-0.006964684594
0.03404196902
-0.006919207856
-0.03411384194
0.03294878439
-0.006589240425
-0.03305119887
0.006691654908
0.01542597885
-0.07808461151
-0.01620696013
-0.07521658731
0.01758153137
-0.01863222526
0.0762672812
-0.07784687701
0.07933270768
0.02104612781
-0.006673481342
0.006987528551
0.03382256083
0.03330190622
-0.007698255729
-0.007262039705
-0.0336853493
-0.06426912083
0.02333289931
-0.02436266312
0.06529888464
-0.06070322749
0.0616336389
0.02690495546
0.01768717416
-0.03441892009
0.01416056344
0.04391751598
-0.0005674727332
-0.04455371555
0.04426321723
0.01445106176
-0.04361374005
0.01514238327
-0.02962312715
0.02978243641
-0.0001593092634
0.009799446676
-0.03921175966
-0.0002108141603
0.007187842642
-0.03553831084
-0.007131832245
0.03332567676
-0.03225456095
0.006116726828
0.002990474234
0.03555810825
0.02221770849
-0.000140999833
-0.006411062314
0.02868895442
-6.018361968e-05
0.03406186285
-0.007416021136
-0.006029437272
0.03531152192
-0.03543844051
0.006156355865
-0.00592948488
0.006130916638
0.03581414133
0.03733375842
-0.006634188786
-0.007564315369
0.04612516961
-0.0003473755946
-0.03936919783
0.03841111599
-0.006606233529
-0.03842415312
-0.004756147519
-0.00743723167
0.00591565948
0.03033679211
-0.03211504339
0.03239773615
-0.007719924432
-0.008165302721
-0.0331659647
0.03519996211
-0.00180350708
-0.0002304903264
-0.03051007691
-0.002342741007
-0.0003131467857
-0.0365816596
-0.003717736011
0.002386133438
-0.03458988912
-0.004377903916
-0.02968753
-0.0001488391357
-0.02364811417
-0.006575282256
-0.000286680486
-0.02344393513
-0.0002041790356
-0.004279856557
0.004425062017
0.03879374157
0.04184412522
-0.004476369866
0.03887012567
-0.005858244837
-0.03958247533
0.0253994691
-0.0003101593866
-0.03244219007
0.03989654118
-0.007215245001
-0.0002391061127
-0.003793719446
-0.0003075387025
0.03031461462
-0.02912164712
-0.004960421705
0.03257344555
0.03363331919
-0.006158440051
0.009606007081
-0.002011368096
0.004750986701
-0.00900942221
0.01336815513
0.003449505004
0.006156502079
0.007426629265
-0.03317057616
-0.007319637286
0.03998123376
-0.03226854608
-0.0002860584116
0.02710471887
-0.02052889887
-0.0001563453877
-0.005002852185
-0.0001609750293
-0.006627441705
-0.03093526161
0.01692439959
-0.017637493
0.03164835502
-0.02908889349
0.0298702155
0.01901174077
0.02443777966
-0.03110423662
-0.04613238903
0.04234706009
0.003967076942
-0.0001817480072
-0.05404455663
0.008238369112
-0.0003262015165
-0.04110938717
0.04074354161
0.0004500367589
-8.419119806e-05
0.001414829443
-0.0001771565194
0.0006414839965
0.03987371562
-0.0002053695013
-0.04523250759
0.04431741446
0.001556577126
-0.04634648926
0.002003199349
-0.04350742534
0.04283836149
0.001270589743
-0.0005413235901
0.001351312704
-0.0001260992138
-9.004754371e-05
0.03805982234
-0.0004535962173
-0.04281604635
0.04364733779
-0.0009213389892
-0.04222825353
-0.0005862103284
-0.04450161113
0.04456072143
-0.003599116233
0.0009699623603
-0.001824235701
-0.0003646990357
0.009175716368
0.04711657916
-1.646639499e-05
-0.04613206307
0.04787781582
0.007429963624
-0.04324054324
0.008578675041
-0.04752112564
0.003035182424
-0.004649359714
0.005006049893
-0.0002505072737
9.160991039e-05
0.03703143986
-0.0001000091582
-0.04075281012
0.04114839283
-0.0003039728002
-0.04034200346
-0.0002407996995
-0.04168736436
-0.0004067630481
-0.0002314411668
-0.0003075303685
-0.0004487615866
-0.04084032819
0.04196337025
-0.0007531502616
-0.0003698917946
2.541485431e-05
-0.0001222014326
-0.04537963806
0.05297736756
-0.007284209231
-0.0003135202721
-0.003267296943
-0.0001489708671
-0.0180432486
-0.000217686311
0.01945504318
-0.0003973342436
-0.007735740738
-0.0002956269945
-0.00874879993
-0.0003323917035
0.03469980913
-0.05386201306
-0.0005117758223
0.0356142259
-0.0009144167735
0.01921791439
0.04148524093
6.907152102e-05
-0.0364682975
0.05395296232
0.02400057612
0.024078178
-0.03429215923
-0.03430371759
0.03425389083
4.982676461e-05
0.01993697286
-0.0002877281335
-0.001776487516
-0.0002565412928
-0.02222262402
-0.0003988969617
-0.006108344877
-0.0002483374788
-0.02960603112
-0.007543290187
-0.009124469002
-0.01281134092
-0.03326757352
-0.007709201547
-0.0002570375491
-0.0002643540552
-0.005157854644
-0.000182292356
-0.04292792369
0.05886697607
0.01557826327
-0.01316766092
0.01450295445
-0.0001578609948
-0.01156840792
-0.04528523258
0.01150468416
0.04259426163
-0.04436322288
0.05863579509
-0.04703365123
0.008188519361
-0.0003666277971
0.0123465263
-0.0005132014644
0.00287323037
0.03424421268
-0.000170581044
-0.03922781992
0.03803607758
0.004064972707
-0.04020475268
0.002161710357
-0.03816156714
0.01047017113
-0.008184726838
0.008059237278
-0.0002083842736
0.0004852123981
0.03858188305
-0.0001590964329
-0.04219196628
0.04155943701
0.001117741665
0.001177921923
-0.04094613948
0.001390670597
-0.0005451594827
0.001158457008
-0.000257113039
-0.001262693925
0.000116170346
0.04025932496
-0.03954301995
-0.002275282259
0.04055560828
-0.03862696311
-0.002729509259
-0.03578717982
-0.0002927514031
-0.0002588373519
-0.0003816111109
0.02387875522
-0.0495738317
-0.009585159853
0.02412818999
-0.000249434764
0.03109135526
-0.0004384968003
-0.007650143061
-0.0002594935367
-0.02489166622
-0.007006682427
-0.0001140433025
-0.02452897106
-0.0003626951559
-0.009679569135
0.03618622272
-0.04265095543
0.03966964236
-0.006698256064
-0.005756257462
-0.03827103284
-0.003935722694
0.007125095939
-0.00572648642
0.04427717753
-0.0364048311
-0.0002635442224
-0.009409300064
0.02143191665
-0.007800073523
0.02174145345
-0.0003095368057
-0.02804217049
0.03123451906
-0.0002018743381
-0.0001839902072
0.003032398613
-0.00527029394
0.03200973548
-0.0002883824425
-0.0003603262878
-0.03649360314
-0.006615738172
0.03618773341
0.009351223673
-0.007433710824
0.003815431674
0.0422828074
-0.001685584991
-0.04431289726
0.04294658599
0.005181742949
0.00537753931
-0.04554687706
-0.04216373209
0.007681172876
-0.005263951763
0.006046805662
-0.003314079194
-0.03862769934
-0.0005682969913
-4.137455274e-06
-0.003094244467
-0.04658624694
0.005690839433
0.03979641001
-0.04250368174
-0.0003869727343
0.03646152822
-0.0001800373309
0.04798195721
-0.0002479759393
0.005811032899
-0.0003327574297
0.007360076418
-0.05694165227
0.009932702266
-0.0002921832442
0.0282703864
-6.411719214e-05
0.02864180138
-0.0003714149826
0.01206892291
0.0001361207252
0.03677112038
-0.0002640643816
-0.03920256999
0.03959587673
-0.0002571860157
-0.03867726888
-0.0005074207901
-0.03991391319
-0.0001865849984
-0.0001010737938
-0.0002169626739
-9.412147753e-05
-0.007443160956
0.03324250659
-0.0002069511537
-0.037260975
0.0369633362
-0.007145522163
-0.009561753146
-0.03793921716
-0.001304157574
0.002220838995
-0.003196719953
-0.0002451680835
-0.03923647937
0.04710653477
-0.00777588377
-9.417162528e-05
-0.003881340611
-0.0001551766519
-0.00636387067
-0.000201320643
-0.03388777986
-0.007065979925
-0.009517463542
0.0005238213982
-0.03893869696
-0.00193281676
0.03513208989
-0.0343967346
-0.0002115338919
0.0366684391
-0.0003375663538
0.03345762175
-0.0003928455902
-0.0006460121769
-0.0002931006737
-0.002204055553
0.009868823535
-0.04102563937
-0.007484758975
0.03504533997
-0.04862045157
0.03573321407
0.04062663523
-0.0003017625921
-0.007781447698
-0.0002123686414
-0.006477929771
-0.00407731382
0.03488865393
-0.000213870154
-0.03509165859
0.03661353468
-0.005599189909
-0.03283025399
-0.005285817614
-0.0362716423
-0.008211005295
0.03484480715
0.007578043869
-0.00723615149
-0.0002634919128
-0.03556530083
0.04335750119
-0.007565274161
-0.0002269261983
-0.004029224542
-0.0003015572283
-0.03169399248
-0.007166645597
0.02102520971