/*--------------------------------*- C++ -*----------------------------------*\
| =========                 |                                                 |
| \\      /  F ield         | OpenFOAM: The Open Source CFD Toolbox           |
|  \\    /   O peration     | Version:  v2012                                 |
|   \\  /    A nd           | Website:  www.openfoam.com                      |
|    \\/     M anipulation  |                                                 |
\*---------------------------------------------------------------------------*/
FoamFile
{
    version     2.0;
    format      ascii;
    class       pointVectorField;
    location    "1";
    object      pointDisplacement;
}
// * * * * * * * * * * * * * * * * * * * * * * * * * * * * * * * * * * * * * //

dimensions      [0 1 0 0 0 0 0];


internalField   nonuniform List<vector> 
7018
(
(0 0 0)
(0 0 0)
(0 0 0)
(0 0 0)
(0 0 0)
(0 0 0)
(0 0 0)
(0 0 0)
(0 0 0)
(0 0 0)
(0 0 0)
(0 0 0)
(0 0 0)
(0 0 0)
(0 0 0)
(0 0 0)
(0 0 0)
(0 0 0)
(0 0 0)
(0 0 0)
(0 0 0)
(0 0 0)
(0 0 0)
(0 0 0)
(0 0 0)
(0 0 0)
(0 0 0)
(0 0 0)
(0 0 0)
(0 0 0)
(0 0 0)
(0 0 0)
(0 0 0)
(0 0 0)
(0 0 0)
(0 0 0)
(0 0 0)
(0 0 0)
(0 0 0)
(0 0 0)
(0 0 0)
(0 0 0)
(0 0 0)
(0 0 0)
(-2.627754954e-07 5.184986494e-07 3.330669074e-16)
(1.211892089e-06 4.416070243e-07 2.91433544e-16)
(0 0 0)
(0 0 0)
(0 0 0)
(0 0 0)
(0 0 0)
(0 0 0)
(0 0 0)
(0 0 0)
(0 0 0)
(0 0 0)
(0 0 0)
(0 0 0)
(0 0 0)
(0 0 0)
(0 0 0)
(0 0 0)
(0 0 0)
(0 0 0)
(0 0 0)
(0 0 0)
(0 0 0)
(0 0 0)
(0 0 0)
(0 0 0)
(0 0 0)
(0 0 0)
(0 0 0)
(0 0 0)
(0 0 0)
(0 0 0)
(0 0 0)
(0 0 0)
(0 0 0)
(0 0 0)
(0 0 0)
(-1.958248244e-05 -0.0004352202759 3.523570324e-14)
(-2.471813375e-05 -0.0009889980737 5.824507543e-14)
(0.0002605796613 -0.0009771030307 5.749567489e-14)
(0.0001525248517 -0.0004283748473 3.465283616e-14)
(0.0005109349301 -0.0003290670614 2.656208586e-14)
(0.0009048963623 -0.0007966742369 4.676814491e-14)
(0.00099188201 -0.0006963425426 4.085620731e-14)
(0.0005374163146 -0.0002755134316 2.223221607e-14)
(0.0003161304237 -0.0001005239446 8.10462808e-15)
(0.0007844742535 -0.0003425535148 2.010891453e-14)
(0.0005901841038 -0.000228763507 1.34336986e-14)
(0.0001846821485 -5.210106167e-05 4.204969706e-15)
(0 0 0)
(3.109503557e-05 -9.008272267e-06 5.273559367e-16)
(0 0 0)
(0 0 0)
(0 0 0)
(0 0 0)
(0 0 0)
(0 0 0)
(0 0 0)
(0 0 0)
(0 0 0)
(0 0 0)
(0 0 0)
(0 0 0)
(0 0 0)
(0 0 0)
(0 0 0)
(0 0 0)
(0 0 0)
(0 0 0)
(0 0 0)
(0 0 0)
(0 0 0)
(0 0 0)
(0 0 0)
(0 0 0)
(3.714010007e-06 -0.004624225428 1.498523527e-13)
(3.015563082e-05 -0.006535311568 1.841859998e-13)
(0.000936081018 -0.006499080175 1.829092433e-13)
(0.0007402991909 -0.004593672081 1.486866186e-13)
(0.002592379305 -0.004066389896 1.311450948e-13)
(0.00325990527 -0.00584262229 1.637995295e-13)
(0.003787357686 -0.005451218301 1.526834215e-13)
(0.002987040363 -0.003756816771 1.210698208e-13)
(0.003219833018 -0.002542160106 8.185119249e-14)
(0.004279520769 -0.003877268338 1.084549117e-13)
(0.004051613005 -0.003266831198 9.13991105e-14)
(0.002968584158 -0.002084580131 6.712685963e-14)
(0.001513894509 -0.0007969865038 2.570166302e-14)
(0.002421254858 -0.001465441992 4.107825191e-14)
(0.001711485682 -0.0009557248164 2.681188604e-14)
(0.0009502078863 -0.0004614300471 1.490474411e-14)
(0 0 0)
(8.218461751e-05 -3.716510221e-05 1.054711873e-15)
(0 0 0)
(0 0 0)
(0 0 0)
(0 0 0)
(0 0 0)
(0 0 0)
(0 0 0)
(0 0 0)
(0 0 0)
(0 0 0)
(0 0 0)
(0 0 0)
(0 0 0)
(0 0 0)
(0 0 0)
(0 0 0)
(0 0 0)
(0 0 0)
(0 0 0)
(0 0 0)
(0.0001267346158 -0.01388009194 2.811778588e-13)
(0.0001503464311 -0.01660580305 3.075595334e-13)
(0.001667809918 -0.01656587417 3.063660436e-13)
(0.001512796209 -0.01383682944 2.798733467e-13)
(0.005240975579 -0.01288566706 2.595007542e-13)
(0.00581088162 -0.01558951586 2.870204074e-13)
(0.006916817249 -0.01495088897 2.749328543e-13)
(0.006202418872 -0.01228392518 2.470801341e-13)
(0.007706458774 -0.009659175406 1.938588179e-13)
(0.008809622339 -0.01205239457 2.210870376e-13)
(0.008853574291 -0.01079665426 1.979943987e-13)
(0.007660095176 -0.008555983245 1.716959908e-13)
(0.0058548739 -0.004912312645 9.867107131e-14)
(0.007296131437 -0.006682992593 1.224020885e-13)
(0.006290056057 -0.005326097295 9.744982599e-14)
(0.004985941855 -0.003860001899 7.746581154e-14)
(0.001728566128 -0.001088575541 2.18575158e-14)
(0.002583299215 -0.001778995848 3.264055692e-14)
(0.001457785067 -0.0009445379962 1.734723476e-14)
(0.0008330802593 -0.0004936117628 9.922618283e-15)
(0 0 0)
(0 0 0)
(0 0 0)
(0 0 0)
(0 0 0)
(0 0 0)
(0 0 0)
(0 0 0)
(0 0 0)
(0 0 0)
(0 0 0)
(0 0 0)
(0 0 0)
(0 0 0)
(0 0 0)
(0 0 0)
(0 0 0)
(0 0 0)
(0.0001476730147 -0.02413423199 3.556044348e-13)
(0.0001203598803 -0.02604532828 3.592820486e-13)
(0.00190394491 -0.02607693876 3.592404152e-13)
(0.001908582789 -0.02413565737 3.5513259e-13)
(0.00702841599 -0.02356568588 3.451960939e-13)
(0.007219804338 -0.02584853104 3.544942118e-13)
(0.008835915637 -0.02546082989 3.486516631e-13)
(0.008541364631 -0.02304478608 3.370775881e-13)
(0.01170673151 -0.01997895236 2.910588437e-13)
(0.01244771618 -0.02264258261 3.082950562e-13)
(0.01305385949 -0.02118846658 2.879224636e-13)
(0.0121511614 -0.01847422713 2.685351941e-13)
(0.01123011782 -0.01291542875 1.874472799e-13)
(0.01237551038 -0.01519829152 2.06473727e-13)
(0.01133713779 -0.01287261781 1.749850265e-13)
(0.01016923933 -0.0108123673 1.570410468e-13)
(0.005539946445 -0.004793549787 6.986078382e-14)
(0.006529802337 -0.006034768434 8.22952817e-14)
(0.004707886668 -0.004094518339 5.589972929e-14)
(0.003857332072 -0.003140705081 4.582445534e-14)
(0.0002546581085 -0.0001760861623 2.581268532e-15)
(0.0004374830405 -0.0003232281497 4.427014311e-15)
(1.110604091e-05 -7.814677562e-06 1.110223025e-16)
(0 0 0)
(0 0 0)
(0 0 0)
(0 0 0)
(0 0 0)
(0 0 0)
(0 0 0)
(0 0 0)
(0 0 0)
(0 0 0)
(0 0 0)
(0 0 0)
(0 0 0)
(0 0 0)
(0 0 0)
(2.16387836e-05 -0.03103103936 0)
(5.420716443e-06 -0.03186180984 0)
(0.0009155754831 -0.0318788492 0)
(0.0009268628135 -0.03104806062 0)
(0.007339006467 -0.03124199772 0)
(0.007349512759 -0.03209576968 0)
(0.007366216214 -0.03296288672 0)
(0.008271091748 -0.03300666149 0)
(0.009163145335 -0.03303373399 0)
(0.009157198431 -0.03131952072 0)
(0.01387354427 -0.03009832143 3.435307594e-13)
(0.01409028638 -0.03224237 3.493871858e-13)
(0.01517367268 -0.0309745541 3.353706202e-13)
(0.01484386911 -0.02873596237 3.277517147e-13)
(0.01502933053 -0.02199612786 2.507022367e-13)
(0.01557144655 -0.0240256061 2.597644322e-13)
(0.01478855013 -0.02109536246 2.281091982e-13)
(0.01411711695 -0.01910257936 2.177563685e-13)
(0.009118844164 -0.01004879475 1.14783183e-13)
(0.009972967528 -0.01158005015 1.255107129e-13)
(0.007859577634 -0.008587944555 9.320322292e-14)
(0.007078726871 -0.007341117223 8.394673845e-14)
(0.001576805641 -0.001388203305 1.59317004e-14)
(0.001970931614 -0.001828014969 1.990074772e-14)
(0.0007061447857 -0.0006234854278 6.800116026e-15)
(0.0004804551018 -0.0004026903613 4.62130334e-15)
(0 0 0)
(0 0 0)
(0 0 0)
(0 0 0)
(0 0 0)
(0 0 0)
(0 0 0)
(0 0 0)
(0 0 0)
(0 0 0)
(0 0 0)
(0 0 0)
(0 0 0)
(0 0 0)
(0.007326019787 -0.03806376575 0)
(0.007314564721 -0.03891277917 0)
(0.008200673772 -0.03893351663 0)
(0.008213037544 -0.03808577799 0)
(0.01435385208 -0.03805219268 3.575334473e-13)
(0.01435736845 -0.03982231066 3.583938701e-13)
(0.01579678252 -0.03904547272 3.511080315e-13)
(0.01573640063 -0.03718682598 3.491096301e-13)
(0.01708267171 -0.03044731133 2.856048731e-13)
(0.01728563779 -0.03220226998 2.89337998e-13)
(0.01669289687 -0.02872914869 2.581823644e-13)
(0.01645816742 -0.02710468967 2.543104616e-13)
(0.01170699999 -0.0156760594 1.474237399e-13)
(0.01197083431 -0.01674459105 1.508237979e-13)
(0.009721923953 -0.01279372931 1.153521723e-13)
(0.00947210549 -0.01193306455 1.123406923e-13)
(0.002859626124 -0.003056867696 2.886579864e-14)
(0.003229195402 -0.003605990064 3.261280135e-14)
(0.001540152469 -0.001636983986 1.482147738e-14)
(0.001267879622 -0.001290090922 1.219857548e-14)
(0 0 0)
(0 0 0)
(0 0 0)
(0 0 0)
(0 0 0)
(0 0 0)
(0 0 0)
(0 0 0)
(0 0 0)
(0 0 0)
(0 0 0)
(0 0 0)
(0 0 0)
(0 0 0)
(0.007214406272 -0.04483687387 0)
(0.007198180784 -0.04568117993 0)
(0.008082209676 -0.04569887806 0)
(0.00809858237 -0.04485500272 0)
(0.01429333815 -0.0449739054 3.592404152e-13)
(0.01426025514 -0.04666373932 3.592820486e-13)
(0.01584840772 -0.04615856936 3.551603456e-13)
(0.01585832809 -0.04442578619 3.546191119e-13)
(0.01780263489 -0.0375057994 2.991079606e-13)
(0.01788690902 -0.039147286 3.009537064e-13)
(0.01747351161 -0.03530122627 2.714356517e-13)
(0.01735636271 -0.03376021605 2.692984724e-13)
(0.01291725915 -0.02039518029 1.629946178e-13)
(0.01310425034 -0.02147928979 1.654509862e-13)
(0.01087720655 -0.01676607186 1.292577156e-13)
(0.01068258675 -0.01586284547 1.268846139e-13)
(0.003702905753 -0.004661769031 3.740063814e-14)
(0.003853443577 -0.005034682242 3.89271948e-14)
(0.001987220468 -0.002470859623 1.91235916e-14)
(0.001873424538 -0.002244624614 1.802724636e-14)
(0 0 0)
(0 0 0)
(0 0 0)
(0 0 0)
(0 0 0)
(0 0 0)
(0 0 0)
(0 0 0)
(0 0 0)
(0 0 0)
(0 0 0)
(0 0 0)
(0 0 0)
(0 0 0)
(0.00707502577 -0.05158374588 0)
(0.007056296137 -0.05242481378 0)
(0.007939341343 -0.05244109254 0)
(0.007958182326 -0.05160029908 0)
(0.01414834506 -0.0517102261 3.592681708e-13)
(0.01410746492 -0.05337884058 3.591987818e-13)
(0.01566550546 -0.05268381169 3.543276783e-13)
(0.01572364937 -0.05109729586 3.547995231e-13)
(0.01773479201 -0.04319580799 2.997185833e-13)
(0.01764358961 -0.04443254964 2.98622238e-13)
(0.01722094716 -0.03999647697 2.68868261e-13)
(0.0173165402 -0.0389074737 2.700062396e-13)
(0.01294723981 -0.02356396806 1.638134073e-13)
(0.01285696917 -0.0241742555 1.627725732e-13)
(0.01064312589 -0.01880933497 1.26745836e-13)
(0.0107262887 -0.01835119005 1.2766177e-13)
(0.003749170492 -0.005433420467 3.791411629e-14)
(0.003700139672 -0.005537981862 3.741451593e-14)
(0.001874485125 -0.002669529588 1.804112415e-14)
(0.001909108476 -0.002632710006 1.837419106e-14)
(0 0 0)
(0 0 0)
(0 0 0)
(0 0 0)
(0 0 0)
(0 0 0)
(0 0 0)
(0 0 0)
(0 0 0)
(0 0 0)
(0 0 0)
(0 0 0)
(0 0 0)
(0 0 0)
(0.006918805328 -0.05830251881 0)
(0.006897687753 -0.0591423734 0)
(0.007779894967 -0.05915774126 0)
(0.00780120241 -0.05831812374 0)
(0.01395414781 -0.05827440266 3.583522368e-13)
(0.01388506634 -0.05982578132 3.576305918e-13)
(0.01527904735 -0.05841039058 3.490263634e-13)
(0.01540646117 -0.05711231849 3.510525204e-13)
(0.01702076221 -0.04710481061 2.894073869e-13)
(0.01666452837 -0.04750660519 2.837591273e-13)
(0.01619134644 -0.04252681184 2.540745392e-13)
(0.01648434233 -0.04203975256 2.5833502e-13)
(0.01191157875 -0.02454964564 1.511013537e-13)
(0.0116110225 -0.02463034906 1.473821065e-13)
(0.009415749728 -0.01876385564 1.123684479e-13)
(0.009695978482 -0.018775133 1.156436058e-13)
(0.003024310848 -0.004956842521 3.060052212e-14)
(0.002861948179 -0.004826431955 2.896294315e-14)
(0.001272440794 -0.002041705607 1.225408663e-14)
(0.001381340725 -0.002154172743 1.330879851e-14)
(0 0 0)
(0 0 0)
(0 0 0)
(0 0 0)
(0 0 0)
(0 0 0)
(0 0 0)
(0 0 0)
(0 0 0)
(0 0 0)
(0 0 0)
(0 0 0)
(0 0 0)
(0 0 0)
(0.006743727302 -0.06500493884 0)
(0.006720213907 -0.06584198524 0)
(0.007602123683 -0.06585664719 0)
(0.007625909245 -0.06501960609 0)
(0.01361693271 -0.06415453117 3.539391003e-13)
(0.01349484879 -0.06541601137 3.518851877e-13)
(0.014649415 -0.06286407497 3.380351554e-13)
(0.01484199244 -0.06194196758 3.416295025e-13)
(0.01565966282 -0.04855871235 2.677719158e-13)
(0.01539370855 -0.04902810331 2.636085794e-13)
(0.01459269178 -0.04276556035 2.299965773e-13)
(0.01505651175 -0.04297945395 2.370464935e-13)
(0.0102586741 -0.02361286595 1.304234498e-13)
(0.009615230689 -0.02270712745 1.22304944e-13)
(0.007454149269 -0.01653137224 8.909539773e-14)
(0.008099445337 -0.01750867203 9.678369217e-14)
(0.002030461 -0.003712930262 2.056688153e-14)
(0.001773270893 -0.003326683038 1.795785742e-14)
(0.0005759230015 -0.00102808697 5.551115123e-15)
(0.0007248975622 -0.001261290369 6.994405055e-15)
(0 0 0)
(0 0 0)
(0 0 0)
(0 0 0)
(0 0 0)
(0 0 0)
(0 0 0)
(0 0 0)
(0 0 0)
(0 0 0)
(0 0 0)
(0 0 0)
(0 0 0)
(0 0 0)
(0.007230450527 -0.04399388674 0)
(0.006346382436 -0.04397420416 0)
(0.006338350321 -0.04439521133 0)
(0.006330523513 -0.04481766164 0)
(0.006437193471 -0.03803674862 0)
(0.006427808742 -0.03888930643 0)
(0.00709361954 -0.05074166405 0)
(0.006210929557 -0.05072511992 0)
(0.006201763841 -0.05114641622 0)
(0.00619248375 -0.0515675936 0)
(0.006322612138 -0.04524046036 0)
(0.006314620733 -0.04566337422 0)
(0.006938935753 -0.05746342294 0)
(0.006056837621 -0.05744844616 0)
(0.006046930579 -0.05786786104 0)
(0.006036835181 -0.05828696109 0)
(0.006183125141 -0.05198880834 0)
(0.006173826585 -0.05240893518 0)
(0.006767233891 -0.06416824238 0)
(0.005885669507 -0.06415382052 0)
(0.005861646878 -0.06499105149 0)
(0.006015827444 -0.05912716787 0)
(0.005839376921 -0.06582816096 0)
(-0.0008715334388 -0.03101425249 0)
(-0.000890259258 -0.03184532426 0)
(0.007334986299 -0.03721071244 0)
(0.006446134508 -0.03718500522 0)
(0.006431386648 -0.03120933267 0)
(0.006438747159 -0.03205685902 0)
(0.003735332347 -0.04137483011 0)
(0.003738333392 -0.04116151796 0)
(0.003515224686 -0.04115705061 0)
(0.003511614298 -0.04137049482 0)
(0.003770592567 -0.03795416822 0)
(0.003325328422 -0.03793921699 0)
(0.003324561555 -0.03837124888 0)
(0.003769234336 -0.03838500773 0)
(0.008114931624 -0.04401233269 0)
(0.01432448262 -0.04328250595 3.591710263e-13)
(0.01255733104 -0.04326048527 0)
(0.01252360467 -0.04494467735 0)
(0.01264993261 -0.03819696106 0)
(0.0126202344 -0.03988402731 0)
(0.003565566665 -0.0481424922 0)
(0.003570665777 -0.04793169851 0)
(0.003319434386 -0.04792708486 0)
(0.003314412172 -0.04813772446 0)
(0.003670200424 -0.04476467932 0)
(0.003439035871 -0.04476103936 0)
(0.003441330424 -0.04497205463 0)
(0.0036694251 -0.04497594605 0)
(0.007976850077 -0.05075841316 0)
(0.01418742634 -0.05003274682 3.592959263e-13)
(0.01241673715 -0.049999749 0)
(0.01237885019 -0.05168187649 0)
(0.01248919313 -0.04663010078 0)
(0.00347315634 -0.05488518233 0)
(0.003476415837 -0.05467478072 0)
(0.003254069295 -0.0546709233 0)
(0.003252050104 -0.05488134903 0)
(0.003540957167 -0.05151769953 0)
(0.003314124076 -0.05151293804 0)
(0.003303224451 -0.05172319107 0)
(0.003533124608 -0.05172824558 0)
(0.007821646153 -0.05747891727 0)
(0.01401247264 -0.05667315937 3.58796326e-13)
(0.01226060991 -0.05671972952 0)
(0.01221932876 -0.05839638449 0)
(0.01234036728 -0.05336064736 0)
(0.003312923606 -0.0615986652 0)
(0.003324022243 -0.06117977914 0)
(0.002885052016 -0.06117279793 0)
(0.002874409908 -0.06159180956 0)
(0.003396310949 -0.05824253192 0)
(0.002956277435 -0.05823502439 0)
(0.002950986727 -0.05844526981 0)
(0.002946221128 -0.0586559144 0)
(0.003386260369 -0.05866252744 0)
(-0.0003720062358 -0.06824838435 0)
(-0.0001529517075 -0.06825155541 0)
(-0.0001509089732 -0.06804151909 0)
(-0.0003720816536 -0.06803776229 0)
(0.003123139269 -0.06829527603 0)
(0.003136284127 -0.0678769743 0)
(0.002697568676 -0.06787089265 0)
(0.002684768996 -0.0682890455 0)
(0.003223169185 -0.06494919035 0)
(0.002785048292 -0.06494253682 0)
(0.002773236405 -0.06536109784 0)
(0.003211547815 -0.06536775508 0)
(0.003672407219 -0.04455320705 0)
(0.003439364062 -0.04454976393 0)
(0.003508423126 -0.0415833832 0)
(0.003731918992 -0.04158754302 0)
(0.007275518584 -0.04145651096 0)
(0.006390234202 -0.04143536946 0)
(0.006383213538 -0.04185836832 0)
(0.006376357562 -0.04228289898 0)
(0.007261076044 -0.04230313876 0)
(0.003729213933 -0.04179963572 0)
(0.00417235382 -0.0418096152 0)
(0.004178889447 -0.04138555673 0)
(0.003897106959 -0.04476866432 0)
(0.003900210287 -0.04455709279 0)
(0.003548934556 -0.05130750636 0)
(0.003325214434 -0.05130307768 0)
(0.003311973387 -0.04834872547 0)
(0.003562799118 -0.04835379798 0)
(0.007147438013 -0.0482123465 0)
(0.006705827659 -0.04820371921 0)
(0.006697111124 -0.04862591884 0)
(0.007138645228 -0.04863446685 0)
(0.00380729728 -0.04835863074 0)
(0.003810630871 -0.04814721928 0)
(0.003765297874 -0.05152221806 0)
(0.003771411997 -0.05131183307 0)
(0.003894629508 -0.04498005353 0)
(0.003815393986 -0.04793630237 0)
(0.007156102812 -0.04779080709 0)
(0.006714453577 -0.04778217905 0)
(0.00340617209 -0.05782307726 0)
(0.002965809706 -0.05781568001 0)
(0.002961059123 -0.0580253525 0)
(0.003247855085 -0.05509165466 0)
(0.003468598216 -0.05509555869 0)
(0.006998653196 -0.05494678345 0)
(0.006116242503 -0.05493187838 0)
(0.006106558162 -0.05535184213 0)
(0.006096808913 -0.05577114339 0)
(0.006979022176 -0.0557862002 0)
(0.003463654847 -0.05530534412 0)
(0.003904221788 -0.05531282313 0)
(0.003913903861 -0.05489297602 0)
(0.003835936968 -0.05824999264 0)
(0.003845921772 -0.05783057927 0)
(0.003759254708 -0.0517329545 0)
(0.003923243566 -0.0544727333 0)
(0.003702241338 -0.05446855196 0)
(0.003480132726 -0.05446466027 0)
(0.007017786325 -0.05410696806 0)
(0.006135739928 -0.05409133105 0)
(0.006126125787 -0.05451168513 0)
(0.00323517375 -0.06453032191 0)
(0.00279671848 -0.06452366188 0)
(0.002863862733 -0.06201093971 0)
(0.003302528068 -0.06201779831 0)
(-0.0005870806649 -0.06824641866 0)
(-0.0005939372587 -0.06845496111 0)
(-0.0003764965735 -0.06845759515 0)
(-0.0005908495856 -0.06803467459 0)
(0.002671167394 -0.0687068327 0)
(0.00310951909 -0.06871321844 0)
(-0.0001575260283 -0.06846076458 0)
(0.00195544456 -0.03962692647 0)
(0.001943681158 -0.03941659443 0)
(0.001720205458 -0.03942459771 0)
(0.001786923823 -0.03959697438 0)
(0.001969154421 -0.03788157269 0)
(0.001736495108 -0.03787219252 0)
(0.001732371911 -0.03809700514 0)
(0.001966508274 -0.03810323617 0)
(0.001551296592 -0.0598822022 0)
(0.00154681444 -0.05967087211 0)
(0.001313576072 -0.05965046665 0)
(0.001275688572 -0.059825422 0)
(0.007649061368 -0.0641831361 0)
(0.01372040003 -0.06278489119 3.555211681e-13)
(0.01209000531 -0.06341991209 3.592959263e-13)
(0.01203956442 -0.06506568995 3.591293929e-13)
(0.01217726848 -0.06007310209 0)
(-0.0004186104219 -0.06650918721 0)
(-0.0001458176057 -0.0665655237 0)
(-0.0001425975313 -0.06635554918 0)
(-0.0003692327095 -0.06633601115 0)
(0.0014248907 -0.06659832661 0)
(0.001436831758 -0.06617992369 0)
(0.0009985516675 -0.06617365602 0)
(0.0009928584356 -0.06638299901 0)
(0.0009877032746 -0.06659227468 0)
(0.00147279847 -0.06492413427 0)
(0.001253850454 -0.06492092638 0)
(0.001248022651 -0.06513018896 0)
(0.001466985463 -0.06513343603 0)
(0.004213595269 -0.03839900167 0)
(0.004216849908 -0.03797164987 0)
(0.004185249118 -0.04096054577 0)
(0.003741803254 -0.04094889949 0)
(0.007289525191 -0.04061029864 0)
(0.006404444302 -0.0405906936 0)
(0.006397440879 -0.04101280597 0)
(0.001478225584 -0.06471447493 0)
(0.001259105628 -0.06471110812 0)
(0.001509758533 -0.06324626729 0)
(0.001282854378 -0.06324095988 0)
(0.001281241063 -0.06345131571 0)
(0.001505989372 -0.06345607555 0)
(0.006834125305 -0.06165672106 0)
(0.005952258947 -0.06164182658 0)
(0.005930410632 -0.06247925542 0)
(0.006812126003 -0.06249391359 0)
(0.003741404224 -0.06202481659 0)
(0.003752159088 -0.06160580715 0)
(0.003661761402 -0.06495600863 0)
(0.003673951084 -0.06453722158 0)
(0.003825907234 -0.05866971629 0)
(0.003763028326 -0.06118691664 0)
(0.006855954398 -0.06081828056 0)
(0.005973933272 -0.06080334417 0)
(-2.802301316e-05 -0.03435400478 0)
(-0.0005124356613 -0.03434863302 0)
(-0.0005202518827 -0.03476433901 0)
(-3.645656229e-05 -0.03476974543 0)
(0.003771746793 -0.03752421856 0)
(0.003325689394 -0.03750865603 0)
(0.003731152259 -0.03449616833 0)
(0.002802661022 -0.03445030066 0)
(0.002802496145 -0.03487097853 0)
(0.00282533443 -0.03530724588 0)
(0.003301406334 -0.03534447831 0)
(0.003757592362 -0.03536723206 0)
(0.0004694166222 -0.03478310366 0)
(0.0004745588217 -0.03436689448 0)
(0.001890965679 -0.0398975967 0)
(0.003758485629 -0.03967070057 0)
(0.003314710215 -0.03965919957 0)
(0.003311754429 -0.0398737845 0)
(0.003308828929 -0.04008801217 0)
(0.003753575607 -0.04009857133 0)
(0.002168057102 -0.0398527011 0)
(0.002175959344 -0.03963597197 0)
(0.002196937202 -0.03810870159 0)
(0.002197851952 -0.03788866559 0)
(0.002174872291 -0.03942006765 0)
(0.003763403272 -0.03924423799 0)
(0.003320210432 -0.03923398131 0)
(0.00331740386 -0.03944629374 0)
(0.003661663565 -0.04645504007 0)
(0.003452048414 -0.04645034117 0)
(0.00344571623 -0.04666153873 0)
(0.003655495437 -0.04666620193 0)
(0.003664995643 -0.04624370637 0)
(0.00345401501 -0.04623901981 0)
(0.003512065979 -0.05320326921 0)
(0.003292983177 -0.05319959195 0)
(0.003286604984 -0.05341055524 0)
(0.003506873659 -0.05341425557 0)
(0.003515362956 -0.05299174035 0)
(0.003295320441 -0.05298781105 0)
(0.001542664277 -0.06156727127 0)
(0.001549439266 -0.0613581049 0)
(0.001327005565 -0.0613541291 0)
(0.00131407506 -0.06156200888 0)
(0.001360147146 -0.06009540645 0)
(0.001567416485 -0.06009632574 0)
(0.003355528658 -0.05992133586 0)
(0.00291625894 -0.05991415434 0)
(0.002905773004 -0.06033293563 0)
(0.003345276009 -0.06034012168 0)
(0.001791442148 -0.06010064367 0)
(0.001786213373 -0.05988910458 0)
(0.001769745664 -0.06157246544 0)
(0.001774648747 -0.0613629515 0)
(0.001617330401 -0.05820497843 0)
(0.00157812401 -0.0583995505 0)
(0.001809337216 -0.05841948873 0)
(0.001825759782 -0.058211249 0)
(0.001786448786 -0.05967879974 0)
(0.003365830882 -0.05950220094 0)
(0.00292658136 -0.05949498092 0)
(0.002921294218 -0.05970464297 0)
(0.001373742088 -0.06827156133 0)
(0.001387044954 -0.06785353495 0)
(0.0009511509708 -0.06784797492 0)
(0.0009384103678 -0.06826609002 0)
(0.0009819469695 -0.06680146086 0)
(0.0009763594726 -0.06701076701 0)
(0.001412762149 -0.06701657031 0)
(-0.0003494907926 -0.06677821212 0)
(-0.0001385839769 -0.0667787743 0)
(0.00370827005 -0.04307255917 0)
(0.003483877178 -0.04306792293 0)
(0.003482836922 -0.04327961237 0)
(0.003705737083 -0.04328480301 0)
(0.003711377159 -0.04286079324 0)
(0.00348634275 -0.04285614453 0)
(0.003596685362 -0.04983218502 0)
(0.003388645538 -0.04982868363 0)
(0.003382894195 -0.05003981469 0)
(0.003591995472 -0.05004333673 0)
(0.003598574304 -0.04962105663 0)
(0.003390068664 -0.04961750728 0)
(0.003809954796 -0.0498359826 0)
(0.00381285389 -0.04962491275 0)
(0.005346939839 -0.049865018 0)
(0.005355718257 -0.04944363639 0)
(0.004914765856 -0.04943517748 0)
(0.004906180332 -0.04985664064 0)
(0.005381656064 -0.04817792798 0)
(0.004940200479 -0.0481693426 0)
(0.004931712693 -0.04859178006 0)
(0.005373091273 -0.04860032504 0)
(0.00531056912 -0.05155118124 0)
(0.005319812598 -0.05112988646 0)
(0.004879089703 -0.0511216265 0)
(0.004869806588 -0.0515429594 0)
(0.004897317347 -0.05027837067 0)
(0.005337999848 -0.05028670764 0)
(0.003805654472 -0.05004710299 0)
(0.003876046183 -0.04645959832 0)
(0.003879921839 -0.04624831408 0)
(0.005415292693 -0.04649035022 0)
(0.005423466405 -0.04606806224 0)
(0.004982209762 -0.04605924735 0)
(0.004974113056 -0.04648157573 0)
(0.005447123524 -0.04479962567 0)
(0.005005481095 -0.0447906477 0)
(0.004997836594 -0.04521372389 0)
(0.005439363136 -0.04522266071 0)
(0.005390167607 -0.0477562689 0)
(0.004948673897 -0.04774764389 0)
(0.004965747963 -0.0469037044 0)
(0.005407006119 -0.04691244152 0)
(0.003870695314 -0.04667073717 0)
(0.003435199298 -0.05656431348 0)
(0.003214049428 -0.05656032375 0)
(0.003209747812 -0.05677051062 0)
(0.00343048241 -0.05677445338 0)
(0.00185305543 -0.05800532111 0)
(0.001656484871 -0.05800227614 0)
(0.003439319793 -0.05635423978 0)
(0.003217604529 -0.05635012237 0)
(0.001535608695 -0.06177666556 0)
(0.001764276645 -0.06178227954 0)
(0.001733179271 -0.06325069014 0)
(0.001737612435 -0.0630407392 0)
(0.001512938755 -0.06303594192 0)
(0.003269398483 -0.06327430413 0)
(0.003280607392 -0.06285514795 0)
(0.002842098337 -0.0628482535 0)
(0.002830955634 -0.06326760545 0)
(0.001283594924 -0.06303008142 0)
(0.001302564684 -0.06177026635 0)
(-0.0005030109734 -0.06680365928 0)
(0.0009246195468 -0.06868340679 0)
(0.001360325389 -0.06868904096 0)
(0.001044235777 -0.03782220416 0)
(0.0007708204179 -0.03781707848 0)
(0.001012894852 -0.03808213806 0)
(0.0005588362663 -0.06574499129 0)
(0.0005649035126 -0.06553561668 0)
(0.000332501688 -0.06552899659 0)
(0.0003267516468 -0.06573826068 0)
(0.0005923905811 -0.06491004606 0)
(0.0003757392458 -0.06490754407 0)
(0.0003678457799 -0.06511622194 0)
(0.00058655727 -0.06511919185 0)
(-0.00125276193 -0.03779202128 0)
(-0.00127748698 -0.03803477037 0)
(-0.0009978950935 -0.03807250222 0)
(-0.001014078084 -0.03776422309 0)
(0.0005936219988 -0.06469952722 0)
(0.0003702993268 -0.06469526186 0)
(0.0006050666479 -0.06406924939 0)
(0.0003980815694 -0.06406911354 0)
(0.0003900707041 -0.06427782803 0)
(0.0006046028067 -0.06427989985 0)
(-7.245198195e-05 -0.03601684498 0)
(-0.0005887293319 -0.03602001348 0)
(-0.0006116508167 -0.03643942419 0)
(-0.0003341587952 -0.03643083001 0)
(-7.023590136e-05 -0.03643192926 0)
(-0.001611606784 -0.03648583547 0)
(-0.001550624731 -0.03603457031 0)
(0.001968561165 -0.03765867762 0)
(0.001737506754 -0.03764737423 0)
(0.001923809677 -0.03612077567 0)
(0.001451230291 -0.03609175983 0)
(0.001466157043 -0.03652263406 0)
(0.001945228531 -0.03656102946 0)
(0.0002129843437 -0.03644111684 0)
(0.0004723231761 -0.03645385012 0)
(0.0004625774847 -0.03603336848 0)
(0.003609308061 -0.04729973256 0)
(0.003373830413 -0.0472952697 0)
(0.003346211818 -0.04750640335 0)
(0.003591763442 -0.04751086764 0)
(0.002766351898 -0.04475009635 0)
(0.002782121984 -0.04496020682 0)
(0.002983850221 -0.04496424669 0)
(0.002971567659 -0.04475400957 0)
(0.002819710779 -0.04559241064 0)
(0.003016739159 -0.04559651469 0)
(0.003007201172 -0.04538555303 0)
(0.002809238026 -0.04538131411 0)
(0.003668796177 -0.04561028491 0)
(0.00366913517 -0.0453988541 0)
(0.00344771605 -0.04539450907 0)
(0.003450402653 -0.04560576534 0)
(0.003488843206 -0.05404417194 0)
(0.003262744427 -0.05403985259 0)
(0.003257937356 -0.05425002963 0)
(0.003483962369 -0.05425454202 0)
(0.002561035331 -0.05402196619 0)
(0.002552189708 -0.05423140346 0)
(0.002791443995 -0.05423827351 0)
(0.002797408317 -0.05402839125 0)
(0.002598030334 -0.0548717025 0)
(0.002811102343 -0.05487425157 0)
(0.002806918604 -0.05466257723 0)
(0.002589391152 -0.05465912469 0)
(0.002659452954 -0.05149958374 0)
(0.002639314973 -0.05170926815 0)
(0.002841419385 -0.05171296527 0)
(0.002860215321 -0.05150348815 0)
(0.002571414537 -0.05232207291 0)
(0.002804784457 -0.05234131406 0)
(0.00280699114 -0.05213104756 0)
(0.002593462832 -0.05212456114 0)
(0.003517293092 -0.0523592938 0)
(0.003520397172 -0.05214908365 0)
(0.003286388584 -0.05214348249 0)
(0.00328437555 -0.05235379165 0)
(0.00369120235 -0.0439181713 0)
(0.003466431576 -0.04391356661 0)
(0.003454430206 -0.04412547073 0)
(0.003683595624 -0.04412930518 0)
(0.002824493903 -0.04389746497 0)
(0.002714443156 -0.04416401669 0)
(0.002990330714 -0.04411862314 0)
(0.003024467839 -0.04390431012 0)
(0.002962677039 -0.04454376062 0)
(0.002749511388 -0.04454202654 0)
(0.003930745222 -0.04307700253 0)
(0.003934122231 -0.04286535854 0)
(0.005477618787 -0.04310957528 0)
(0.005485090372 -0.04268739033 0)
(0.005043222218 -0.04267801901 0)
(0.005035863496 -0.04310040063 0)
(0.005505670186 -0.04141518715 0)
(0.005063608231 -0.04140578095 0)
(0.005056993028 -0.04182993122 0)
(0.005498975557 -0.04183942145 0)
(0.005454838225 -0.04437693981 0)
(0.005013119546 -0.04436788257 0)
(0.005028559095 -0.04352398908 0)
(0.005470276262 -0.04353312408 0)
(0.003927625258 -0.04328942943 0)
(0.003572032514 -0.05067582154 0)
(0.003356662746 -0.05067202201 0)
(0.00334663168 -0.05088221414 0)
(0.003564596434 -0.05088618082 0)
(0.00273375107 -0.05066181359 0)
(0.00271668826 -0.05087097436 0)
(0.002913559281 -0.05087456971 0)
(0.002929551028 -0.05066488246 0)
(0.002878810045 -0.05129435717 0)
(0.002679480336 -0.05129098627 0)
(0.003576857519 -0.04898772234 0)
(0.003567641273 -0.04877641688 0)
(0.00332278843 -0.04877142163 0)
(0.00334205003 -0.04898300025 0)
(0.002588201562 -0.05508069279 0)
(0.002805730526 -0.05508406756 0)
(0.002532228832 -0.0557031812 0)
(0.002769960494 -0.05570994384 0)
(0.002781246549 -0.05550102079 0)
(0.002549475891 -0.05549534646 0)
(0.003453044814 -0.05572470643 0)
(0.003458055037 -0.0555148834 0)
(0.003235836587 -0.05551063952 0)
(0.003229859738 -0.05572036595 0)
(0.003875384341 -0.05657162949 0)
(0.003884865203 -0.05615212853 0)
(0.003443708782 -0.05614456026 0)
(0.005195921215 -0.05659431616 0)
(0.005205627802 -0.05617520855 0)
(0.004765322013 -0.05616750124 0)
(0.00475564977 -0.0565868429 0)
(0.00523489521 -0.05491629387 0)
(0.004794513927 -0.0549084684 0)
(0.004784869979 -0.05532835515 0)
(0.005225251261 -0.05533618061 0)
(0.003732073935 -0.05320657551 0)
(0.003736061698 -0.05299552683 0)
(0.005273540569 -0.05323316984 0)
(0.005282932766 -0.05281222802 0)
(0.004842208359 -0.05280404582 0)
(0.004833050961 -0.05322491442 0)
(0.004860443442 -0.05196440744 0)
(0.005301285248 -0.05197255303 0)
(0.005244705268 -0.05449586582 0)
(0.004804206586 -0.05448807696 0)
(0.004823455284 -0.05364631903 0)
(0.005264030972 -0.05365414828 0)
(0.003727351969 -0.05341737653 0)
(0.002819338259 -0.06368636473 0)
(0.003258061809 -0.06369302998 0)
(0.001728455797 -0.06346016868 0)
(0.001909995184 -0.06493010859 0)
(0.001921201068 -0.06451110793 0)
(0.001483760701 -0.06450466212 0)
(-0.0003879749044 -0.06740018494 0)
(-0.0006620080775 -0.06734359095 0)
(-0.0005905082726 -0.06761328448 0)
(-0.0003778686592 -0.0676143471 0)
(0.001953506139 -0.03876479908 0)
(0.001722401179 -0.03875909492 0)
(0.00171953502 -0.03897827129 0)
(0.001947653162 -0.03898635612 0)
(0.001263336985 -0.03807293498 0)
(0.001271338252 -0.03784531405 0)
(0.00195884476 -0.03854429 0)
(0.00172650506 -0.03854047549 0)
(0.00162256627 -0.0590549528 0)
(0.001440296473 -0.05905697013 0)
(0.00139831093 -0.05925724472 0)
(0.001595571845 -0.05925999195 0)
(0.001626307565 -0.05884537737 0)
(0.001479567533 -0.05886967283 0)
(0.0005442604327 -0.06658427298 0)
(0.0005484573925 -0.06637466752 0)
(0.0003204814183 -0.06636887252 0)
(0.0003168949985 -0.06657868433 0)
(0.0003271634931 -0.06594908375 0)
(0.0005559194643 -0.06595497172 0)
(-0.0002645774191 -0.06596803103 0)