/*--------------------------------*- C++ -*----------------------------------*\
| =========                 |                                                 |
| \\      /  F ield         | OpenFOAM: The Open Source CFD Toolbox           |
|  \\    /   O peration     | Version:  v2012                                 |
|   \\  /    A nd           | Website:  www.openfoam.com                      |
|    \\/     M anipulation  |                                                 |
\*---------------------------------------------------------------------------*/
FoamFile
{
    version     2.0;
    format      ascii;
    class       volVectorField;
    location    "1";
    object      U;
}
// * * * * * * * * * * * * * * * * * * * * * * * * * * * * * * * * * * * * * //

dimensions      [0 1 -1 0 0 0 0];


internalField   nonuniform List<vector> 
3259
(
(99.99939715 0.4401760639 0)
(100.0034041 0.4248619006 1.325493807e-21)
(100.0052191 0.375482177 -1.825289136e-21)
(100.0059418 0.307697576 9.881144596e-22)
(100.0055411 0.2373225454 0)
(100.0048644 0.174806367 1.541064831e-21)
(100.0044414 0.122554118 6.313385877e-21)
(100.0023692 0.08512581825 -1.750383184e-21)
(100.0092002 0.09594007031 -1.51461494e-20)
(100.0062167 0.05870084191 0)
(100.004499 0.03102297512 -1.8935144e-21)
(100.0042788 0.009728430418 -1.332367857e-20)
(99.93687627 1.995439071 8.450215747e-23)
(100.0378334 1.946336928 4.898483742e-22)
(100.1151131 1.732223663 -5.987011724e-22)
(100.1503935 1.422016503 5.084147588e-21)
(100.149149 1.09550856 -9.66432435e-21)
(100.1255771 0.8085348679 0)
(100.1282541 0.5983867218 -2.664286668e-20)
(100.0898808 0.403209405 5.116435328e-20)
(100.0864237 0.2727404758 1.466411239e-20)
(100.0594222 0.1663202136 3.010879169e-20)
(100.0438192 0.08821571794 -3.019801691e-20)
(100.0378914 0.02771570504 1.521774162e-20)
(99.88792327 3.918209746 -4.584141942e-21)
(100.2703292 3.825239996 1.009494047e-20)
(100.5302153 3.350093312 3.029474812e-20)
(100.626838 2.700688836 6.254669002e-22)
(100.5967806 2.046076557 -1.035804612e-20)
(100.4983302 1.473407357 -2.393228783e-20)
(100.4229315 1.015585162 -1.59984241e-19)
(100.3044091 0.6750876485 -3.529111334e-20)
(100.2378 0.4103057822 -1.499778037e-20)
(100.166421 0.2480248929 3.406109347e-20)
(100.1234131 0.1315920647 -3.822293329e-21)
(100.1046704 0.04115038968 0)
(99.70203674 6.22043616 -8.673510967e-20)
(100.6858923 6.061077371 -5.805629929e-20)
(101.3116899 5.147103884 1.323401856e-20)
(101.464641 3.966952124 6.860701043e-22)
(101.3358903 2.888822648 0)
(101.101543 2.026566732 0)
(100.8719661 1.327596796 5.783125896e-20)
(100.625515 0.8620164325 -4.448911257e-20)
(100.4481289 0.4845216568 -3.833629708e-20)
(100.3153355 0.2895054299 1.938005102e-20)
(100.2328745 0.1514700794 -3.886222325e-21)
(100.1952594 0.0469270306 0)
(99.24258968 9.325703661 1.430770544e-19)
(101.4932339 9.019043642 9.807602097e-20)
(102.7439857 7.227159368 8.690286381e-21)
(102.8636134 5.171208861 -9.411172563e-20)
(102.4357121 3.535971254 1.134797273e-19)
(101.9190427 2.372936843 -4.244006107e-22)
(101.4467121 1.476562555 -9.483914214e-20)
(101.0240703 0.9311853501 7.876260761e-21)
(100.6899545 0.4749832831 0)
(100.4810948 0.2782638566 3.954471644e-21)
(100.3508054 0.1410290987 -2.969969656e-21)
(100.2903256 0.04295702421 -9.847048272e-22)
(98.09193096 14.2884639 -2.161500429e-19)
(103.3817029 13.31397226 0)
(105.4162406 9.44556789 0)
(105.0358067 6.097766791 4.936291888e-19)
(103.9296251 3.834891869 2.418216025e-19)
(102.899866 2.41673255 7.989614442e-20)
(102.0943972 1.40488074 2.435098172e-20)
(101.4525879 0.8464483786 -1.625425574e-20)
(100.9306421 0.3695357702 0)
(100.635187 0.2060085475 0)
(100.4534343 0.09610827362 -9.968979645e-22)
(100.3684892 0.02812306761 -2.988197399e-21)
(94.04470054 23.83923154 0)
(109.240869 19.39172777 0)
(110.1778502 10.9801919 -3.506206262e-19)
(108.0248143 6.144448427 -6.642482653e-19)
(105.7149995 3.501916373 0)
(103.9549817 2.041663717 2.100343484e-19)
(102.7086839 1.057989962 0)
(101.8516872 0.5796253521 8.808499695e-21)
(101.1270955 0.1683709405 2.611125047e-21)
(100.7461744 0.06853396958 -3.090383898e-21)
(100.5166904 0.01662111582 -3.516686429e-21)
(100.4081098 0.002553053458 8.477343015e-21)
(124.1760653 22.29889299 3.128287163e-18)
(116.8412409 9.176268238 -1.117986241e-18)
(111.3053087 4.512746822 2.069006634e-19)
(107.4269949 2.302586078 -3.458316257e-19)
(104.8922421 1.182219117 0)
(103.1756066 0.4330583059 -4.662094961e-21)
(102.1441214 0.1462347626 1.98705332e-20)
(101.232375 -0.1221175495 -3.177142409e-21)
(100.7835493 -0.124613695 2.601228713e-21)
(100.5170382 -0.09244591654 -4.898777841e-22)
(100.3887346 -0.03266740463 -7.955845134e-21)
(136.888273 6.709864609 2.348405165e-18)
(121.4750322 2.638378664 4.500328572e-18)
(113.5146337 1.037216351 9.400291751e-19)
(108.5330581 0.2759616703 9.096334575e-21)
(105.4544983 -0.08553240186 7.94345782e-20)
(103.3921939 -0.3970420094 -4.749762988e-21)
(102.2509932 -0.418011805 1.114686006e-20)
(101.211939 -0.4743339486 1.088752471e-21)
(100.7231977 -0.3559379965 0)
(100.4348612 -0.2218904838 4.009603641e-21)
(100.2940348 -0.07463270713 3.964274483e-21)
(134.1447698 -9.419924303 0)
(121.1995499 -5.083979564 1.443004948e-18)
(113.5919177 -3.147462242 -5.089001853e-19)
(108.5910519 -2.110957884 5.654777966e-19)
(105.451953 -1.545689876 6.871876833e-19)
(103.2843744 -1.318776343 4.016711865e-20)
(102.1315893 -1.043682818 0)
(101.0458502 -0.8503376707 -1.064575517e-21)
(100.5509437 -0.602159511 -4.425578724e-21)
(100.2587763 -0.359546984 4.942373715e-22)
(100.114212 -0.1193459859 0)
(125.3290341 -18.28229223 0)
(117.3726621 -10.74232421 1.178085105e-18)
(111.7453459 -6.629620461 -2.248085312e-19)
(107.6218644 -4.25801047 -4.228270173e-20)
(104.8695827 -2.925923424 9.553145292e-21)
(102.8472032 -2.194728887 0)
(101.7852241 -1.647792345 -2.633092648e-20)
(100.7320362 -1.209392102 -1.335471983e-20)
(100.2655287 -0.8382379276 1.010164786e-21)
(99.98729966 -0.4922950607 -3.199703315e-21)
(99.8476653 -0.1626087592 4.685216505e-22)
(115.9856933 -21.44568607 -1.034623168e-18)
(112.2229371 -13.53616223 -4.623877714e-19)
(108.8618446 -8.744802401 -3.621064125e-19)
(105.9683768 -5.768531256 -7.493921806e-19)
(103.8445033 -4.005915561 0)
(102.1393364 -2.913304636 2.107341469e-21)
(101.2464871 -2.162227996 -3.213789994e-20)
(100.291035 -1.523035803 7.904800749e-21)
(99.87892924 -1.041308108 0)
(99.62841683 -0.6086303521 3.684474047e-21)
(99.50092812 -0.2007195291 0)
(139.1954517 9.844351599 -2.428387695e-18)
(125.34578 25.13781347 -3.19147195e-18)
(137.0726309 -8.622026747 -5.524063003e-19)
(139.7410533 7.183980562 -3.229326306e-18)
(127.5804914 -18.86480488 -3.476722361e-18)
(136.0849024 -10.38329853 4.039678796e-18)
(117.5378751 -22.54789338 -1.224244957e-18)
(126.2965214 -19.61824734 3.465473418e-18)
(116.3347082 -22.6821157 -1.149496202e-18)
(92.14345908 22.54444168 0)
(122.2542578 25.82582268 1.569196821e-18)
(107.2967183 21.16486048 0)
(148.0201295 28.98144874 0)
(128.3075019 44.0160728 2.950417977e-18)
(136.3144423 9.054706321 8.584280496e-20)
(123.3366497 5.525092792 0)
(118.5325616 11.03901999 1.471759264e-18)
(150.3189719 -3.997299324 0)
(152.9568213 9.259582983 -4.716575336e-18)
(134.9848514 -7.779250299 2.17881088e-18)
(124.2799683 -3.7598116 0)
(124.1767511 3.212248899 -3.247884095e-18)
(136.993532 -21.10640371 -8.358106166e-19)
(143.9038363 -14.93839643 1.981411169e-20)
(126.5156203 -17.53985492 1.743558104e-18)
(120.3788192 -10.92117633 -1.401071607e-18)
(123.6366316 -5.85304236 0)
(124.189007 -26.98040114 1.4083045e-18)
(129.6577881 -25.17340673 0)
(107.9950652 -32.68769017 -6.916328646e-19)
(112.5317161 -27.63169936 0)
(117.5256402 -27.93095607 -2.062338211e-18)
(153.0025009 10.29448557 1.178026538e-18)
(148.7397842 27.78236567 0)
(135.4817767 17.72712401 -2.240500168e-18)
(147.0770725 26.11776429 -2.714180546e-18)
(151.916565 10.29830697 3.486215719e-18)
(144.3320851 -14.39529779 -6.214561109e-18)
(150.0342131 -4.758690507 3.185408023e-18)
(138.8090696 -1.971982104 0)
(149.2577518 -4.407125618 0)
(143.8824016 -13.96015884 0)
(151.9147502 9.283017128 0)
(149.5317075 -3.663078551 -2.089806154e-18)
(138.9966247 -0.8487926329 2.183304761e-18)
(130.4607075 -24.82233962 -4.123442383e-20)
(136.5284402 -21.44585189 3.355948402e-18)
(131.3912749 -15.98674951 2.496255266e-18)
(136.0379399 -20.83751215 -5.268894099e-19)
(130.232533 -24.00684981 5.167703983e-21)
(143.4693254 -14.50059946 0)
(136.9302267 -20.23542214 1.069390576e-18)
(132.630779 -14.794812 2.667160324e-18)
(118.251784 -27.8974154 0)
(123.4283864 -27.15541663 0)
(105.4262428 -32.46875662 -3.49149602e-19)
(104.9497297 -32.31341764 1.077869526e-18)
(111.826856 -27.5810944 0)
(108.0007232 -32.68888526 0)
(153.3515666 53.22061544 0)
(126.9590959 67.10649436 1.466375287e-18)
(122.1836499 -28.46605368 -5.412290858e-18)
(117.1130414 -21.28661521 4.766259887e-20)
(114.5776916 -14.649099 -1.071502889e-18)
(119.0108474 -12.17072684 1.377891267e-18)
(103.5297779 -31.12679302 1.656051421e-18)
(114.7273212 -31.01644766 4.791165576e-19)
(117.2722804 -30.87516924 9.14014673e-19)
(127.7585017 40.29200682 -1.88557685e-18)
(145.6768029 28.4498583 0)
(133.4598371 20.09587405 2.244540641e-18)
(117.6566868 -30.81309921 1.198323847e-20)
(120.2222699 -30.56849585 0)
(121.2378157 -21.7380341 -2.777392097e-18)
(123.3030063 -26.37415501 -1.326532107e-18)
(118.1966679 -27.12133806 0)
(129.4415584 -24.35486157 0)
(124.052251 -26.19126827 -2.810468616e-18)
(122.4914691 -21.32560716 2.927045353e-18)
(84.13360751 33.17083958 -1.11510482e-18)
(124.4116346 44.1856715 0)
(106.2023381 36.14128743 0)
(86.88769565 35.78255883 4.651384132e-19)
(154.6580781 49.93394709 0)
(142.0212021 37.74344467 6.718261259e-19)
(153.2038288 49.66021696 0)
(126.9618775 62.53162736 0)
(151.0804764 52.39670434 0)
(139.0873782 39.91579772 0)
(151.7177253 1.753870366 -2.507818008e-18)
(151.9177638 2.627059993 0)
(140.2575739 -18.65453069 -5.60866317e-18)
(140.7272342 -18.22973188 1.878019213e-18)
(122.9441166 -29.99332358 2.512158558e-18)
(122.9619958 -28.65441695 0)
(126.4986407 -26.33819365 1.531965544e-18)
(125.6441177 -28.77833804 -1.300156075e-18)
(123.7049779 -29.65267292 0)
(126.1139421 -27.26155943 1.685663806e-18)
(125.6700632 -28.6629408 -2.64213073e-18)
(127.2792312 -26.08234669 0)
(111.7337148 -30.6541431 8.110236218e-19)
(113.9832082 -30.96747296 -9.657712115e-19)
(104.7504304 -31.40731698 -5.740350672e-18)
(152.1523598 17.9401351 0)
(151.903354 19.13826947 -2.343804911e-18)
(147.0918219 -10.18370443 2.396901593e-18)
(147.4549015 -9.537487312 -2.35051408e-18)
(146.9076751 -9.195099461 -2.232833772e-18)
(142.8246179 -6.87000405 -4.911527396e-18)
(144.1357784 -3.178200048 -2.550402081e-18)
(140.5491305 -11.20175984 -2.359021821e-18)
(142.3059006 -8.023279801 0)
(146.5579335 -9.840616808 4.438343316e-18)
(151.1656231 2.807141127 0)
(145.3416323 3.845804074 5.22174621e-18)
(145.2717011 8.543687421 0)
(144.4817846 -1.854153168 2.55028914e-18)
(145.2147774 2.362137744 -2.610098317e-18)
(150.9882069 1.939784882 0)
(133.0563914 -23.37891028 0)
(126.4343047 -27.01006114 5.573143285e-18)
(133.4777913 -23.11640153 0)
(123.3303965 -29.73331802 0)
(120.7754197 -30.13909032 0)
(121.1806898 -27.57607039 0)
(120.5610404 -30.51693381 0)
(122.6509331 -30.09923892 0)
(100.7927838 -30.73569088 1.725729224e-17)
(110.9835871 -30.50733994 0)
(122.0206754 89.64378433 2.96932956e-18)
(114.0468059 -32.18723822 -1.731604612e-18)
(114.3732085 -31.90153719 -1.81892906e-21)
(35.5231212 10.47158849 0)
(114.172749 -31.73665567 1.101635975e-18)
(113.4224948 -31.16253653 -1.127618307e-18)
(69.57084798 45.02236721 0)
(121.9511338 66.33899966 -3.320802394e-18)
(101.4301537 53.57634697 0)
(76.95143015 51.88009454 -1.442320149e-19)
(151.0004774 -1.599860169 4.336069169e-18)
(155.9991696 9.037505282 -6.075799958e-18)
(155.29488 5.841316361 0)
(152.6282555 6.294273861 2.754089252e-18)
(138.3736466 -20.16937609 1.71955022e-18)
(138.7137228 -21.7287006 -1.832225544e-18)
(137.3997787 -22.61705023 -1.866566107e-18)
(144.1071845 -16.45898942 -7.667553386e-18)
(142.5265408 -18.05153094 0)
(142.5757429 -16.44815841 1.90086452e-18)
(152.8299367 13.46583815 2.31474783e-18)
(156.0686485 13.43589856 -8.479622477e-18)
(156.2288563 10.13492331 4.445677826e-18)
(150.7347231 18.76980886 2.335895651e-18)
(143.2302285 17.01698728 2.457239331e-18)
(140.47077 22.1974274 2.400408507e-18)
(145.0753347 10.19042653 2.544362432e-18)
(143.8673034 15.27438407 -2.482054666e-18)
(150.963182 17.64333124 3.130060783e-20)
(145.5688792 -12.67377506 -4.439298696e-18)
(146.1163889 -14.04448703 -5.424137612e-18)
(144.632733 -15.89454758 -2.558890849e-18)
(149.0151673 -6.941027974 0)
(136.9131593 -22.92323024 -3.727987087e-18)
(135.4456105 -23.69982409 1.666500718e-18)
(135.1872211 -22.19067509 -1.612200176e-18)
(133.4750265 -22.37440459 -1.898257055e-18)
(131.8530768 -19.85607905 1.826546757e-18)
(134.0989452 -18.25457934 -1.957349342e-18)
(140.4259706 -17.76144252 0)
(137.8233923 -14.78468062 -2.13357542e-18)
(139.9009615 -12.16985633 2.330889072e-18)
(134.853003 -17.64701826 1.957428186e-18)
(137.0945478 -15.56710044 2.130668829e-18)
(139.9765623 -18.18334497 2.662511273e-20)
(120.4452363 -27.68245537 -1.212768278e-18)
(120.4125138 -30.19362012 0)
(118.0024058 -30.2363176 1.143926426e-18)
(102.2460063 -31.45733463 -5.149544477e-18)
(144.6027241 62.69759603 0)
(123.5315534 85.93816287 1.80480311e-18)
(140.5919851 65.34615669 0)
(123.4553658 -27.99897996 -8.422676227e-18)
(123.724786 -27.87052686 8.773647673e-18)
(113.3556275 -32.25741956 -1.60341149e-18)
(113.9528007 -32.19200441 -4.040112867e-19)
(103.2682726 -30.71934936 -3.753591623e-18)
(47.98854249 -7.137736201 0)
(42.84812617 9.939554451 -3.904495057e-18)
(51.28225276 -9.232013976 -5.227528663e-20)
(115.6466394 -30.83495126 1.157628647e-18)
(116.2970628 -31.36778253 0)
(119.1376304 -30.69825131 9.759058934e-19)
(112.4941389 -30.80815528 7.00614022e-18)
(111.8759182 -30.30698834 0)
(156.6508421 41.59003667 0)
(151.0169031 39.08948797 0)
(146.3132001 44.01652015 0)
(154.8252522 32.34776003 0)
(152.219531 37.39546534 0)
(144.4706524 45.61551348 0)
(138.0510565 49.78743486 0)
(142.7622143 59.13879999 0)
(153.7849189 1.10710236 0)
(152.4960977 -1.606533523 -8.42596003e-17)
(151.1659475 -0.7841905392 -2.248477897e-18)
(152.4745008 5.342856923 1.214860606e-18)
(155.0021124 4.821679222 0)
(154.0948298 2.010969873 0)
(140.7768762 -20.1115365 0)
(139.213441 -21.37151299 1.904303453e-18)
(138.8465648 -19.82189251 0)
(137.8756528 -21.90418045 -2.210817787e-18)
(139.7587803 -20.61649106 -9.958610954e-18)
(136.7239045 -23.01399284 2.419085428e-19)
(137.3474346 -22.26846829 1.033892252e-17)
(140.3004889 -20.06967919 0)
(142.1198597 -16.90768632 0)
(141.9708278 -18.47232632 3.93860808e-18)
(141.2720383 -19.63482779 2.236515728e-18)
(123.1756462 -29.61063933 1.239445148e-18)
(123.2737311 -29.40536219 0)
(124.975273 -29.30188857 1.270107368e-18)
(125.6280223 -28.0425812 0)
(126.7973428 -27.7510969 0)
(126.4904368 -27.94323014 0)
(128.8004755 -27.04328592 0)
(130.0115406 -26.57892626 -1.441279946e-18)
(127.1864176 -27.58349524 0)
(128.395965 -27.19343624 0)
(126.3450005 -28.13988926 0)
(106.6192481 -32.27972748 7.549959656e-19)
(112.1458653 -32.17014265 7.18499444e-19)
(113.0777679 -32.23367859 -7.814115367e-19)
(156.0638282 18.47032853 -9.093184224e-21)
(155.9808175 14.7116068 0)
(152.7040684 14.5428854 2.387338903e-18)
(156.9342207 14.84577426 0)
(157.2925255 18.60337765 3.138232805e-18)
(156.7344235 13.45353548 0)
(156.3839076 25.79401699 0)
(155.4743935 30.66686813 -2.403319676e-18)
(157.3788263 19.85955177 0)
(156.5662097 24.30887902 0)
(150.8884583 22.72734622 0)
(155.294735 23.96684108 0)
(156.0585706 19.79436568 -2.777902427e-21)
(147.9167019 -11.36283631 0)
(146.604187 -13.38917033 -5.388109585e-18)
(145.9638235 -12.07027096 -2.222431409e-18)
(148.6189756 -7.60943717 0)
(149.157969 -8.814541594 0)
(148.2843002 -10.67115571 -5.802128262e-18)
(131.9831197 -25.70064798 1.889162989e-18)
(133.1970401 -25.1515267 -3.314274522e-18)
(130.4252855 -26.41350201 -1.712857961e-20)
(131.6215452 -25.85704774 0)
(126.7486481 -26.33203078 0)
(134.9205029 -24.07139625 0)
(136.3278957 -23.32012459 3.049006136e-18)
(133.5831533 -24.91882102 -4.150038813e-19)
(134.5101391 -24.31391724 -4.943585473e-18)
(111.1862869 -30.06310567 0)
(121.5874551 -30.3614233 0)
(114.4939997 -29.9490803 5.944112182e-18)
(114.7962186 -30.51213905 0)
(114.6753294 -29.84108053 0)
(121.891951 -30.27266441 0)
(100.9554386 -31.15711372 -3.03978686e-18)
(121.5887673 22.9779422 -1.492211275e-18)
(116.4311484 12.08662344 2.057095564e-19)
(110.4544521 12.70143953 7.482106075e-19)
(106.8100643 -30.91055837 0)
(107.0685362 -30.83652759 0)
(113.0770098 -15.08432205 9.029146597e-19)
(106.3798671 -30.58889285 -1.712055313e-17)
(117.4844153 -27.17009159 2.047160492e-18)
(112.9497515 -26.63293468 -3.811684005e-20)
(112.826829 -22.71017923 0)
(55.3470493 57.37535429 -1.111845037e-18)
(52.40904619 33.18899358 2.095635355e-18)
(38.57643536 20.06288145 0)
(107.7632477 94.1582026 -6.834163243e-18)
(91.25097329 73.00230928 1.146821868e-19)
(62.78073995 66.32658031 1.100522931e-18)
(114.1209439 24.95140704 0)
(109.5657565 33.29033863 0)
(124.4352135 40.51318423 7.876635276e-19)
(145.4612905 32.93990375 2.226090141e-18)
(150.1147432 36.17515599 0)
(152.9468813 31.5007089 -2.36644822e-18)
(110.7409977 -31.94683399 0)
(111.7968935 -32.17844318 0)
(107.1308517 -32.38871091 -7.02030204e-19)
(117.2511488 -30.275987 8.236933548e-19)
(115.0035787 -30.21612271 9.778362301e-19)
(115.3640692 -27.92545161 -9.459270123e-19)
(153.6816067 29.97254083 4.848900488e-18)
(154.9967382 25.40153486 0)
(150.4406596 23.92609573 0)
(101.1981131 -31.65075495 -1.86519014e-19)
(104.3578988 -32.19686513 -5.303535763e-19)
(98.76841257 -31.04702154 2.97274046e-18)
(99.99793962 -31.28260939 4.797301209e-18)
(110.3664437 -31.92349426 0)
(151.4426677 56.16366062 0)
(122.6206061 -28.30752203 -6.247726384e-20)
(108.964345 -32.16875837 -1.597773088e-20)
(108.6675115 -31.94691202 -6.398510787e-21)
(103.9517001 -31.03001953 3.539573916e-18)
(116.0605946 -31.85159785 0)
(115.2180925 -31.95042947 -8.522756034e-19)
(116.1550224 -30.82863086 0)
(139.229424 23.87006541 -2.249531417e-18)
(134.5384502 28.33239816 -2.120685901e-18)
(139.7189435 35.01666472 -1.307214597e-18)
(118.7753094 -30.78381944 -9.864530269e-19)
(116.4875017 -31.53234102 0)
(116.2271105 -31.79807563 0)
(114.4333819 41.24220232 -3.633976879e-19)
(106.3172193 50.4917576 0)
(122.9012805 62.11083842 0)
(154.7921164 47.00345397 0)
(152.503386 46.07078976 0)
(150.7568631 48.36159747 0)
(157.6240917 32.9906353 0)
(157.2897649 35.2421458 0)
(123.1523364 -29.83801494 -6.310919736e-19)
(120.7918996 -29.7552063 -6.857494397e-19)
(120.8082097 -29.9494886 -7.363769274e-18)
(119.8991299 -28.40226671 0)
(120.5716633 -28.69942898 0)
(123.5152115 -28.94687735 7.275213224e-19)
(124.0552737 -28.42340282 0)
(125.2237547 -28.19290834 7.042207107e-22)
(124.6541386 -29.3997832 0)
(125.5992978 -27.52193043 0)
(128.5670661 -27.51256456 7.11834179e-19)
(128.7556309 -27.25924183 2.97679777e-18)
(105.8977787 -31.7988358 4.310541517e-19)
(109.7853968 -32.43898215 7.96948379e-19)
(109.412064 -32.27208026 -9.780527024e-19)
(129.5791228 -25.72207452 1.93840121e-18)
(130.0969013 -25.52394964 0)
(129.0442328 -27.04579897 0)
(129.3776912 -26.83987743 2.970136147e-20)
(126.8875163 -26.81181832 -3.997330121e-18)
(130.4027106 -25.29654376 0)
(130.0186204 -25.00780915 0)
(134.7461091 -22.483563 -1.584095835e-18)
(134.9968095 -23.92860943 3.231535263e-18)
(133.7328414 -24.48116645 1.591953964e-18)
(101.4835866 -30.99028935 -7.101150465e-18)
(106.0142951 -31.11168215 -8.83372851e-18)
(106.4672971 -30.99735568 2.170634194e-18)
(111.0643119 -31.4382675 -1.076803575e-18)
(111.2236375 -31.65672705 1.024288168e-18)
(114.3366011 -32.0569561 -9.564030268e-19)
(36.37452266 3.418883265 0)
(26.15474731 14.23161946 0)
(38.98672338 -3.134380351 0)
(113.889127 -31.63025379 0)
(109.0900925 -30.83431576 3.877923268e-18)
(110.1606528 -31.09848992 -1.353320841e-17)
(109.5480572 -30.57345094 4.563622647e-18)
(109.5423421 -30.69263707 0)
(113.6963362 -31.39979888 0)
(110.4859823 61.7443011 0)
(97.99558135 70.11810436 0)
(114.6982794 85.32433374 0)
(152.0544739 -3.08722092 -1.286114843e-18)
(152.2786395 -2.27458057 1.173081665e-18)
(151.3861745 -4.654330987 0)
(151.7312696 -3.873099466 -2.666862394e-18)
(155.7687457 7.965497958 3.112109637e-18)
(154.8567966 8.032482951 -2.628659762e-18)
(155.0356051 9.087832687 3.26016048e-18)
(154.4616676 5.974849849 0)
(154.6680449 6.995485345 3.336527092e-18)
(155.5398736 6.904358285 3.121326098e-18)
(143.5867335 -17.03250289 -5.017928088e-18)
(144.2313207 -16.4148719 2.131974229e-18)
(144.6992793 -15.86025188 -6.502646086e-18)
(143.2635785 -17.4449596 1.971793116e-18)
(143.7506582 -16.95498336 -2.032297345e-18)
(143.0338444 -17.58579438 0)
(156.2773786 12.38804336 2.529413546e-18)
(155.2039654 12.49103498 7.118792476e-18)
(155.0808226 13.60976621 9.949256296e-18)
(155.1825317 10.17973746 -1.27783787e-18)
(155.2451388 11.32537399 -4.910639707e-18)
(156.3551852 11.28530246 2.765874481e-18)
(145.6315309 -14.6538257 5.346541165e-18)
(146.0423872 -14.08273261 -6.994734989e-18)
(146.469287 -13.47771755 -2.360621868e-18)
(145.1613696 -15.29299711 4.520317279e-18)
(145.6088303 -14.69074305 -4.542717807e-18)
(145.1507646 -15.27917686 0)
(150.7507596 -6.300405545 0)
(151.0820452 -5.456475292 0)
(149.9062483 -7.774164264 -9.049594041e-18)
(150.3720539 -7.076277365 0)
(96.56939627 -30.71931877 0)
(98.02846429 -30.72201473 3.64416165e-17)
(98.95967721 -30.98009583 0)
(103.5979812 -31.86601433 3.340453521e-19)
(95.88031254 -30.50178186 -1.166512151e-17)
(147.2942781 64.49757883 -5.926366144e-18)
(150.6996554 60.08009246 9.378966108e-18)
(148.6552117 59.48731114 0)
(134.6800702 79.28554577 2.673583714e-17)
(133.0631565 77.17900669 -1.754441729e-17)
(124.9382175 79.92886008 2.121181335e-18)
(144.9706674 68.44173543 0)
(139.6297488 72.87515549 0)
(122.9618675 -28.14257245 8.659688579e-19)
(123.2693376 -27.62979491 -2.546855459e-17)
(103.9849299 -30.9493723 5.77317332e-18)
(108.2989015 -31.71792803 1.41633661e-18)
(107.2030208 -31.36740579 5.964161045e-18)
(45.15949733 -3.530337563 0)
(111.4311642 -30.55680691 4.262074311e-18)
(108.8337317 -30.32149426 -2.224812283e-17)
(111.8667029 -30.42149353 0)
(155.3236765 41.27795372 0)
(154.0049636 43.80328295 0)
(155.9078739 44.51230318 0)
(154.0536681 33.9615363 0)
(155.8060354 34.7479489 0)
(156.5023432 32.72950248 0)
(156.90638 37.06435509 0)
(156.3043115 39.08304209 0)
(153.4401681 0.2452488006 1.01927457e-19)
(152.9926981 0.4787901642 -2.829480156e-18)
(153.2342074 1.34170753 -2.821980897e-18)
(152.4586247 -1.416340895 3.546801769e-17)
(152.8583577 -0.3479954419 8.53464962e-21)
(153.1379632 -0.5419694475 0)
(154.6878981 3.869936494 -7.652534444e-19)
(153.9765403 4.040935839 8.646656153e-19)
(154.2282381 4.985804514 0)
(153.4764418 2.222512438 5.579983485e-18)
(153.7254563 3.123341647 -2.758452e-18)
(154.3919367 2.933490231 0)
(140.2640658 -20.57404999 -1.055795701e-17)
(140.3536441 -20.12441766 -1.985131567e-18)
(140.8626486 -19.68697984 0)
(138.4964201 -21.52375123 -2.340103485e-18)
(139.1359847 -21.11719669 1.191976409e-17)
(136.8412515 -22.71907598 -1.166967605e-17)
(134.9392513 -22.97913643 2.804515214e-17)
(135.1120648 -23.33622912 2.746307895e-18)
(136.7260713 -22.58665232 1.433296606e-17)
(140.6595343 -19.60254429 0)
(140.5788653 -19.16231791 3.563864672e-17)
(141.9770503 -18.72709814 8.486749737e-19)
(142.3460782 -18.32785136 0)
(142.8017183 -17.90295295 -3.866275094e-18)
(141.3728247 -19.23904539 -3.144584226e-18)
(141.875955 -18.7815511 0)
(141.7106354 -19.17145504 -1.13003276e-18)
(119.3938093 -29.32292205 0)
(120.1823764 -29.49742332 -1.061711042e-18)
(123.1881963 -29.69465052 -8.807561969e-21)
(116.8854613 -29.19506012 0)
(117.2894402 -29.55238405 6.343255738e-18)
(117.5214056 -29.43431511 7.579731459e-18)
(123.490303 -29.20344168 -7.184224846e-19)
(120.3468013 -28.92001947 0)
(119.9535756 -29.1419157 0)
(128.2145738 -27.84446271 0)
(128.4152063 -27.66124638 0)
(126.1695747 -27.68885184 0)
(156.024659 17.19368229 -8.482372973e-18)
(154.8880007 17.10483957 -2.609859412e-18)
(154.8397759 18.33965034 0)
(154.9727586 14.70497223 0)
(154.9259222 15.89663762 1.305879309e-18)
(156.000528 15.92364435 1.420579931e-18)
(157.0849247 16.02038673 -1.029299738e-17)
(157.1735405 17.3479556 -1.84165017e-19)
(156.2283187 27.33324276 0)
(157.64844 27.60861314 0)
(157.6621509 26.05613086 0)
(157.1610747 30.96231267 0)
(157.5591165 29.25171051 0)
(155.9591687 28.96588562 0)
(157.267082 21.15231404 0)
(157.7473257 24.66845895 0)
(157.912862 22.71924898 0)
(156.923707 22.57927075 0)
(147.4965812 -12.06362816 0)
(147.6845708 -11.54301252 -5.015417433e-18)
(148.0543235 -10.87035602 0)
(146.8842161 -12.83635669 4.911690816e-18)
(147.2901332 -12.18878704 0)
(147.0528815 -12.72404445 0)
(149.0078991 -9.364768805 -4.411379979e-18)
(149.2175511 -8.898199546 -1.304712747e-18)
(149.6705172 -8.232736918 0)
(148.4092913 -10.20662916 0)
(148.787348 -9.555841401 2.015721528e-18)
(148.6580352 -10.00399176 6.095100757e-18)
(128.7868074 -26.11127486 2.339054174e-18)
(129.2096025 -25.90789226 5.344382527e-18)
(127.1702872 -26.62716979 1.169965113e-18)
(129.577554 -26.59565097 -8.677905746e-19)
(129.3351539 -26.29517947 0)
(135.3609556 -23.82116324 7.390172815e-18)
(133.5038343 -24.14257636 -8.477438274e-18)
(132.9631633 -24.3946194 8.167533789e-18)
(134.6814768 -23.64431177 -3.821081483e-18)
(134.0691747 -23.90631738 -1.116953135e-18)
(135.8324157 -23.58247392 -3.855783951e-18)
(133.8845602 -24.70655816 -7.91936459e-19)
(132.32925 -24.94777882 1.186203338e-17)
(132.4704024 -25.19277594 4.400270894e-19)
(132.5187901 -24.63461731 3.716117484e-18)
(131.9694737 -24.83977294 -1.2958772e-17)
(134.1721706 -24.55191578 0)
(114.2254963 -30.0923796 7.813406202e-18)
(118.1563665 -30.64723241 -1.14243646e-18)
(118.2519002 -30.49425651 -1.858513202e-18)
(118.4122442 -30.95531924 9.864752909e-19)
(118.2162521 -30.8512151 -5.407584586e-19)
(113.7780918 -30.26373203 5.484115162e-19)
(116.4716057 -29.82307005 9.397484147e-18)
(116.948747 -29.6858371 0)
(118.1558337 -30.29131672 6.384713676e-19)
(117.4038807 -30.01432621 -8.967406481e-20)
(113.9604068 -29.6053954 -2.042757754e-17)
(101.4203998 -31.08088019 -3.756706915e-18)
(99.84996467 3.37351917 3.276451968e-22)
(99.98095651 1.97129385 -2.161170061e-22)
(99.91302942 3.412621656 -4.754068329e-21)
(100.1442151 3.387438592 -4.020976905e-21)
(100.0828923 1.981408535 -7.302699634e-22)
(100.2014729 3.33267215 4.66582491e-21)
(100.3710291 3.055238585 7.803494567e-21)
(100.1612531 1.806948277 0)
(100.4003093 2.934665797 -1.055178308e-20)
(100.4781575 2.5274151 -1.476457409e-20)
(100.1972336 1.514864389 0)
(100.4802891 2.384941558 2.059873774e-21)
(100.4767224 1.953238596 5.180390696e-21)
(100.193135 1.185586409 -4.312669345e-21)
(100.4581742 1.814702734 -2.440679565e-21)
(100.4082341 1.430032224 0)
(100.1646024 0.8829451701 -1.078851506e-20)
(99.56881972 5.504522998 -9.97613115e-21)
(99.79736476 3.870333695 1.762880161e-20)
(99.76517564 5.591515545 1.037009666e-19)
(100.3739205 5.558664503 -2.374073194e-20)
(100.1873309 3.890174294 -1.011695849e-20)
(100.5560607 5.452067757 -1.881686028e-20)
(100.9791233 4.907684714 -2.768661584e-21)
(100.4865955 3.49375445 -1.978119729e-20)
(101.069173 4.673976408 -2.423104973e-20)
(101.2049264 3.90770223 7.094286246e-20)
(100.6200373 2.867335635 1.147195466e-20)
(101.2107669 3.649743478 -7.453994397e-20)
(101.1578365 2.920081088 -1.06917488e-20)
(100.6171904 2.205465806 -1.959116291e-20)
(101.1230412 2.697336545 9.155744063e-20)
(100.9814875 2.082018252 -2.886142046e-19)
(100.527416 1.605217783 -1.162612997e-20)
(98.94784776 8.237162599 0)
(99.45793286 6.114120516 3.764838473e-21)
(99.39891166 8.435644992 -5.051231651e-20)
(100.8150273 8.399262644 7.162399202e-22)
(100.4589523 6.186991778 0)
(101.2337987 8.183079559 0)
(102.1328968 7.116396343 2.765692297e-19)
(101.2036467 5.42018734 7.039224505e-20)
(102.301371 6.679860397 -8.703066448e-21)
(102.4744315 5.326052783 8.657527798e-20)
(101.4627599 4.261811462 7.418728813e-20)
(102.4466458 4.887245641 3.469257272e-19)
(102.225198 3.729198233 0)
(101.382458 3.139973712 4.548208204e-20)
(102.1240936 3.397457407 -2.608401029e-20)
(101.8020643 2.551374289 0)
(101.1665984 2.223012304 0)
(97.45472905 12.24889473 2.542563036e-19)
(98.69077728 9.078286446 -3.267716946e-19)
(98.48851778 12.75988948 0)
(101.8128112 12.61091398 9.36753392e-20)
(100.9837881 9.283645801 -6.598163476e-20)
(102.7211477 12.06635699 1.651464743e-19)
(104.3578582 9.751820046 -4.67633853e-20)
(102.5556093 7.739246886 -6.14450447e-20)
(104.5797985 8.902394347 0)
(104.5747998 6.58619405 1.086037289e-19)
(102.9062152 5.661546265 -2.589800825e-19)
(104.4166632 5.918967687 -2.236013833e-19)
(103.7626402 4.257387182 -4.689105578e-19)
(102.565458 3.897926742 1.055860092e-19)
(103.5222387 3.807762469 -4.971546479e-19)
(102.8429725 2.727121685 0)
(102.0421975 2.625944795 -2.872841292e-20)
(93.31782337 20.83563817 3.705450552e-19)
(96.79174261 13.62516096 -3.782591013e-20)
(94.82127144 21.93524555 0)
(105.3322895 19.68936003 2.121071972e-19)
(102.2921386 14.03038573 -1.453522316e-19)
(107.0218465 17.83561693 3.034964138e-19)
(108.8421994 12.30594846 0)
(105.2051953 10.43763857 1.863288572e-19)
(108.7639651 10.77473149 3.494510707e-19)
(107.6979019 7.179347857 -8.195931354e-20)
(105.2540555 6.831388042 -9.81263302e-19)
(107.2142367 6.265914289 6.090234706e-19)
(105.7202674 4.179157889 0)
(104.2178186 4.312662741 0)
(105.2546472 3.659433165 0)
(104.0365245 2.476080929 1.75902606e-20)
(103.1324046 2.709802253 2.59345556e-19)
(90.08917379 32.72843247 -2.318495343e-19)
(103.9340319 32.71183081 0)
(100.9204293 24.61172389 0)
(112.6283292 22.09269636 4.266438533e-19)
(112.6719248 17.72318675 -2.285945942e-19)
(110.1614746 16.9308002 3.618308782e-19)
(115.1553432 10.11058736 2.175243351e-18)
(111.5879344 6.031335856 -2.592350179e-20)