/*--------------------------------*- C++ -*----------------------------------*\
| =========                 |                                                 |
| \\      /  F ield         | OpenFOAM: The Open Source CFD Toolbox           |
|  \\    /   O peration     | Version:  v2012                                 |
|   \\  /    A nd           | Website:  www.openfoam.com                      |
|    \\/     M anipulation  |                                                 |
\*---------------------------------------------------------------------------*/
FoamFile
{
    version     2.0;
    format      ascii;
    class       surfaceVectorField;
    location    "1";
    object      Uf;
}
// * * * * * * * * * * * * * * * * * * * * * * * * * * * * * * * * * * * * * //

dimensions      [0 1 -1 0 0 0 0];


internalField   nonuniform List<vector> 
6464
(
(99.99688432 0.8817263507 1.323376902e-22)
(100.0006831 0.44199936 0)
(100.0026864 0.4341285974 6.62737719e-22)
(100.0164549 0.8513378865 -1.315986142e-23)
(100.0038718 0.4165325334 1.178171455e-21)
(100.0047787 0.3911203584 -4.329954222e-22)
(100.0289753 0.7526077805 -7.273862359e-22)
(100.0054807 0.3601039046 -1.324203558e-21)
(100.0058417 0.325641102 8.247897438e-23)
(100.0335589 0.6155780101 1.893187504e-21)
(100.0058969 0.2897542834 4.94071658e-22)
(100.0056963 0.2541728006 0)
(100.031698 0.4738695086 0)
(100.0053311 0.2202754898 0)
(100.0049927 0.1888427452 7.705045157e-22)
(100.0263126 0.3490513624 1.60044703e-21)
(100.004998 0.160711435 -3.900375642e-21)
(100.0047862 0.1339447196 -1.455962654e-21)
(100.0214419 0.2436726806 3.156934496e-21)
(100.0040723 0.1110271463 3.156698922e-21)
(100.0030362 0.09191360142 -8.751183112e-22)
(100.0127553 0.1656054921 -4.440428218e-23)
(100.0009146 0.07828655032 1.711239e-21)
(100.0077165 0.07492831752 -7.579027042e-21)
(100.0443277 0.1841896211 3.632076884e-22)
(100.0161518 0.1672125595 -2.690593858e-21)
(100.0027018 0.07727609146 -1.556742152e-21)
(100.0053597 0.04312399667 -9.480135012e-22)
(100.0297428 0.1124514828 1.503755193e-20)
(100.0043888 0.02014479628 -7.609743633e-21)
(100.0215901 0.0595973813 -1.603351568e-20)
(100.0189842 0.01872108131 1.328931398e-21)
(99.95890967 1.975906066 -6.579795061e-23)
(99.98949711 1.771262231 -6.369134385e-22)
(99.9598901 2.225155209 -1.036416045e-21)
(99.98489659 2.007334678 -1.617190201e-22)
(100.0603567 1.957413613 3.980345492e-23)
(100.0615533 1.723386143 -1.242860088e-22)
(100.081277 2.171690346 5.008002599e-22)
(100.0824078 1.936005512 -9.228079634e-22)
(100.13818 1.76777273 -2.993741746e-22)
(100.1068374 1.531299864 -2.416232769e-22)
(100.1671516 1.930628468 -7.717490508e-23)
(100.149901 1.70298879 2.351320319e-21)
(100.1738132 1.4695154 2.54218768e-21)
(100.1244691 1.255731011 4.419507763e-21)
(100.2038136 1.583592617 4.414865886e-21)
(100.1748168 1.384467611 5.519355588e-22)
(100.1711426 1.143027722 -6.927199981e-21)
(100.1176919 0.9670968357 -6.441633355e-21)
(100.1961554 1.217712743 -2.336833491e-21)
(100.1651463 1.058981234 -2.288882784e-21)
(100.1450908 0.8487632199 -5.394096032e-21)
(100.0948894 0.7134197992 4.904519827e-22)
(100.1608729 0.8941349872 -1.433815489e-21)
(100.1358746 0.7781249678 5.830152628e-21)
(100.0863026 0.4815634841 -1.331754274e-20)
(100.1386957 0.6583536251 -1.331650799e-20)
(100.1928689 0.707557107 1.346155672e-20)
(100.1183973 0.5442935988 -2.718694041e-20)
(100.0992183 0.447295074 1.166403799e-20)
(100.1369786 0.4743639167 -1.644965259e-20)
(100.0803676 0.3654742685 2.380626357e-20)
(100.0604529 0.3245638202 2.643653023e-20)
(100.0729372 0.2172041011 2.238430981e-20)
(100.1666963 0.3415395338 -1.711065669e-22)
(100.129132 0.3882919264 4.72777245e-20)
(100.0760753 0.3066824714 2.547414663e-21)
(100.0516122 0.1256424778 -7.080742611e-22)
(100.1156501 0.207177827 3.20853196e-20)
(100.0408537 0.05741597952 -7.476941933e-21)
(100.0859089 0.1099040269 -1.700816998e-20)
(100.0731413 0.03443167972 7.60816268e-21)
(99.90056507 3.665360322 -4.677068007e-21)
(99.84263894 3.895991797 6.529398975e-21)
(99.872133 4.182324642 7.417268209e-21)
(99.94061672 3.927775138 2.843161292e-21)
(100.2355508 3.578576609 7.376197888e-21)
(100.2288328 3.85939346 -6.721710299e-22)
(100.310321 4.08203559 2.813921451e-20)
(100.3134922 3.779731365 4.719198882e-21)
(100.4647686 3.141812617 9.845047166e-21)
(100.5084179 3.423010825 5.046647473e-21)
(100.6057124 3.563078012 3.585611397e-20)
(100.5515862 3.271613661 1.514109258e-20)
(100.5531973 2.542778025 1.350899983e-21)
(100.6234401 2.784831219 6.06719955e-21)
(100.7101587 2.858172591 -1.738317728e-20)
(100.6302911 2.616853475 4.819213933e-21)
(100.5273589 1.930383889 -6.399163467e-21)
(100.6069857 2.126257448 -1.496253918e-20)
(100.6750345 2.159214133 -5.179342231e-21)
(100.5876291 1.968348673 5.685735424e-21)
(100.5128763 1.539085698 -1.777795323e-20)
(100.4409977 1.392846196 -1.196451329e-20)
(100.5619462 1.547961313 -1.198064792e-20)
(100.4875502 1.409579929 6.358224036e-21)
(100.3396588 0.9161220398 -5.266608076e-20)
(100.4558006 1.121125719 -2.758763405e-20)
(100.5267384 1.102163814 -7.988070623e-20)
(100.3918723 0.9218455281 -3.789038646e-20)
(100.2443519 0.6105104348 -5.993499927e-20)
(100.3326471 0.7521313126 2.388345751e-20)
(100.3786327 0.7273403543 -2.845105496e-20)
(100.2782006 0.6091292444 -2.48733648e-20)
(100.2021013 0.3277852275 1.007176862e-20)
(100.348828 0.4473888195 -2.556917943e-20)
(100.3315041 0.5460732343 -1.413867257e-22)
(100.2472829 0.4977508261 -1.464325647e-20)
(100.1448942 0.188543309 1.503973769e-20)
(100.2466355 0.2687605967 2.671911919e-20)
(100.1140408 0.08567702529 -1.910932784e-21)
(100.1829542 0.1415271623 -3.854261073e-21)
(100.1539414 0.04403513146 0)
(99.73406409 5.905893301 8.173065533e-21)
(99.57987458 6.168993276 -4.141398892e-20)
(99.66304461 6.5587185 2.907112888e-21)
(99.82967466 6.246273281 -5.426742245e-20)
(100.620234 5.756314047 -3.816765485e-20)
(100.5723462 6.125752014 -2.899126857e-20)
(100.7611598 6.387290609 1.38906208e-20)
(100.7875914 5.974593214 2.697591131e-21)
(101.1892799 4.910099355 -5.533103891e-21)
(101.2576577 5.284005883 4.158489792e-20)
(101.4511421 5.392497431 -7.30640425e-21)
(101.3507539 5.002304253 -1.424533581e-20)
(101.3368682 3.80789127 -3.685989172e-20)
(101.4636958 4.113862723 3.725791039e-20)
(101.6077686 4.124447822 4.153970373e-20)
(101.4572 3.822601391 4.220134514e-20)
(101.2285642 2.792403873 4.610193744e-20)
(101.3592352 3.01456455 2.279773285e-20)
(101.4541063 2.978452559 -9.442473e-20)
(101.3100455 2.771121182 2.146578824e-19)
(101.1339584 2.123687709 0)
(101.0152684 1.963490148 4.784947888e-20)
(101.1949097 2.081536395 0)
(101.0684665 1.932558731 0)
(100.7515432 1.25814322 2.895438007e-20)
(100.9439634 1.475498573 1.877015925e-20)
(101.0098876 1.376507952 -1.636853193e-20)
(100.8067774 1.199954413 3.631178036e-20)
(100.5400095 0.8207404962 -3.305152132e-20)
(100.6835516 0.9675971443 -1.476121958e-20)
(100.7225598 0.8876775485 -1.489852904e-20)
(100.5749697 0.7729856207 -7.240752985e-21)
(100.3816747 0.3860263861 -9.275507989e-21)
(100.5757629 0.4797430235 -1.915769427e-20)
(100.606697 0.6397234686 -2.54117793e-21)
(100.4989655 0.6150087286 5.615523016e-21)
(100.274095 0.2192262297 7.682810451e-21)
(100.4038799 0.2838778679 1.166680914e-20)
(100.2140658 0.09858291407 -1.942984415e-21)
(100.2967308 0.1462457339 -3.428129324e-21)
(100.2469116 0.04493873842 -4.92339959e-22)
(99.32202299 8.880695229 4.629536945e-20)
(98.96645547 9.206723299 -8.443199152e-20)
(99.1460589 9.82395261 7.365482637e-21)
(99.53557455 9.390803064 8.13321579e-20)
(101.3604243 8.601301097 4.905797005e-20)
(101.2381548 9.155206771 1.029147373e-20)
(101.6473492 9.478501152 -8.496701383e-22)
(101.7115555 8.840941209 4.914905547e-20)
(102.519489 6.953474733 1.348689118e-22)
(102.6496219 7.482677822 -2.642677436e-20)
(102.9980824 7.50477183 -3.747581913e-20)
(102.8011981 6.964324589 -1.410351035e-19)
(102.6539988 5.028140305 1.280978402e-19)
(102.8848699 5.415973341 -1.76374973e-19)
(103.0996277 5.309308779 -4.683367693e-20)
(102.8252194 4.94169868 -4.583327756e-20)
(102.279499 3.466662732 4.365127528e-20)
(102.5003242 3.715164913 1.091263469e-19)
(102.6039173 3.594534839 -1.667429379e-19)
(102.3688398 3.368673552 4.881167357e-21)
(101.9806024 2.499701671 -1.460166077e-20)
(101.808353 2.341427925 -3.762895557e-21)
(102.0356551 2.394258503 3.498049611e-21)
(101.8580257 2.257240781 2.228529349e-20)
(101.2970345 1.450988849 -9.289455697e-20)
(101.57242 1.659270622 -5.878234002e-20)
(101.6085283 1.474860704 -3.289520215e-20)
(101.334389 1.327307931 -1.686871924e-20)
(100.9213781 0.922298027 1.141988994e-20)
(101.1230416 1.05367378 3.448221954e-20)
(101.1331695 0.9206445118 -3.849204844e-21)
(100.9397932 0.8279934929 -3.77275213e-21)
(100.5855144 0.3788206238 1.977412144e-21)
(100.8170967 0.4222676449 0)
(100.9174626 0.627634572 -8.021998729e-23)
(100.800269 0.6424487907 -1.026675721e-20)
(100.4159464 0.20856266 4.389679789e-22)
(100.5644174 0.242129224 1.977233872e-21)
(100.3205638 0.09168131706 -1.981078715e-21)
(100.4069667 0.1185631069 -1.983328498e-21)
(100.3333822 0.0355374773 -1.986513021e-21)
(98.29188807 13.52449189 -1.081292409e-19)
(97.44217614 13.97566521 -1.572546611e-19)
(97.8479519 15.2070877 -1.080587749e-19)
(98.81295687 14.46037799 -1.051031078e-19)
(103.0397277 12.69186035 8.240795195e-20)
(102.8371242 13.67716487 -7.267525727e-20)
(103.7974068 14.00356982 8.648240033e-20)
(103.79958 12.87060075 0)
(104.9946443 9.173561515 0)
(105.3104981 9.939820131 9.330635116e-20)
(105.9059839 9.707740947 -1.333404131e-19)
(105.4463954 8.97237575 0)
(104.7259418 6.008399142 1.351784807e-19)
(105.1448419 6.460942621 -2.383953593e-19)
(105.3728752 6.163335012 2.466966625e-19)
(104.9106392 5.765218475 7.397836575e-19)
(103.7276065 3.82137541 -1.309975979e-19)
(104.0731314 4.064033418 1.212173978e-19)
(104.1407866 3.829231057 1.212805628e-19)
(103.789138 3.622793504 2.488967204e-19)
(103.0154233 2.561455081 1.690688577e-19)
(102.7697796 2.42825494 3.234615305e-20)
(103.0331168 2.391696367 3.993839817e-20)
(102.7927244 2.282081357 -2.594743706e-20)
(101.9329205 1.438986837 2.698384213e-20)
(102.2817814 1.594071203 -2.226922575e-22)
(102.2561587 1.336313003 1.633095908e-20)
(101.9227823 1.249440867 1.217168837e-20)
(101.3459764 0.8782840512 -1.597044759e-20)
(101.6018555 0.9691216717 -8.131354029e-21)
(101.5581267 0.792058572 -8.132929364e-21)
(101.3267679 0.7434915103 1.235252162e-20)
(100.7828941 0.2910516662 0)
(101.0398466 0.2689064522 1.306078795e-21)
(101.2179096 0.4906490145 -1.092247767e-20)
(101.1108773 0.5639358828 2.711305008e-20)
(100.5443031 0.1502713503 -4.984915377e-22)
(100.6971273 0.1372537667 -1.54549087e-21)
(100.4109599 0.0624591427 -1.996829382e-21)
(100.4897588 0.05635905459 -2.256903356e-21)
(100.3922842 0.01533596495 2.559940136e-21)
(93.08849214 23.22226241 0)
(94.43773757 22.88573555 0)
(93.51289406 25.00062937 0)
(95.17380314 24.24685482 0)
(107.9442571 20.32917989 0)
(108.0860786 18.61199276 1.5255319e-19)
(109.7040859 18.17306967 1.819427827e-19)
(108.7974434 21.11530119 0)
(110.7939802 19.8461203 -2.527741651e-19)
(110.420184 20.63461067 2.485262063e-19)
(110.3160833 11.82632382 2.021049078e-19)
(109.4752652 10.87748994 1.638495685e-21)
(110.962422 10.9778284 -1.756850508e-19)
(109.9634145 10.23155685 -1.76453067e-19)
(107.6216944 6.205366265 -2.611467893e-20)
(108.3286107 6.620509624 3.196636925e-20)
(108.4481206 6.031487683 -1.487430843e-19)
(107.7203513 5.735740996 -3.33081579e-19)
(105.4869219 3.580512783 0)
(105.9826166 3.761246152 0)
(105.9450258 3.395480059 3.177636604e-19)
(105.4646815 3.277792275 -2.894406047e-19)
(104.1449317 2.184667549 -1.406208412e-19)
(103.8224446 2.112039542 1.106683996e-19)
(104.0859113 1.958014595 1.420652052e-19)
(103.7796633 1.906010847 1.059887035e-19)
(102.5636396 1.162965969 4.272102663e-21)
(102.9742959 1.218526542 -1.882607079e-20)
(102.8408948 0.9173240751 -2.443703033e-21)
(102.4795237 0.9239338187 -4.428401811e-21)
(101.7560171 0.6586114906 4.404198719e-21)
(102.0510915 0.686362203 -2.092195829e-23)
(101.9379484 0.4821969935 -7.198967415e-21)
(101.6810271 0.4932921671 8.896157521e-21)
(100.9366321 0.1201940566 -1.968376858e-22)
(101.1863326 0.02312158804 -2.830551813e-22)
(101.468277 0.2246054892 8.329535002e-22)
(101.382605 0.3267083857 6.531420739e-21)
(100.6314293 0.04304329961 -3.309275177e-21)
(100.7697886 -0.02803462067 -2.447934116e-22)
(100.4623981 0.009846851174 2.478945128e-21)
(100.5210185 -0.03791008189 -2.196113571e-21)
(100.4015573 -0.01505794418 4.063915434e-22)
(124.7601924 23.71555152 -2.69777065e-20)
(122.9136762 22.63617712 8.047295735e-19)
(125.4366294 21.73814275 1.566653668e-18)
(123.6399523 21.07647743 1.564208246e-18)
(117.6937615 10.12624646 1.866753619e-19)
(116.0215006 9.641300475 5.534273901e-19)
(117.6315221 8.540230581 -5.599573323e-19)
(116.0696172 8.425887415 -1.077211367e-18)
(110.922166 4.811548235 -2.224262625e-21)
(111.9170184 4.946298374 1.029193479e-19)
(111.6634385 4.152905408 -3.221052118e-19)
(110.7505051 4.163302376 -6.803239925e-19)
(107.2338685 2.49636229 -1.727619708e-19)
(107.8417817 2.51225796 -1.694376476e-19)
(107.6046419 2.083425442 -1.713576161e-19)
(107.0533202 2.128272739 -5.086924357e-19)
(105.1553845 1.292120464 -6.198000537e-19)
(104.784214 1.313846075 0)
(104.9900063 1.041191956 -2.785600203e-19)
(104.652565 1.083539286 3.257178159e-19)
(103.0739638 0.6049466863 -4.772442819e-21)
(103.5158699 0.5401848036 -7.335908149e-21)
(103.2503636 0.2354695768 7.55796802e-21)
(102.8977003 0.3526308461 1.133496789e-21)
(102.0805903 0.2655477621 -1.979332872e-21)
(102.381987 0.2099171993 1.341112147e-20)
(102.1861979 0.01332606169 4.960313018e-21)
(101.9386654 0.09775194989 9.831721842e-21)
(101.0079655 -0.1211950794 -3.413529194e-22)
(101.2260698 -0.2981127572 -1.045584727e-21)
(101.6040846 -0.151239992 -1.05914508e-21)
(101.5662525 -0.006460773752 -1.162545389e-21)
(100.6502901 -0.106959917 1.065279111e-21)
(100.7562528 -0.2402374927 1.301054117e-21)
(100.4528839 -0.06173575836 -4.223008975e-21)
(100.4783049 -0.1571561487 1.65052818e-21)
(100.3433045 -0.05364915119 -2.085097884e-21)
(138.3147641 6.948073394 -4.405716788e-19)
(136.5971843 7.883270945 1.219286812e-18)
(137.0362455 5.544200861 2.322327653e-18)
(135.6029901 6.496007102 2.262954836e-18)
(122.835564 2.957299344 5.547140014e-19)
(121.1179577 3.600596573 2.201082106e-18)
(121.6665418 1.641811675 1.501698537e-18)
(120.3078251 2.403502532 1.33062905e-18)
(113.3287808 1.535195975 4.688924928e-19)
(114.3469535 1.196705619 3.992012715e-19)
(113.6323493 0.516367481 1.170761258e-19)
(112.7827744 0.9203110099 -4.126636369e-19)
(108.4388408 0.5586467472 7.415821918e-19)
(109.0502464 0.3483955945 -3.887314632e-19)
(108.5954177 -0.01852834758 -3.667195279e-19)
(108.0730713 0.2205560619 -7.04971095e-19)
(105.7686634 -0.04843071816 3.6959968e-19)
(105.4057623 0.08990818464 -2.064764251e-22)
(105.4861099 -0.2628005948 -3.259284744e-19)
(105.1708944 -0.1175589364 3.195868517e-19)
(103.3584593 -0.1793303337 7.533246931e-21)
(103.7804162 -0.3737890524 -7.600551817e-21)
(103.3870231 -0.626260828 -2.374663013e-21)
(103.0809349 -0.4032257247 -1.188303011e-21)
(102.2368535 -0.2686971766 5.491547427e-22)
(102.5105306 -0.4132756562 6.778853382e-21)
(102.2377452 -0.5715449753 5.57299685e-21)
(102.0261783 -0.4144089778 1.248633286e-21)
(100.9675504 -0.4121205714 5.443362727e-22)
(101.129166 -0.6624539516 1.141114137e-23)
(101.5818538 -0.6016477215 3.630276142e-22)
(101.6048291 -0.4276976673 -5.552543068e-21)
(100.5790187 -0.2862090682 2.00495205e-21)
(100.6373441 -0.4790895946 -2.213524416e-21)
(100.3644431 -0.1471891026 3.986937461e-21)
(100.3470794 -0.2907319569 2.251581662e-21)
(100.2044278 -0.09699072684 1.982010646e-21)
(135.1149281 -9.906118658 2.020410858e-18)
(134.5653594 -8.600145476 1.088705717e-18)
(133.6680287 -10.17719885 1.036961815e-18)
(133.212715 -8.947239356 0)
(122.4277636 -5.461544697 7.160219057e-19)
(121.4389747 -4.176873049 -6.884036812e-21)
(120.8331461 -5.919806528 1.452478417e-18)
(120.1158642 -4.778871279 1.326250063e-18)
(113.6828441 -2.633754577 -2.544627971e-19)
(114.4106921 -3.32898174 -5.591713516e-20)
(113.4361671 -3.63376838 -2.565896015e-19)
(112.8642898 -2.985174236 -4.866283375e-19)
(108.6377705 -1.812979123 -4.546634199e-21)
(109.115046 -2.210337574 8.007033814e-20)
(108.5170894 -2.401293081 3.774356908e-19)
(108.1234494 -2.02140137 3.725694832e-19)
(105.7733327 -1.597987247 6.346069506e-19)
(105.4789656 -1.360366491 -3.298930824e-21)
(105.4071728 -1.725945246 1.152149473e-20)
(105.1596101 -1.498619243 3.411498047e-19)
(103.3322774 -1.087353051 2.010489404e-20)
(103.6801207 -1.392499222 -6.815711784e-20)
(103.1935314 -1.544567617 5.7000667e-20)
(102.9681873 -1.243165246 1.135932379e-21)
(102.1748642 -0.8844980314 0)
(102.3915081 -1.105423193 -1.940965792e-20)
(102.0587891 -1.196693127 0)
(101.90697 -0.9818034057 0)
(100.798397 -0.7232193677 -2.745077668e-21)
(100.8855927 -1.029821382 -7.208115984e-21)
(101.3819505 -1.073070364 2.158571314e-21)
(101.4702949 -0.8899880013 -3.54890663e-22)
(100.4048578 -0.4776526265 -1.985289146e-21)
(100.4056879 -0.720202717 -1.589580153e-21)
(100.1864912 -0.2383009145 2.471088462e-22)
(100.1212877 -0.4259258643 -1.352852844e-21)
(99.97962548 -0.140978335 2.342668981e-22)
(125.8131515 -18.94376616 1.73301879e-18)
(125.9224437 -17.91095593 8.72049445e-19)
(124.7324232 -18.61034269 0)
(124.8310007 -17.67651932 0)
(118.2018914 -11.46262801 1.279211201e-18)
(117.9469369 -10.16876428 1.251515186e-18)
(116.7487637 -11.22342011 3.037578654e-20)
(116.6116267 -10.129826 3.302209278e-19)
(112.0404351 -6.251883644 -3.317921472e-19)
(112.3827182 -7.044699752 3.54908583e-21)
(111.41009 -6.961290901 -1.123456889e-19)
(111.1631973 -6.270338566 -1.13169155e-19)
(107.782287 -4.013615161 -4.255880446e-19)
(108.0670699 -4.493268819 4.2750302e-19)
(107.4395015 -4.481942027 -2.112355082e-20)
(107.2179591 -4.051567196 2.799476198e-22)
(105.1565147 -3.054251729 -3.099627896e-19)
(104.9651886 -2.762537724 4.775689377e-21)
(104.7590608 -3.076179875 4.773493509e-21)
(104.6048942 -2.808762498 1.54323052e-19)
(102.9743808 -1.982452915 3.694097031e-20)
(103.2095971 -2.357773496 -2.485109302e-21)
(102.68215 -2.386939927 -1.837434465e-20)
(102.5554921 -2.045019376 1.849747948e-20)
(101.8838186 -1.498680948 -1.315837706e-20)
(102.0244092 -1.77208748 5.663181011e-21)
(101.660158 -1.782262805 -5.326610549e-22)
(101.577988 -1.532933891 -1.365885669e-20)
(100.4987551 -1.020816111 -6.098256741e-21)
(100.5034589 -1.366211542 -1.224399389e-21)
(101.010752 -1.512256485 -1.824079625e-21)
(101.1579124 -1.33980106 -5.24786334e-21)
(100.1264104 -0.6622957674 -1.131290574e-21)
(100.0675803 -0.9397624038 5.051531541e-22)
(99.91747982 -0.3264567712 -1.371597492e-21)
(99.80454525 -0.5504584423 3.965443044e-22)
(99.67169255 -0.1816642588 2.342704924e-22)
(116.1601661 -22.06609141 -1.093638464e-18)
(116.5505896 -21.36616624 -4.941189259e-19)
(115.4175499 -21.47636457 -1.000736555e-18)
(115.8063059 -20.85916835 -4.089284273e-20)
(112.6558976 -14.32440363 2.299252716e-19)
(112.8769514 -13.31571688 -1.293595989e-21)
(111.5715042 -13.67921699 -2.313946691e-19)
(111.8033169 -12.8432186 -2.338354097e-19)
(109.2423309 -8.547457925 -4.59190217e-20)
(109.2730187 -9.24862253 -1.744134461e-19)
(108.4721078 -8.895938391 -1.810786333e-19)
(108.4703716 -8.30332645 -5.247016866e-19)
(106.1953461 -5.615744649 -3.755221769e-19)
(106.2943822 -6.071176592 3.428471123e-21)
(105.7312616 -5.897746133 -7.591952539e-20)
(105.6645842 -5.499983767 -2.253223532e-19)
(104.0729821 -4.180430817 -8.114893946e-20)
(103.9874037 -3.886655561 0)
(103.6925427 -4.109400779 -4.397675396e-20)
(103.6299145 -3.843768157 0)
(102.3279668 -2.746278432 -1.731157222e-20)
(102.4398778 -3.141434268 1.464622414e-20)
(101.894169 -2.709763755 1.739533095e-20)
(101.390394 -2.03957208 -3.408445412e-21)
(101.4477858 -2.335178006 3.44760021e-22)
(101.0715831 -2.005876309 -1.805353915e-20)
(100.0848575 -1.276294428 3.949977544e-21)
(100.694314 -1.734177904 1.652308146e-24)
(99.75366474 -0.8234747239 1.842362831e-21)
(99.56466968 -0.4039681155 1.842153894e-21)
(139.459944 8.515838359 -2.828453187e-18)
(137.7551794 9.452695534 -1.17382204e-18)
(138.7561052 11.18092957 2.884287739e-19)
(140.8398168 9.678591071 -8.091751523e-19)
(140.6225353 10.70757293 -8.092941575e-19)
(123.8493884 25.47905708 -7.784641274e-19)
(125.9461503 26.86938531 -7.699759393e-19)
(126.8627235 24.49223155 -1.596499586e-18)
(136.5800486 -9.503302257 1.743945751e-18)
(136.02898 -8.202286608 8.128068653e-19)
(137.5522627 -7.670295398 -2.683510682e-18)
(137.9294661 -9.591544186 1.228154783e-18)
(138.2854062 -8.877037672 -1.840941309e-19)
(139.8558133 5.892087007 -3.228863137e-19)
(141.2891585 6.851109347 4.844203195e-19)
(141.1806231 7.870450691 -1.076495045e-18)
(126.9359835 -19.24114493 -5.886716269e-21)
(127.0486813 -18.1930449 -8.751145292e-19)
(128.2202378 -18.4340316 -1.502456867e-18)
(127.8925458 -19.71474469 -1.158086162e-18)
(128.3117273 -19.40165258 -6.570840432e-20)
(135.5319909 -11.18980948 5.283552889e-20)
(136.8421079 -11.35203702 2.716953497e-18)
(137.2312923 -10.68735731 1.346134409e-18)
(116.936598 -22.61501625 -1.186636555e-18)
(117.3249204 -21.92874592 -5.792771923e-19)
(118.148075 -22.44622878 -6.22210693e-19)
(117.7321933 -23.21860418 -6.119656899e-19)
(126.746471 -20.3001755 -2.088862753e-19)
(125.6577867 -19.945238 1.765440853e-18)
(116.4969018 -23.34105332 -3.030380125e-20)
(115.7374306 -22.7187685 -1.580913211e-18)
(92.72032539 21.69004204 1.85359944e-19)
(91.37975134 23.53603868 -2.717651526e-19)
(121.9209692 24.39198203 3.719095208e-20)
(120.7840025 25.90292956 7.844720513e-19)
(122.5218812 27.591388 -3.877953646e-20)
(106.569533 20.67389396 7.112383174e-20)
(106.7069321 21.57473529 -3.977677216e-19)
(107.7805247 21.57722137 0)
(148.3072426 28.38402168 0)
(147.2357762 28.81640175 0)
(147.6805136 29.644028 0)
(148.7556137 29.47101695 0)
(128.0327165 42.14658678 5.312043445e-19)
(126.4085058 44.09825466 1.473553705e-18)
(128.5354149 46.12732208 2.825276581e-18)
(130.2556563 43.59000019 1.585023531e-18)
(135.0310059 8.709123714 -3.014169465e-21)
(135.8820558 10.22374606 -3.350762189e-18)
(123.7578773 4.369181955 -1.623147373e-18)
(122.0562941 5.078349574 -4.327859729e-20)
(122.7178079 6.596419309 -8.856112236e-21)
(124.8618903 6.156360496 2.418362589e-19)
(117.522284 11.55927745 8.950323611e-19)
(119.4658781 12.2186483 -5.381127284e-19)
(119.5156287 10.29149807 8.61129016e-20)
(150.1764997 -4.377685398 1.591442152e-18)
(149.9206575 -3.82190448 -1.058048481e-18)
(150.4468564 -3.608881117 0)
(150.7513136 -4.145377624 0)
(152.9755499 9.775926988 -1.777117417e-18)
(152.4318787 9.275169515 -2.340208191e-18)
(153.4717398 9.227322217 -1.463730193e-18)
(152.90999 8.755280039 -1.153825164e-18)
(133.9988808 -7.354215841 1.037651392e-18)
(135.3584262 -6.901058342 3.383665618e-18)
(123.94764 -4.807060245 0)
(122.9966096 -3.499261355 -7.357551171e-19)
(124.4382928 -2.636860006 0)
(125.7502012 -4.043654437 0)
(125.7684009 3.592734741 -1.374235111e-18)
(124.3814812 2.024042395 -7.803439639e-19)
(136.7441806 -21.27563482 1.261543243e-18)
(136.9707768 -20.86174898 -1.905351041e-19)
(137.2322426 -20.98656152 -4.183840365e-19)
(137.0779873 -21.36801467 8.732007203e-19)
(144.1189189 -14.6660014 -3.107263991e-18)
(143.684954 -14.7207437 9.839925433e-21)
(144.1328206 -15.19615326 3.14074235e-18)
(143.6857722 -15.19993788 9.952903272e-19)
(125.9714249 -16.93434627 1.708897432e-18)
(127.103636 -17.12206102 8.713134896e-19)
(119.6888611 -11.54537517 -2.935524779e-21)
(119.4651284 -10.26151002 -5.303699778e-20)
(120.9982189 -10.1855474 -2.207035171e-18)
(121.3654363 -11.6783638 2.501900551e-19)
(125.0014249 -6.303298519 0)
(123.1770927 -6.804098875 8.246565694e-19)
(123.8085915 -27.06788985 7.042593531e-19)
(124.1206024 -26.58719439 -7.006781367e-19)
(124.5712707 -26.88315725 7.05147101e-19)
(124.2166777 -27.38363122 6.817819741e-19)
(130.0607005 -24.99770094 -2.064163357e-20)
(129.5495157 -24.76535567 0)
(129.2585239 -25.33627972 2.137039941e-19)
(129.5963223 -25.67472953 0)
(129.8650058 -25.52602531 0)
(106.4621354 -32.50634163 1.990031039e-19)
(108.0027864 -32.68845542 -3.446478325e-19)
(108.7707378 -32.64655853 -1.74642621e-20)
(107.9186698 -32.680892 -9.661985853e-20)
(112.182843 -27.60651006 0)
(112.6705916 -27.30553613 -1.269257343e-20)
(112.8789193 -27.72287507 8.256751454e-19)
(112.4766657 -28.02992709 3.786333443e-19)
(117.8885029 -27.91419017 -1.03157966e-18)
(117.504978 -27.5520057 -8.164893584e-21)
(117.5078352 -28.31092851 -5.103664928e-19)
(117.1630455 -27.93938264 -5.196988955e-19)
(152.4539086 10.29341864 2.344177258e-18)
(153.001433 10.81783414 2.911182619e-18)
(153.5397452 10.27714783 5.939026961e-19)
(148.182176 27.21150005 -9.094708822e-19)
(149.4718546 28.08054628 0)
(149.1281231 27.11077911 0)
(134.4678705 18.9126903 2.627879984e-21)
(134.1533961 16.81178822 -3.93044712e-20)
(136.2835933 16.44887036 -1.118638242e-18)
(137.3023009 18.25457091 7.360851143e-19)
(136.6433353 19.18094931 -7.467645573e-19)
(146.3701762 27.2826457 -1.358836111e-18)
(148.6105166 26.33747793 -9.087288942e-19)
(147.6371968 24.94783371 -2.74215719e-18)
(145.8580303 25.43415584 -1.324527062e-18)
(151.906524 9.790260697 1.740568783e-18)
(151.3427174 10.28746672 1.728872289e-18)
(151.904968 10.79940568 5.937178272e-19)
(144.1058739 -14.18499856 -3.094818454e-18)
(144.5424919 -14.11570485 -3.103635223e-18)
(144.569163 -14.64622237 -2.05232141e-18)
(149.6413873 -4.574542752 1.573025638e-18)
(150.4584502 -4.912146835 2.147817743e-18)
(149.8846508 -5.135328537 5.370117133e-19)
(138.8384387 -1.407471196 1.092433248e-18)
(138.1579498 -1.972535093 -7.603042827e-19)
(139.4935748 -2.077899337 -2.292797233e-18)
(138.7466362 -2.496807558 0)
(149.393825 -4.034678795 -1.045978169e-18)
(149.1114685 -4.773544388 5.13889709e-19)
(148.9123925 -4.25628375 7.717596681e-21)
(143.6747887 -14.22972638 0)
(143.679237 -13.7458414 9.778806976e-19)
(144.0878543 -13.69020863 0)
(151.9025065 8.797304765 0)
(151.3573902 9.269050808 -1.14885289e-18)
(149.1737541 -3.517376609 -1.02466912e-18)
(149.6573971 -3.282007517 1.707231386e-20)
(138.3874916 -0.6161793657 1.99698754e-18)
(139.1124679 -0.3064837186 1.091668394e-18)
(139.7007805 -0.9107795889 2.238775581e-18)
(130.3464668 -24.41646697 -1.884496966e-20)
(130.8673275 -24.63539869 8.76109467e-19)
(130.4050522 -25.33666423 -9.668761439e-19)
(130.6753524 -25.17857612 9.531589567e-19)
(136.3661888 -21.20311125 2.066429058e-18)
(136.6118138 -21.65130664 -3.613995985e-20)
(136.3164862 -21.55925577 2.501619241e-18)
(132.0086322 -15.39099278 2.581666473e-18)
(130.6970251 -15.36053379 2.193128179e-18)
(130.7589054 -16.52009711 7.724434487e-21)
(131.8236253 -16.91993372 8.315902544e-19)
(132.2739597 -16.45827256 -4.097768173e-19)
(136.4836362 -20.53676605 2.704577151e-19)
(136.0626218 -21.43819459 9.220203283e-19)
(135.6032278 -21.1149485 -5.200735154e-19)
(135.7947832 -20.40139941 7.611674158e-19)
(129.8378122 -24.1807916 2.585113813e-21)
(130.0560662 -23.58549439 2.583794154e-21)
(130.6315307 -23.82216153 -1.779007427e-18)
(143.260303 -14.75456871 0)
(143.2712434 -14.27807418 -1.935595075e-18)
(137.2720286 -20.61182901 3.590363002e-19)
(136.6653563 -19.80617741 -4.925288471e-19)
(137.4640642 -20.09000634 -7.701201141e-19)
(137.2855766 -19.744247 -7.657254522e-19)
(131.8735727 -14.19082841 1.334067363e-18)
(133.2317541 -14.13089244 2.706962319e-18)
(133.1337086 -15.74566141 9.447015891e-19)
(133.5787399 -15.23334494 8.888833148e-19)
(118.2238967 -27.51664213 0)
(118.6166703 -27.87077459 0)
(118.2402564 -28.27797962 0)
(123.3656775 -26.76614049 -6.629250638e-19)
(123.4517743 -27.55779102 -5.377306347e-19)
(123.0500257 -27.23384949 0)
(105.2464107 -32.3931701 3.656682639e-19)
(106.7054399 -32.56634194 -1.757308225e-19)
(103.2667912 -32.07152306 -2.661295212e-19)
(104.5788523 -32.25265493 2.884087671e-19)
(102.6096574 -31.78413663 2.835361173e-18)
(111.7769102 -27.88446503 -3.789115041e-19)
(108.6520785 -32.61259344 -5.725342208e-21)
(153.4842689 51.65220903 0)
(152.2896527 53.57222575 0)
(151.8854079 54.61259148 0)
(152.8875754 55.81152118 0)
(126.9610231 64.81249633 7.257513548e-19)
(124.4475392 66.723203 -9.245118656e-19)
(126.7322435 70.09083637 -3.711001658e-20)
(129.5226118 67.2303316 2.687521796e-18)
(122.4133492 -28.52366574 -2.914809735e-18)
(123.9657232 -28.60902968 -3.99638814e-18)
(122.4778849 -28.39432854 -2.669691707e-18)
(115.4938675 -27.05838236 -1.931100631e-18)
(116.9101213 -20.71738293 2.38348908e-20)
(117.6869689 -21.19316639 3.902507257e-20)
(113.8234043 -14.86647943 -8.471098552e-20)
(114.0651896 -13.88686797 -3.135882811e-19)
(115.3270893 -14.33759521 -5.350916557e-19)
(115.0927847 -15.53243778 2.621099711e-20)
(119.8724074 -12.98308903 1.382852484e-18)
(118.2831555 -12.68701603 8.644636777e-20)
(103.9420646 -31.2219756 -1.735124078e-18)
(106.3195382 -31.69151351 7.974209166e-19)
(103.786044 -31.08185978 2.630712259e-18)
(96.1625262 -29.08631276 -7.581658739e-18)
(114.357907 -30.99204195 -2.426370303e-19)
(114.8663382 -30.60063587 7.227800869e-19)
(115.1100657 -31.02583007 2.396610981e-19)
(114.4213027 -31.34230419 -9.044497485e-19)
(114.6634782 -31.40538037 1.543208468e-19)
(117.450175 -30.84368878 4.661612691e-19)
(117.2662082 -30.65434686 8.838618893e-19)
(117.1870434 -31.01348202 3.03458392e-22)
(117.1029215 -30.85797791 1.343082317e-18)
(126.1301299 40.40062051 -5.513067158e-19)
(129.4209736 39.93520637 4.753593631e-19)
(127.5080672 38.72215791 -4.591874279e-19)
(146.6759561 29.67227662 0)
(144.4758172 27.63288524 1.271562501e-18)
(144.8455977 29.58561949 -1.852391659e-20)
(132.2522106 19.00732181 1.12243456e-18)
(132.2824558 21.12876661 1.123626743e-18)
(135.2392053 20.90171801 2.123920918e-18)
(134.3980313 21.70084702 -6.309932574e-19)
(117.7735475 -30.58801867 3.897669009e-19)
(117.856315 -30.82760752 5.995037994e-21)
(117.5582283 -31.00201102 9.494818373e-21)
(120.3937679 -30.54290071 0)
(120.3180195 -30.3802407 0)
(120.0025823 -30.74041122 0)
(120.0475707 -30.59564074 0)