/*--------------------------------*- C++ -*----------------------------------*\
| =========                 |                                                 |
| \\      /  F ield         | OpenFOAM: The Open Source CFD Toolbox           |
|  \\    /   O peration     | Version:  v2012                                 |
|   \\  /    A nd           | Website:  www.openfoam.com                      |
|    \\/     M anipulation  |                                                 |
\*---------------------------------------------------------------------------*/
FoamFile
{
    version     2.0;
    format      ascii;
    class       surfaceScalarField;
    location    "1.27";
    object      meshPhi;
}
// * * * * * * * * * * * * * * * * * * * * * * * * * * * * * * * * * * * * * //

dimensions      [0 3 -1 0 0 0 0];
oriented        oriented;


internalField   nonuniform List<scalar> 
5999
(
0
0
0
0
0
0
0
0
0
0
0
0
0
0
0
0
0
0
0
0
0
0
0
0
0
0
0
0
0
0
0
0
0
0
0
0
0
0
0
0
0
0
0
0
0
0
0
0
0
0
0
0
0
0
0
0
0
0
0
0
0
0
0
0
0
0
0
0
0
0
0
4.46121254e-09
-5.227224169e-08
0
0
0
0
0
0
0
0
0
0
0
0
0
0
0
0
0
0
0
0
0
0
0
0
0
0
0
0
0
-2.1056991e-08
7.660561354e-07
1.913802386e-06
-4.889757242e-06
-7.432160004e-06
4.44502372e-05
1.725742936e-05
-6.30261114e-05
-9.814670638e-06
0.0001162363518
1.724603942e-05
-0.0001295420216
0
0
0
0
0
0
0
0
0
0
0
0
0
0
0
0
0
0
0
0
0
0
0
0
0
-1.018429726e-06
1.44422022e-06
5.175301125e-06
-1.055388834e-05
-3.653087533e-05
9.590129385e-05
5.694322593e-05
-0.0001379779887
-6.805554934e-05
0.0002765500279
9.031387161e-05
-0.0003203627446
-4.920369986e-05
0.0004241064902
6.191847386e-05
-0.000446446652
0
0
0
0
0
0
0
0
0
0
0
0
0
0
0
0
0
0
0
0
0
0
0
3.360470292e-07
-4.650552047e-07
-4.190355793e-05
5.984507489e-05
5.996113075e-05
-0.0001045882801
-0.00013553301
0.000285760654
0.0001645954748
-0.0003524292777
-0.0001624241474
0.0005374700996
0.0001853313004
-0.000588120202
-9.969231416e-05
0.0006948438896
0.0001104804224
-0.0007151521359
0
0
0
0
0
0
0
0
0
0
0
0
0
0
0
0
0
0
0
0
0
-1.038233139e-05
5.837506792e-06
1.690665043e-05
-2.567276413e-05
-0.0001312177497
0.0001610178731
0.0001546445871
-0.0002251166176
-0.0002461562972
0.0004419686247
0.000273626148
-0.0005121145326
-0.000239773484
0.0006703971617
0.0002519185062
-0.0007062302316
-0.0001313341748
0.0007644388704
0.0001336337933
-0.0007716551645
0
0
0
0
0
0
0
0
0
0
0
0
0
0
0
0
0
0
2.952088446e-07
-3.487158767e-09
-1.25749052e-07
-3.874091926e-05
2.468984116e-05
4.6852518e-05
-5.618237227e-05
-0.0002147895199
0.0002117132649
0.0002286502576
-0.000276551868
-0.000334049286
0.0004745229135
0.000346336872
-0.0005306569475
-0.0002694938451
0.000646622663
0.0002746261555
-0.0006663747115
-0.0001275064798
0.0006819224826
4.776115145e-05
6.82704846e-05
-0.0003360745396
-0.0003343730993
0
0
0
0
0
0
0
0
0
0
0
0
0
0
0
0
-1.240570127e-06
0
2.669825086e-06
-1.001777006e-06
-1.435086024e-06
-6.373335916e-05
3.282182487e-05
6.578527353e-05
-6.437409418e-05
-0.00026402379
0.0002052598538
0.0002684896419
-0.0002612453825
-0.0003696115838
0.0004221456479
0.0003729809314
-0.0004661215217
-0.0002754959512
0.0005445334848
0.0002753816031
-0.000549183144
-7.263513596e-05
0.0002821170842
7.228374245e-05
-0.0002817656907
0
0
0
0
0
0
0
0
0
0
0
0
0
0
0
0
-3.479220895e-06
0
4.396952323e-06
-2.101997933e-06
-2.192099194e-06
-7.626033869e-05
3.166424693e-05
7.847457467e-05
-5.847085826e-05
-0.0002837623324
0.000172593346
0.0002868404578
-0.0002163604194
-0.0003802013251
0.0003389692585
0.000381575141
-0.0003711926325
-0.0002746256187
0.0004238710498
0.0002744153268
-0.0004253009001
-7.373053637e-05
0.0002164464337
7.37189864e-05
-0.0002164348837
0
0
0
0
0
0
0
0
0
0
0
0
0
0
0
0
-5.284421735e-06
0
6.503070463e-06
-2.252903238e-06
-2.258764595e-06
-8.398257389e-05
2.545245337e-05
8.620503618e-05
-4.557892572e-05
-0.0002943314187
0.0001292627631
0.0002972920134
-0.0001608453131
-0.00038481644
0.0002478066826
0.0003860620906
-0.0002701236888
-0.0002738550107
0.0003046737861
0.0002736467876
-0.0003050853907
-7.361341659e-05
0.0001560675317
7.354380621e-05
-7.889528713e-05
-7.710263421e-05
0
0
0
0
0
0
0
0
0
0
0
0
0
0
0
0
-7.833160278e-06
0
9.358687744e-06
-2.025218783e-06
-1.85839671e-06
-9.314529249e-05
1.760162109e-05
9.55849452e-05
-3.056471199e-05
-0.0003063052617
8.311311234e-05
0.0003093953585
-0.0001025426787
-0.0003897441416
0.0001547868625
0.0003909732679
-0.0001677188953
-0.0002731646484
0.0001861427933
0.0002730349597
-0.000186120984
-7.340646896e-05
9.66485356e-05
7.336836456e-05
-4.923033309e-05
-4.738009812e-05
0
0
0
0
0
0
0
0
0
-1.11957264e-05
0
-1.048232172e-06
-5.789594815e-07
-0.000103538556
7.436464274e-06
0.0001066420298
-1.260800689e-05
-0.0003192069399
3.297768034e-05
0.0003229273092
-4.022855123e-05
-0.0003947534092
5.846350395e-05
0.0003961246305
-6.252980507e-05
-0.0002727873724
6.697405801e-05
0.0002727559243
-6.693094638e-05
-7.314614276e-05
3.71141131e-05
7.311528192e-05
-1.946437298e-05
-1.761887929e-05
0.0002242720493
-0.0002242728772
-7.372970852e-05
0.0001635118799
-7.367232723e-05
-8.270130448e-05
-8.075166483e-05
0.0001040821152
-7.344718149e-05
-5.296364644e-05
-5.107775623e-05
4.454295255e-05
-7.318522357e-05
-2.318273913e-05
-2.13211326e-05
0.0002897358166
-0.0002897039931
-7.266695952e-05
0.0003342301802
-0.0003348805543
-0.0002740398685
8.196365012e-05
-8.199026574e-05
0.0001635384956
-8.208361875e-05
0.0002164366861
8.209336631e-05
0.0002158795214
-0.0002159231685
-0.0002733124862
8.177199451e-05
-8.17991361e-05
0.0001041092568
0.0001560972438
8.193393805e-05
7.34951004e-05
0.000133919796
-7.352700464e-05
-6.786486613e-05
-6.602302566e-05
2.334402776e-05
-3.280666094e-05
-2.327276739e-05
6.60366116e-05
-3.330121103e-05
-2.330515666e-05
-3.960511077e-05
7.884013853e-05
2.326072975e-05
-3.919060084e-05
9.679001704e-05
-9.672149421e-05
-0.0002728414869
8.154659308e-05
-8.157647445e-05
4.457283391e-05
9.667518623e-05
8.174534388e-05
7.330341055e-05
7.43209848e-05
-7.331927797e-05
-3.808793603e-05
-3.621718135e-05
1.142099057e-05
-1.77935264e-05
-1.145614386e-05
1.782867968e-05
-2.312089473e-05
-2.480166768e-05
4.919730763e-05
2.310849993e-05
-2.438324516e-05
3.714024545e-05
8.152046073e-05
3.756402102e-05
6.471219132e-06
-6.464037866e-06
-3.757120229e-05
1.200022255e-05
-3.186491518e-06
-1.190360345e-05
3.089872419e-06
-1.176165248e-05
-9.783880969e-06
9.860817567e-06
1.168471589e-05
-2.124122108e-05
0.0001247284497
2.115623149e-05
-6.248883898e-05
-6.215462115e-05
2.141961365e-05
0.0001111178524
-2.136115925e-05
-5.592663433e-05
-5.52496725e-05
0.0001430946308
-1.854575595e-05
1.832127687e-05
-0.0001428701517
0.000126964404
-0.0001270670858
-2.113853935e-05
-4.004296835e-05
-2.335463243e-05
8.069513205e-05
-4.060268793e-05
-9.385831667e-05
-2.328378935e-05
9.387270979e-05
2.326939623e-05
-7.369572504e-05
0.0001860518683
7.367174637e-05
-0.0001860278897
-2.119791716e-05
2.111548272e-05
-4.711936417e-05
-4.665651807e-05
1.094178931e-05
-4.003770348e-05
-1.094705419e-05
0.000109081377
2.136592572e-05
-5.476413792e-05
-5.426355118e-05
9.580852419e-05
-2.120457258e-05
-4.815770579e-05
-4.764416298e-05
-2.525863902e-05
-2.317567044e-05
5.101734869e-05
-2.570393395e-05
-3.239304791e-05
6.420577132e-05
2.339402166e-05
-3.186271732e-05
0.000126513518
7.35038213e-05
-6.420589042e-05
-6.231634848e-05
-1.108729705e-05
1.110880946e-05
-3.241456032e-05
1.073153485e-05
-2.52242788e-05
-1.076589507e-05
1.091916632e-05
-3.958248777e-05
-3.289735274e-05
-1.099660525e-05
-1.027019486e-05
-1.182466055e-05
1.033320292e-05
-1.732487569e-05
1.736059324e-05
1.138527302e-05
6.683328983e-05
7.325149804e-05
-3.433253259e-05
-3.244884472e-05
-1.100937766e-05
1.093844226e-05
-1.725394028e-05
1.150348274e-05
-1.016509669e-05
-1.16085809e-05
1.07171928e-05
-2.478732563e-05
-1.772922058e-05
-1.107368348e-05
-2.466789792e-06
2.497457591e-06
1.196955476e-05
-4.601248138e-06
-1.1682828e-05
1.159734781e-05
-2.381309599e-06
1.138520459e-05
-9.665602823e-06
-3.271580397e-06
-1.159773912e-05
0.0004539241302
-0.0004557751596
-0.0002748320224
-8.207444283e-05
0.0002242628734
-8.109979066e-05
0.0002816822297
8.153464524e-05
7.347303983e-05
0.0002559439513
-0.0002559398287
-7.347716246e-05
2.326314302e-05
-2.323998784e-05
0.0001269412489
-2.242172476e-05
0.0001434508053
2.206555024e-05
0.0001936135821
-0.0001936136846
-7.369562255e-05
-2.329722901e-05
9.582196385e-05
-2.336101813e-05
0.0001090806926
2.33617026e-05
-2.334496825e-05
0.0001111018026
0.0001247326474
2.325894533e-05
0.0002468991869
7.362616579e-05
-0.0002470523128
-5.892006765e-06
5.826677773e-05
5.996595556e-06
-5.837136652e-05
7.421698027e-05
-3.81554263e-06
4.832999857e-06
-7.52344375e-05
6.820167138e-05
5.834040678e-06
-6.823148946e-05
-5.804222595e-06
0.0003246722928
-3.221945494e-05
1.087627109e-05
1.691820433e-05
-0.0001599202198
-0.0001603270935
0.0001438344081
-0.0001467130009
-1.566716314e-05
-6.094642038e-06
-1.112457321e-05
6.162792562e-06
1.105642269e-05
-2.920562692e-05
1.200863795e-05
2.919177108e-05
-1.199478212e-05
2.917348259e-05
6.439865318e-06
-6.432539557e-06
-2.918080835e-05
6.507446005e-05
-5.34104258e-06
2.343118506e-05
-8.316460253e-05
5.845855394e-05
-5.943623942e-06
-5.840693676e-05
2.117411246e-05
0.0001189223644
-2.1233718e-05
-5.958145005e-05
-5.928130886e-05
7.091196769e-06
-7.279487374e-06
5.864684454e-05
-7.107160958e-06
6.412065919e-05
8.060961818e-06
7.508123215e-06
-1.134629664e-05
5.56292443e-05
-5.179107088e-05
5.842281692e-05
6.935157574e-06
0.0001171397953
2.129203313e-05
-5.893008357e-05
-5.832763241e-05
2.079998906e-05
0.0001371575085
-0.0001372780497
-2.067944778e-05
6.951569514e-06
-7.019622771e-06
6.826972464e-05
-2.848449852e-06
7.198796638e-05
5.077463742e-06
-6.448256997e-05
-6.76093012e-06
6.413633913e-05
-6.772941655e-05
6.767289525e-05
7.008090811e-06
0.0001341451262
2.090870929e-05
-0.0001342538464
6.282320138e-06
-6.817769601e-05
-6.429345451e-05
-5.530158047e-06
1.097722094e-05
4.390721149e-05
-4.39477608e-05
-1.093667164e-05
-6.488792798e-06
4.683932537e-05
6.479668188e-06
-4.683020076e-05
4.346993849e-05
1.098633164e-05
-4.347904919e-05
2.132054542e-05
0.0001034775306
-2.130065584e-05
-5.198358448e-05
-5.151383567e-05
6.593252501e-06
-6.58412739e-06
5.118520637e-05
-5.119433148e-05
5.451538357e-05
6.810382364e-06
-5.381764271e-05
-6.512312031e-06
4.733907911e-05
-4.731555988e-05
5.067933152e-05
6.578366255e-06
-5.066444527e-05
0.0001014762166
2.12853798e-05
-5.099733489e-05
-5.04437161e-05
1.097928498e-05
2.897755291e-05
-2.895846604e-05
-1.099837184e-05
2.855576427e-05
1.094034683e-05
-2.851682613e-05
1.082182311e-05
3.646082507e-05
-3.644168234e-05
-1.084096585e-05
3.600002989e-05
1.081277975e-05
-3.599098653e-05
1.059253287e-05
1.418919007e-05
-1.42093328e-05
-1.057239014e-05
1.383336409e-05
1.072397207e-05
-1.396480329e-05
1.139968241e-05
2.166214848e-05
-2.175137313e-05
-1.131045776e-05
2.113781854e-05
1.141508597e-05
-2.115322209e-05
4.572519255e-06
-4.559690726e-06
1.054384445e-05
6.543699281e-06
-6.426139507e-06
-1.066140422e-05
1.043439506e-05
-5.985192656e-06
-3.85551006e-06
0.0001566513298
4.980598919e-06
7.587760492e-05
-7.594226558e-05
-3.750881968e-06
-1.162953779e-05
2.112842711e-05
1.163892922e-05
-2.937763364e-05
4.179437768e-05
2.936730696e-05
-4.178405099e-05
2.933979129e-05
3.620141919e-05
-3.619218807e-05
-2.934902241e-05
-2.940360153e-05
4.921831317e-05
2.939724439e-05
-4.921195603e-05
4.36569209e-05
-4.365020322e-05
-2.938435133e-05
-1.157619745e-05
2.160880814e-05
-2.92725384e-05
1.944458714e-05
2.925603044e-05
-1.942807918e-05
1.387617483e-05
-1.385887256e-05
-2.922292919e-05
-1.119956196e-05
6.618688028e-06
-2.327745333e-05
-2.808748276e-05
5.667445661e-05
2.324624374e-05
-2.943580537e-05
5.670723586e-05
2.942981889e-05
-5.670124939e-05
5.105821105e-05
-5.104720431e-05
-2.941460827e-05
8.947887128e-06
-2.496514262e-05
-9.051516382e-06
2.506877188e-05
-2.638287574e-05
-9.366900569e-06
2.649050805e-05
9.259268263e-06
-1.08550576e-05
2.667203274e-05
1.082131316e-05
-2.663828831e-05
-1.121368491e-05
1.374914256e-05
1.129790644e-05
-2.930142503e-05
2.690855066e-05
2.929065026e-05
-2.689777588e-05
2.129721905e-05
-2.128493016e-05
-2.928482729e-05
3.431601706e-05
2.933037905e-05
-3.430660481e-05
2.876046582e-05
-2.875345029e-05
-2.930844056e-05
-1.118755297e-05
1.416305813e-05
1.073773486e-05
1.587928722e-05
-1.58124135e-05
-1.080460858e-05
9.126214941e-06
-1.549236678e-05
-9.221878302e-06
1.558803014e-05
-9.459220362e-06
-1.697201337e-05
1.704964656e-05
9.381587171e-06
8.461545744e-06
-8.498373897e-06
9.913795391e-06
-9.876967237e-06
-1.046577543e-05
1.215629011e-05
8.960878311e-06
-1.0651393e-05
-1.158185574e-05
1.19476797e-05
1.169545343e-05
-1.206127738e-05
1.080231425e-05
2.353147394e-05
-2.360590374e-05
-1.072788445e-05
8.609625794e-06
-2.387495474e-05
-8.608089287e-06
2.387341824e-05
-2.453828436e-05
2.465523009e-05
8.830941399e-06
-1.743998932e-05
-9.540868962e-06
1.752163792e-05
-1.883358803e-05
-9.787504369e-06
1.891873091e-05
9.702361493e-06
-1.127264888e-05
1.91959802e-05
1.120547914e-05
-1.912881046e-05
1.10227138e-05
8.390753944e-06
-8.270479418e-06
-1.114298833e-05
8.345294862e-06
-8.369301363e-06
8.028305479e-06
-8.004298981e-06
9.413704501e-06
8.419089174e-06
-9.371247932e-06
-7.353318352e-06
5.521903836e-06
5.327418001e-06
-3.496003485e-06
-1.04054924e-05
4.842283247e-06
1.07596994e-05
-5.196490253e-06
4.458030953e-06
5.713617508e-05
-5.664032149e-06
-5.593017388e-05
5.813851317e-05
-1.851335705e-06
-5.182914652e-05
6.005288207e-06
7.208280389e-05
-7.227766363e-05
-5.810428463e-06
7.181483233e-05
5.680231597e-06
-7.148977572e-05
6.305880319e-06
6.043846809e-05
-7.152912448e-06
-5.959143596e-05
5.974943208e-05
6.189336225e-06
-5.963288798e-05
-7.99788908e-06
6.004509342e-05
7.702227738e-06
-9.292077451e-06
6.06329796e-05
9.172578955e-06
-6.05134811e-05
8.783812238e-06
5.920322406e-05
-5.907173122e-05
-8.915305082e-06
-8.703821878e-06
6.266865492e-05
9.079150643e-06
-6.304398369e-05
6.124684395e-05
-6.119207825e-05
-9.34684315e-06
-8.375157892e-06
6.08157369e-05
-6.10826329e-06
5.821531813e-05
6.031458332e-06
-8.735017404e-06
5.710928065e-05
9.004993816e-06
-5.737925706e-05
9.746676161e-06
5.539356999e-05
-5.552320312e-05
-9.61704303e-06
5.888310437e-05
8.695844684e-06
-5.879513681e-05
5.731127291e-05
-5.742633579e-05
-8.619954531e-06
-6.453760096e-06
5.748167188e-05
-6.428589954e-05
-7.890462025e-06
6.47830362e-05
7.393325374e-06
-8.828101736e-06
6.512627296e-05
8.820349388e-06
-6.511852061e-05
6.334214032e-05
-6.338732399e-05
-8.658638206e-06
7.652425359e-06
6.516114829e-05
-6.469412423e-05
-8.119449421e-06
6.853516982e-06
-6.348699117e-05
-6.163267994e-06
4.571043141e-05
5.255028424e-06
-4.480219184e-05
-8.300703304e-06
4.577373023e-05
8.447269309e-06
-4.592029623e-05
9.780305718e-06
4.447084064e-05
-4.486546069e-05
-9.385685676e-06
-8.477065135e-06
4.706578555e-05
8.393767899e-06
-4.698248832e-05
4.595968456e-05
-4.597515811e-05
-8.285229757e-06
-6.323953208e-06
4.568012372e-05
-4.55194385e-05
-9.73264902e-06
4.143332577e-05
9.654303677e-06
-4.135498043e-05
9.403187884e-06
3.987602505e-05
-3.97958283e-05
-9.483384624e-06
4.377007956e-05
9.917565498e-06
-4.390733934e-05
4.193177504e-05
-4.184544375e-05
-9.818980313e-06
-6.651096564e-06
5.244529434e-05
6.638544222e-06
-5.2432742e-05
-9.463710327e-06
5.272809012e-05
9.372239179e-06
-5.263661897e-05
9.098210973e-06
5.144652572e-05
-5.136150627e-05
-9.18323042e-06
5.474607305e-05
9.743455453e-06
-5.474285234e-05
5.328633058e-05
-5.318502446e-05
-9.56501645e-06
-6.680014779e-06
5.294280793e-05
-5.291388972e-05
-6.48807275e-06
4.878408188e-05
6.48369033e-06
-4.877969946e-05
-8.771670296e-06
4.902483044e-05
8.690782389e-06
-4.894394253e-05
4.756041622e-05
-4.749343635e-05
-8.544045004e-06
5.091547713e-05
9.006056649e-06
-5.082332281e-05
4.937172093e-05
-4.929952705e-05
-8.843864175e-06
-6.544657768e-06
4.913145603e-05
-4.907487101e-05
-9.41097254e-06
3.010735787e-05
9.331444253e-06
-3.002782958e-05
9.094470642e-06
2.869292394e-05
-2.861521343e-05
-9.172181148e-06
-9.80138895e-06
3.274672056e-05
9.807466395e-06
-3.2752798e-05
3.06267773e-05
-3.052786649e-05
-9.50988335e-06
-8.783725024e-06
8.711322606e-06
-2.631047332e-05
8.465559358e-06
-2.487724929e-05
-8.553452691e-06
2.824875405e-05
9.011667455e-06
-2.816595086e-05
2.686700241e-05
-2.679463311e-05
-8.856094323e-06
-9.002181923e-06
3.765237374e-05
8.889672366e-06
-3.753986418e-05
8.578311564e-06
3.625803692e-05
-3.615124722e-05
-8.685101269e-06
3.940558353e-05
9.308633764e-06
-3.931102941e-05
3.811144996e-05
-3.800636814e-05
-9.107263739e-06
-8.128407459e-06
3.459305217e-05
8.131213046e-06
-3.459585775e-05
3.371821921e-05
-3.41803171e-05
-9.339291058e-06
3.580662823e-05
8.470315418e-06
-3.569863208e-05
3.469570042e-05
-3.458828919e-05
-8.235818686e-06
-1.383570848e-05
8.524619366e-06
-8.760915933e-06
1.407200504e-05
-1.504522651e-05
1.514664693e-05
9.024794521e-06
1.544632604e-05
1.066712481e-05
-1.537571599e-05
-7.85161229e-06
7.830528904e-06
-1.502414313e-05
7.553077235e-06
-7.726176892e-06
-1.366260882e-05
-7.936212402e-06
7.921827693e-06
-1.695762867e-05
-7.896342279e-06
-1.544763679e-05
1.376795174e-05
6.853675068e-06
-1.306854957e-05
1.253682544e-05
-1.280009095e-05
-1.131859023e-05
-1.431824843e-05
1.362834422e-05
-9.775871222e-06
1.407167135e-05
8.220899754e-06
-2.200891981e-05
1.027420812e-05
-1.026711877e-05
2.200183046e-05
-2.434796716e-05
2.391958462e-05
9.038008337e-06
2.312604616e-05
1.093560619e-05
-2.325933809e-05
-7.708923431e-06
7.664905631e-06
-2.430394936e-05
8.597116731e-06
-1.061049648e-05
-1.999554006e-05
8.364892344e-06
-2.443761734e-05
-2.357918464e-05
-8.004693536e-06
-8.009485997e-06
7.989740045e-06
-1.881384208e-05
-7.953780638e-06
-1.742242109e-05
2.095825872e-05
8.163251455e-06
-2.052439344e-05
1.930168529e-05
-8.03251951e-06
-1.927865178e-05
1.966163894e-05
-1.959772979e-05
-1.133655803e-05
-9.87817185e-06
1.939235277e-05
2.111158268e-05
1.012088416e-05
8.243899368e-06
-8.270196414e-06
6.184674975e-06
-6.158377925e-06
7.567739068e-06
8.321375972e-06
-7.543820176e-06
7.926149756e-06
1.090124337e-05
-7.804679326e-06
5.062003739e-06
-5.159279529e-06
-1.03082166e-05
-7.975586955e-06
4.801913511e-06
-4.179644908e-06
5.728270842e-06
8.212326349e-06
-5.696697825e-06
-2.323059093e-05
-3.553764932e-05
7.154881129e-05
2.321945885e-05
-2.947815152e-05
7.156619983e-05
2.94723418e-05
-7.156039011e-05
2.9462453e-05
6.60153384e-05
-6.601204276e-05
-2.946574864e-05
7.886986863e-05
-2.950325182e-05
2.94999609e-05
-7.886657771e-05
7.342576102e-05
-7.341573809e-05
-2.948817445e-05
-3.692630235e-05
-2.324547343e-05
7.340200993e-05
6.419795667e-05
2.945915844e-05
-6.419466211e-05
5.852525144e-05
-5.851656974e-05
-2.944448707e-05
-2.945532075e-05
-2.332883062e-05
5.848425096e-05
1.111158662e-05
3.08547783e-05
-3.085770757e-05
-1.110865735e-05
1.020675006e-05
-1.031319089e-05
3.073321813e-05
-1.033724574e-05
3.262715526e-05
1.045681104e-05
-9.952337469e-06
3.333331093e-05
-8.885271175e-06
3.445517371e-05
9.023149634e-06
-1.081094445e-05
3.41851919e-05
1.085467526e-05
-3.422892271e-05
5.772886581e-05
5.985059909e-06
-5.771733016e-05
1.144935831e-05
6.364697854e-05
-5.166515179e-05
3.364310075e-06
-8.652891261e-05
5.866594334e-05
-6.097518583e-06
-5.85120487e-05
5.888087542e-05
-7.494419458e-06
7.920466787e-06
-8.169643354e-06
5.913005199e-05
7.688431653e-06
5.887887968e-05
5.727172059e-05
-2.247073977e-05
-4.614727746e-05
8.818700806e-06
-8.352405196e-06
5.680542498e-05
8.803799115e-06
5.564414599e-05
7.485739881e-06
5.86255087e-05
-5.790426442e-05
7.30228905e-06
5.808771525e-05
6.759758959e-06
-8.684565494e-06
6.752499181e-05
8.810823753e-06
-6.765125007e-05
6.584800427e-05
-6.582917334e-05
-8.84693267e-06
-8.186293229e-06
6.545697949e-05
-6.898313133e-05
7.585897827e-06
6.767955364e-05
-4.686012352e-06
2.383536006e-05
-8.813247903e-05
-6.759204715e-05
-5.271661216e-06
-3.706905124e-06
-5.722223931e-05
6.305138398e-05
-5.183706788e-06
-6.157458232e-05
-6.191429094e-06
6.371265503e-05
5.982038557e-05
1.258980446e-08
-5.983297537e-05
2.014664104e-05
-6.676054345e-06
4.634979888e-05
1.100290104e-05
4.532403908e-05
-3.618029908e-05
7.371372319e-06
-7.439228256e-06
4.690718131e-05
-4.634519375e-05
7.291841984e-06
4.642472408e-05
6.44003835e-06
-4.630556391e-05
7.119547118e-06
-7.124598731e-06
4.028702913e-05
-4.028197752e-05
7.127321573e-06
3.974800493e-05
-3.975577938e-05
7.82587103e-06
4.393967044e-05
-4.076264044e-05
7.264795989e-06
4.292973942e-05
-4.236866437e-05
5.160153476e-05
-6.570991273e-06
-5.161467088e-05
8.020314885e-06
-8.097151813e-06
5.167837169e-05
7.944215554e-06
5.12613057e-05
8.641425602e-06
5.467775708e-05
-5.387851753e-05
8.474286843e-06
5.404565629e-05
6.674737621e-06
-5.374287279e-05
4.788332396e-05
-6.523977179e-06
-4.787165882e-05
7.502179361e-06
-7.563429901e-06
4.79445745e-05
4.740203022e-05
7.888248462e-06
5.073529861e-05
-5.013485241e-05
7.824393019e-06
5.019870785e-05
6.574941073e-06
-5.013142722e-05
9.78386862e-06
-9.891979386e-06
2.88010347e-05
3.021355341e-05
1.010055452e-05
3.041634173e-05
1.105497274e-05
-3.035972786e-05
2.714587967e-05
-2.711773508e-05
-1.088320218e-05
-9.469976288e-06
2.697007813e-05
2.835133992e-05
9.681282754e-06
9.131297631e-06
-9.228265737e-06
3.635500502e-05
-9.506477959e-06
3.774263493e-05
9.416216771e-06
-1.087949288e-05
3.78591365e-05
1.086493594e-05
-3.784457956e-05
6.976862924e-06
-6.993644246e-06
3.653391401e-05
-3.651713269e-05
6.951817552e-06
3.607480693e-05
-3.604976156e-05
7.050290611e-06
3.922846452e-05
-3.915143356e-05
7.053507402e-06
3.882443224e-05
-3.882764903e-05
-1.353883353e-06
4.611114139e-05
-4.475725803e-05
6.938672623e-06
3.560499338e-05
-3.559184845e-05
3.515431434e-05
6.905313583e-06
-3.51209553e-05
3.463077988e-05
-3.464682256e-05
-1.079490177e-05
-8.891530531e-06
3.470195977e-05
3.589541449e-05
9.042511368e-06
1.606520466e-05
-1.598548758e-05
-9.301595384e-06
9.777168925e-06
1.617915042e-05
-9.891114677e-06
9.656926919e-06
1.570827214e-05
1.044006178e-05
-8.592460999e-06
-1.034597467e-05
1.04337889e-05
-1.058720779e-05
1.059348066e-05
1.031530197e-05
1.003228232e-05
1.075761367e-05
-1.076898506e-05
1.21676615e-05
-1.110620917e-05
1.127661504e-05
-1.073779185e-05
8.954226314e-06
-9.270141765e-06
2.197197855e-06
-1.881282404e-06
1.536786599e-06
-1.436668261e-06
8.49030759e-06
-8.39332388e-06
-8.466285072e-06
9.991266552e-06
-1.009677118e-05
8.595812222e-06
9.888629095e-06
8.130942936e-06
1.020318746e-05
9.525819018e-06
-8.951292403e-06
9.057708678e-06
-8.925527108e-06
1.0298434e-05
-1.269220086e-05
4.708443293e-06
-2.314676422e-06
3.250570218e-06
-2.222277988e-06
8.581155666e-06
-8.644301608e-06
5.585049777e-06
-9.827011984e-06
5.715966786e-06
-4.499593983e-06
5.711346531e-05
-5.679243755e-05
7.496545115e-05
-7.681678685e-05
3.666105525e-06
7.330074014e-05
-3.172628744e-06
3.075446363e-06
7.180235165e-05
1.053359875e-05
-2.340198547e-05
6.99203515e-05
4.225833013e-06
6.746433445e-05
-6.115656871e-05
2.733847051e-06
7.09457872e-05
-9.256369134e-05
7.189555292e-05
6.16941606e-05
-5.739771474e-05
5.913829632e-05
-5.904647867e-05
7.516761057e-06
-7.082812018e-06
5.778136909e-05
-5.852616971e-05
5.769052557e-05
5.741946417e-05
7.128841095e-06
5.759291212e-05
5.752770096e-05
-1.139970688e-05
6.654588684e-06
-5.994900603e-05
6.714452425e-05
-5.470887108e-05
6.661097266e-05
-4.537372216e-06
-5.882884192e-05
-9.266985125e-05
-6.312392148e-05
6.378600937e-05
-5.511443325e-06
-6.279618495e-05
-6.234384581e-05
6.701778823e-06
-6.949467959e-06
4.595812055e-05
-4.632810298e-05
4.635382746e-05
-4.106048475e-05
4.591357961e-05
-4.579749447e-05
7.149609724e-06
4.605581187e-05
4.588026548e-05
7.132868539e-06
-7.144419806e-06
4.12770256e-05
-4.126547433e-05
4.079999469e-05
-4.079172488e-05
7.175738157e-06
4.226898308e-05
-4.217992525e-05
4.176189749e-05
-4.173057914e-05
8.172759844e-06
-8.245947319e-06
5.251848181e-05
-5.197789808e-05
5.205350611e-05
-5.191034513e-05
5.345443404e-05
-5.34597112e-05
8.366096815e-06
5.356262407e-05
5.306295743e-05
7.609830341e-06
-7.67187442e-06
4.884612596e-05
-4.840337239e-05
4.844977283e-05
-4.844365924e-05
4.959576145e-05
-4.956547815e-05
7.750946234e-06
4.966920824e-05
4.921052784e-05
-2.953946832e-05
9.261241202e-06
2.960967137e-05
-7.57924201e-06
7.563410097e-06
-2.952363641e-05
-7.604691105e-06
-3.000238049e-05
-7.53750746e-06
7.513738016e-06
-2.859144399e-05
2.905473291e-05
-2.902883027e-05
2.914379297e-05
-3.171376972e-05
9.642668951e-06
3.187856717e-05
-8.229338046e-06
7.711797519e-06
-3.11962292e-05
-1.082145003e-05
-3.016068601e-05
-7.642998169e-06
-3.048955943e-05
3.107563793e-05
-3.100683858e-05
3.120842353e-05
-2.5825537e-05
8.633682747e-06
2.590317686e-05
-7.445374807e-06
7.435436681e-06
-2.581559888e-05
-7.456356447e-06
-2.629949168e-05
-7.409352955e-06
7.376614814e-06
-2.484451114e-05
2.533783058e-05
-2.531174685e-05
2.541806063e-05
-2.772348716e-05
8.934236619e-06
2.7800918e-05
-7.495847915e-06
7.485929377e-06
-2.771356862e-05
-2.814806076e-05
-7.476746852e-06
-2.677424271e-05
2.72719563e-05
-2.726277378e-05
2.73500986e-05
7.002884693e-06
3.747264585e-05
-7.027105713e-06
-3.744842483e-05
3.700031219e-05
-3.699107175e-05
-3.708116318e-05
8.784229753e-06
3.718660579e-05
-8.312521541e-06
8.231670558e-06
-8.379739876e-06
-8.150058744e-06
8.073618464e-06
3.661552582e-05
3.671465431e-05
7.037816825e-06
3.839371323e-05
-3.837802266e-05
3.792485726e-05
-3.791414615e-05
5.770313166e-06
3.429781082e-05
-6.663834461e-06
-3.340428953e-05
3.501882098e-05
-3.060239116e-05
-3.506830735e-05
8.567174949e-06
3.463234544e-05
-7.221305091e-06
7.17181872e-06
-7.519352023e-06
-1.808175068e-05
-2.692001645e-05
3.520120942e-05
3.442909332e-05
-3.524665999e-05
8.35871172e-06
3.535826368e-05
-7.979979761e-06
7.887634119e-06
-7.741449909e-06
-3.43661913e-05
3.485363037e-05
-3.470744616e-05
3.497652341e-05
6.836688453e-06
-3.463882103e-05
-3.419333731e-05
1.433598105e-05
-8.910853148e-06
-1.418604384e-05
9.270340798e-06
-9.40317332e-06
1.446881358e-05
9.151632504e-06
1.419071334e-05
9.532145026e-06
1.527142882e-05
-1.472394744e-05
1.485291914e-05
-1.461000606e-05
7.797386456e-06
-1.457686362e-05
-1.411483427e-05
7.915209936e-06
1.64873573e-05
-1.648073954e-05
-1.596661992e-05
4.098384009e-06
1.448871761e-05
-1.173342655e-05
2.082457059e-05
-1.672618658e-05
1.467149864e-05
-8.165176477e-06
1.031982702e-05
-9.55354437e-06
1.390521598e-05
1.317918619e-05
9.136819698e-06
1.408648416e-05
-1.454444089e-05
1.412771621e-05
-3.290338765e-05
1.608929325e-05
2.447900003e-05
-2.77808009e-06
-3.012530756e-05
-6.321070302e-06
-2.076095915e-05
2.345199402e-05
-1.797319725e-05
-2.401454402e-05
8.230144032e-06
2.414929233e-05
-7.351815698e-06
7.285179137e-06
-2.394790746e-05
-2.441281823e-05
-7.117538785e-06
-2.278271616e-05
2.365121668e-05
-2.348357633e-05
2.387666718e-05
7.971496166e-06
1.83719225e-05
-1.835367862e-05
1.79082244e-05
-1.789050887e-05
8.076285648e-06
2.02990279e-05
-2.021206209e-05
1.978343671e-05
-1.973967057e-05
6.641193944e-06
-8.296515733e-06
-6.614874627e-06
9.582353784e-06
-9.685393697e-06
6.744233856e-06
9.477670106e-06
6.289358654e-06
9.787060001e-06
7.66930816e-06
-7.104207642e-06
7.205873947e-06
-7.079347401e-06
4.906840794e-06
-8.150098496e-06
-4.732329253e-06
8.965261479e-06
-9.20428343e-06
5.145862746e-06
5.122873382e-06
9.358646412e-06
5.847294537e-06
-5.285748238e-06
5.44011122e-06
-5.223520386e-06
0
0
0
0
0
0
0
0
0
0
0
0
0
0
0
0
0
0
0
-6.440642572e-08
0
-1.513378259e-05
4.934594731e-06
-5.861492555e-07
6.877444498e-06
0
0
0
-2.594427389e-05
-1.684110029e-06
-6.188334784e-05
1.080092884e-05
-4.499596532e-06
5.040374395e-05
0
0
0
-7.162469026e-05
-4.391690376e-06
0
0
0
0
0
0
0
0
0
-2.051857949e-06
0
-5.730130912e-05
2.474782502e-05
-1.166847177e-05
3.043002309e-05
0
2.809097691e-07
-9.036361769e-05
-2.0240004e-05
-0.0002076062272
6.4431954e-05
-4.396768856e-05
0.0001674347899
2.759660186e-05
1.377769953e-05
-0.0002464789559
-4.802914247e-05
-0.000341410709
5.861777764e-05
-4.3946744e-05
0.0003145141208
0.0001000778689
1.965201928e-05
-0.0003624470568
-3.72632339e-05
0
0
0
-3.920725656e-05
2.171125673e-05
-1.116155977e-05
1.377449066e-05
0
7.861491024e-07
-7.634004729e-05
-2.610936006e-05
-0.0002379599368
0.0001148187491
-8.808736421e-05
0.0001780764964
5.934089301e-05
4.226510915e-05
-0.000300480656
-0.0001073007943
-0.0004802964196
0.0001653097021
-0.0001389811125
0.0004237562349
0.0002303312452
8.763168078e-05
-0.0005313028684
-0.0001383563187
-0.0006422195489
0.0001214971112
-0.0001063670749
0.0006127310554
0.0003951948947
7.429315532e-05
-0.0006640975946
-8.766288877e-05
2.184087647e-06
-1.676513371e-05
-5.250673909e-06
-0.0001389120698
9.347300445e-05
-7.339029832e-05
8.647695729e-05
2.899239779e-05
3.545245115e-05
-0.0002004973644
-0.0001070128488
-0.0004139930323
0.0002265480741
-0.00019567828
0.0003428700501
0.000220404172
0.0001430743252
-0.0004805346494
-0.0002213263271
-0.0006514671133
0.0002567054904
-0.0002367124976
0.0006005473257
0.000480312558
0.0001908778429
-0.0006908739547
-0.000225097195
-0.0007685037372
0.0001632938179
-0.0001563509505
0.0007505599452
0.0006670310948
0.0001352046598
-0.0007800692818
-0.0001265488951
1.96803395e-05
-4.90178445e-05
-3.017398628e-05
-0.000202828957
0.0001636856679
-0.0001510173109
0.0001432893574
0.0001048884434
0.0001135555664
-0.0002726574216
-0.0001971135652
-0.0004757059254
0.0003203325957
-0.000302754865
0.0004104464029
0.0003674038853
0.0002565674444
-0.0005352367625
-0.000318089316
-0.0006669801256
0.0003000989563
-0.0002909369169
0.0006320108976
0.0006308602675
0.0002665227796
-0.0006909930151
-0.0002635351431
-0.0006989133662
0.000157863026
-0.0001631483554
0.0007039432977
0.0007518268275
0.0001669517118
-0.0006951689819
-0.0001312508642
3.291537844e-05
-6.563972941e-05
-5.972316149e-05
-0.0002134379179
0.0002131642568
-0.0002056724246
0.0001578558269
0.0001516823198
0.000180563539
-0.0002722105706
-0.0002559712851
-0.0004428730778
0.0003631024573
-0.0003554913688
0.0003893601034
0.0004075425967
0.0003354959134
-0.0004904934833
-0.0003624129478
-0.0005771499998
0.0003133342954