/*--------------------------------*- C++ -*----------------------------------*\
| =========                 |                                                 |
| \\      /  F ield         | OpenFOAM: The Open Source CFD Toolbox           |
|  \\    /   O peration     | Version:  v2012                                 |
|   \\  /    A nd           | Website:  www.openfoam.com                      |
|    \\/     M anipulation  |                                                 |
\*---------------------------------------------------------------------------*/
FoamFile
{
    version     2.0;
    format      ascii;
    class       pointVectorField;
    location    "1.98";
    object      pointDisplacement;
}
// * * * * * * * * * * * * * * * * * * * * * * * * * * * * * * * * * * * * * //

dimensions      [0 1 0 0 0 0 0];


internalField   nonuniform List<vector> 
6962
(
(0 0 0)
(0 0 0)
(0 0 0)
(0 0 0)
(0 0 0)
(0 0 0)
(0 0 0)
(0 0 0)
(0 0 0)
(0 0 0)
(-0.0009964781687 -0.001497388815 5.606626274e-15)
(0 0 0)
(0 0 0)
(0 0 0)
(0 0 0)
(0 0 0)
(0 0 0)
(0 0 0)
(0 0 0)
(0 0 0)
(0 0 0)
(0 0 0)
(0 0 0)
(0 0 0)
(0 0 0)
(-0.001771867806 -0.002960255718 9.964251646e-15)
(-0.001615338656 -0.002630663762 9.089951014e-15)
(-0.001382406557 -0.002193392706 7.78543896e-15)
(-0.006881029696 -0.0119506997 4.24521529e-14)
(-0.007394014346 -0.01317687052 4.558853295e-14)
(-0.01122077353 -0.02097089354 7.265021917e-14)
(-0.01059206886 -0.01929590016 6.861178292e-14)
(-0.02257994048 -0.04815422173 1.71876402e-13)
(-0.02300721214 -0.05031827867 1.749433931e-13)
(-0.02618048142 -0.06072364704 2.113170749e-13)
(-0.02582314555 -0.0584136373 2.086941731e-13)
(-0.03080839572 -0.08550795416 3.0594971e-13)
(-0.03093737998 -0.08798976094 3.066297216e-13)
(-0.03081966139 -0.09493857713 3.308187058e-13)
(-0.03061533218 -0.09207184729 3.29430927e-13)
(-0.02492128575 -0.1006634948 0)
(-0.02500265308 -0.1033572973 0)
(-0.02214224615 -0.1034455117 0)
(-0.02210182752 -0.1020990719 0)
(-0.02206178045 -0.1007524953 0)
(-0.01351278932 -0.1010161289 0)
(-0.01353178998 -0.1016887602 0)
(-0.01282352626 -0.1017101298 0)
(-0.01280459406 -0.1010376843 0)
(0 0 0)
(0 0 0)
(0 0 0)
(0 0 0)
(0 0 0)
(0 0 0)
(0 0 0)
(0 0 0)
(0 0 0)
(0 0 0)
(0 0 0)
(0 0 0)
(0 0 0)
(0 0 0)
(-0.001680390711 -0.003105230841 9.492406861e-15)
(-0.001899024895 -0.003428384146 1.072752998e-14)
(-0.002029232193 -0.003577312832 1.146305273e-14)
(-0.008191807766 -0.01579998908 5.072331444e-14)
(-0.00792876464 -0.01566069763 4.909961326e-14)
(-0.01183593533 -0.02451196979 7.692457782e-14)
(-0.01215075406 -0.02457376802 7.897849041e-14)
(-0.02407152656 -0.05692698842 1.835753771e-13)
(-0.02368942618 -0.05734805889 1.805500194e-13)
(-0.02683380462 -0.06885749487 2.169653346e-13)
(-0.02720416516 -0.06820892845 2.201572258e-13)
(-0.03161798244 -0.09714209109 3.139016824e-13)
(-0.03138456287 -0.09860168067 3.110567359e-13)
(-0.03103820318 -0.1055911917 3.330669074e-13)
(-0.03119701667 -0.103827285 3.354538869e-13)
(-0.02493110608 -0.111475027 0)
(-0.02501549106 -0.1141691736 0)
(-0.02214711679 -0.1142590156 0)
(-0.0221049341 -0.1129122553 0)
(-0.02206273181 -0.1115648691 0)
(-0.01345773418 -0.1118343914 0)
(-0.01349993646 -0.1131817776 0)
(-0.01206581191 -0.1132266966 0)
(-0.01204470097 -0.1125526906 0)
(-0.01202360962 -0.1118793105 0)
(-0.0127406719 -0.1118568509 0)
(0 0 0)
(0 0 0)
(0 0 0)
(0 0 0)
(0 0 0)
(0 0 0)
(0 0 0)
(0 0 0)
(0 0 0)
(0 0 0)
(0 0 0)
(0 0 0)
(0 0 0)
(0 0 0)
(-0.0003924310361 -0.0007923533662 2.220446049e-15)
(-0.0007120988758 -0.001407284955 4.024558464e-15)
(-0.001057996608 -0.002045532242 5.981326545e-15)
(-0.006074864902 -0.01285685481 3.763656053e-14)
(-0.005189736229 -0.01123122451 3.215483435e-14)
(-0.008459078877 -0.01920020622 5.501155087e-14)
(-0.009570072152 -0.02123957723 6.222800053e-14)
(-0.02076169627 -0.05384727754 1.581929032e-13)
(-0.01924547004 -0.05106077541 1.467159727e-13)
(-0.02236901234 -0.06288332133 1.808275751e-13)
(-0.02391180865 -0.06571327993 1.932065619e-13)
(-0.02918240846 -0.09796819094 2.88422064e-13)
(-0.02789981998 -0.0957619166 2.75737766e-13)
(-0.02818828067 -0.1046027887 3.012173844e-13)
(-0.02928387617 -0.1063238016 3.13013504e-13)
(-0.0249759407 -0.1209409482 3.556321904e-13)
(-0.02461403824 -0.1215788164 3.497757639e-13)
(-0.02227795201 -0.1239843783 3.564648576e-13)
(-0.02238588124 -0.1222703522 3.593098041e-13)
(-0.01379531328 -0.1226122292 0)
(-0.01387971786 -0.1253070015 0)
(-0.01101140618 -0.1253968416 0)
(-0.0109270016 -0.1227020693 0)
(-0.01236118873 -0.1226571482 0)
(0 0 0)
(0 0 0)
(0 0 0)
(0 0 0)
(0 0 0)
(0 0 0)
(0 0 0)
(0 0 0)
(0 0 0)
(0 0 0)
(0 0 0)
(0 0 0)
(0 0 0)
(0 0 0)
(0 0 0)
(0 0 0)
(-9.638642802e-06 -2.028432119e-05 5.551115123e-17)
(-0.002307915018 -0.005327963422 1.432187702e-14)
(-0.00144853929 -0.003413954107 8.992806499e-15)
(-0.003370774187 -0.008342381697 2.198241589e-14)
(-0.004631134109 -0.01122252683 3.018418848e-14)
(-0.0135224538 -0.03837851145 1.034450303e-13)
(-0.01138764192 -0.03304448704 8.726352974e-14)
(-0.01410709519 -0.04340383459 1.146860384e-13)
(-0.01639671299 -0.04932691934 1.330324739e-13)
(-0.02239245716 -0.08224108521 2.221139939e-13)
(-0.02008161529 -0.0754747932 1.997013666e-13)
(-0.02101115762 -0.08533431139 2.258193632e-13)
(-0.02319521074 -0.09205100884 2.486483242e-13)
(-0.02179146423 -0.11467047 3.096412016e-13)
(-0.02024323483 -0.1089865581 2.883526751e-13)
(-0.01892653343 -0.1145285908 3.029243523e-13)
(-0.02022748734 -0.1196627149 3.229916334e-13)
(-0.01346644779 -0.1279368216 3.447797603e-13)
(-0.0128113807 -0.1243907244 3.285288708e-13)
(-0.0103143228 -0.1257383137 3.319011732e-13)
(-0.01081149398 -0.1289783153 3.473610288e-13)
(0 0 0)
(0 0 0)
(0 0 0)
(0 0 0)
(0 0 0)
(0 0 0)
(0 0 0)
(0 0 0)
(0 0 0)
(0 0 0)
(0 0 0)
(0 0 0)
(0 0 0)
(0 0 0)
(0 0 0)
(0 0 0)
(0 0 0)
(-8.461986665e-06 -2.115313536e-05 5.551115123e-17)
(0 0 0)
(-8.714095919e-05 -0.0002334604864 5.689893001e-16)
(-0.0005150494934 -0.001354006467 3.372302437e-15)
(-0.005208933397 -0.01612827562 4.014844013e-14)
(-0.003470433863 -0.01097083741 2.679800826e-14)
(-0.005173714568 -0.01737775946 4.246603069e-14)
(-0.007223729944 -0.02374956278 5.914713164e-14)
(-0.01244606424 -0.05017859548 1.251082571e-13)
(-0.009909908166 -0.04089825008 1.000310945e-13)
(-0.01100010425 -0.04914354932 1.202371536e-13)
(-0.01355161357 -0.05910496811 1.473821065e-13)
(-0.01423662734 -0.08255248475 2.058769821e-13)
(-0.01199481866 -0.07140183975 1.747213485e-13)
(-0.01153884495 -0.07735560136 1.892652701e-13)
(-0.01359019704 -0.08866664455 2.211009154e-13)
(-0.009554701584 -0.100641339 2.507299923e-13)
(-0.008204054847 -0.08922341027 2.181588243e-13)
(-0.006609547373 -0.09101020209 2.22433183e-13)
(-0.007706023029 -0.102422143 2.550737399e-13)
(0 0 0)
(0 0 0)
(0 0 0)
(0 0 0)
(0 0 0)
(0 0 0)
(0 0 0)
(0 0 0)
(0 0 0)
(0 0 0)
(0 0 0)
(0 0 0)
(0 0 0)
(0 0 0)
(0 0 0)
(0 0 0)
(0 0 0)
(0 0 0)
(0 0 0)
(0 0 0)
(0 0 0)
(-0.0002236115283 -0.0007491686919 1.734723476e-15)
(0 0 0)
(-0.0001625457277 -0.000590624711 1.346145417e-15)
(-0.0008060934149 -0.002875877288 6.661338148e-15)
(-0.003445419549 -0.0152135711 3.522182546e-14)
(-0.001919316838 -0.008654305596 1.96925809e-14)
(-0.002588150509 -0.01267958742 2.885192085e-14)
(-0.004271040496 -0.0204697926 4.740652315e-14)
(-0.005623648674 -0.03625270992 8.397449403e-14)
(-0.003862913324 -0.02554934595 5.814793091e-14)
(-0.003928436102 -0.02942917228 6.698808175e-14)
(-0.005600865255 -0.0408288578 9.457712391e-14)
(-0.004172890765 -0.05038251178 1.166705621e-13)
(-0.003012768331 -0.03768527868 8.576472865e-14)
(-0.00241391212 -0.03898108493 8.870681967e-14)
(-0.003345454092 -0.05186412517 1.200844979e-13)
(0 0 0)
(0 0 0)
(0 0 0)
(0 0 0)
(0 0 0)
(0 0 0)
(0 0 0)
(0 0 0)
(0 0 0)
(0 0 0)
(0 0 0)
(0 0 0)
(0 0 0)
(0 0 0)
(0 0 0)
(0 0 0)
(0 0 0)
(0 0 0)
(0 0 0)
(0 0 0)
(0 0 0)
(0 0 0)
(0 0 0)
(0 0 0)
(0 0 0)
(0 0 0)
(0 0 0)
(0 0 0)
(-2.513604301e-05 -0.0001304682059 2.775557562e-16)
(-0.0004506824987 -0.003191570325 6.89726054e-15)
(-5.070937241e-05 -0.0003658173052 7.771561172e-16)
(-0.0001107519259 -0.0009101430291 1.942890293e-15)
(-0.0005708327642 -0.004599665752 9.950373858e-15)
(-0.0005868245723 -0.008073526436 1.747213485e-14)
(-0.0001894886684 -0.002672648941 5.689893001e-15)
(-0.0001624267228 -0.003011223047 6.411537967e-15)
(-0.0004808508389 -0.008667340175 1.876276912e-14)
(0 0 0)
(0 0 0)
(0 0 0)
(0 0 0)
(0 0 0)
(0 0 0)
(0 0 0)
(0 0 0)
(0 0 0)
(0 0 0)
(0 0 0)
(0 0 0)
(0 0 0)
(0 0 0)
(0 0 0)
(0 0 0)
(0 0 0)
(0 0 0)
(0 0 0)
(0 0 0)
(0 0 0)
(0 0 0)
(0 0 0)
(0 0 0)
(0 0 0)
(0 0 0)
(0 0 0)
(0 0 0)
(0 0 0)
(0 0 0)
(0 0 0)
(0 0 0)
(0 0 0)
(0 0 0)
(0 0 0)
(0 0 0)
(0 0 0)
(0 0 0)
(0 0 0)
(0 0 0)
(0 0 0)
(0 0 0)
(0 0 0)
(0 0 0)
(0 0 0)
(0 0 0)
(0 0 0)
(0 0 0)
(0 0 0)
(0 0 0)
(0 0 0)
(0 0 0)
(0 0 0)
(0 0 0)
(0 0 0)
(0 0 0)
(0 0 0)
(0 0 0)
(0 0 0)
(0 0 0)
(0 0 0)
(0 0 0)
(0 0 0)
(0 0 0)
(0 0 0)
(0 0 0)
(0 0 0)
(0 0 0)
(0 0 0)
(0 0 0)
(0 0 0)
(0 0 0)
(0 0 0)
(0 0 0)
(0 0 0)
(0 0 0)
(0 0 0)
(0 0 0)
(0 0 0)
(0 0 0)
(0 0 0)
(0 0 0)
(0 0 0)
(0 0 0)
(0 0 0)
(0 0 0)
(0 0 0)
(0 0 0)
(0 0 0)
(0 0 0)
(0 0 0)
(0 0 0)
(0 0 0)
(0 0 0)
(0 0 0)
(0 0 0)
(0 0 0)
(0 0 0)
(0 0 0)
(0 0 0)
(0 0 0)
(0 0 0)
(0 0 0)
(0 0 0)
(0 0 0)
(0 0 0)
(0 0 0)
(0 0 0)
(0 0 0)
(0 0 0)
(0 0 0)
(0 0 0)
(0 0 0)
(0 0 0)
(0 0 0)
(0 0 0)
(0 0 0)
(0 0 0)
(0 0 0)
(0 0 0)
(0 0 0)
(0 0 0)
(0 0 0)
(0 0 0)
(0 0 0)
(0 0 0)
(0 0 0)
(0 0 0)
(0 0 0)
(0 0 0)
(0 0 0)
(0 0 0)
(0 0 0)
(0 0 0)
(0 0 0)
(0 0 0)
(0 0 0)
(0 0 0)
(0 0 0)
(0 0 0)
(0 0 0)
(0 0 0)
(0 0 0)
(0 0 0)
(0 0 0)
(0 0 0)
(0 0 0)
(0 0 0)
(0 0 0)
(0 0 0)
(0 0 0)
(0 0 0)
(0 0 0)
(0 0 0)
(0 0 0)
(0 0 0)
(0 0 0)
(0 0 0)
(0 0 0)
(0 0 0)
(0 0 0)
(0 0 0)
(0 0 0)
(0 0 0)
(0 0 0)
(0 0 0)
(0 0 0)
(0 0 0)
(0 0 0)
(0 0 0)
(0 0 0)
(0 0 0)
(0 0 0)
(0 0 0)
(0 0 0)
(0 0 0)
(0 0 0)
(0 0 0)
(0 0 0)
(0 0 0)
(0 0 0)
(0 0 0)
(0 0 0)
(0 0 0)
(0 0 0)
(0 0 0)
(0 0 0)
(0 0 0)
(0 0 0)
(0 0 0)
(0 0 0)
(0 0 0)
(0 0 0)
(0 0 0)
(0 0 0)
(0 0 0)
(0 0 0)
(0 0 0)
(0 0 0)
(0 0 0)
(0 0 0)
(0 0 0)
(0 0 0)
(0 0 0)
(0 0 0)
(0 0 0)
(0 0 0)
(0 0 0)
(0 0 0)
(0 0 0)
(0 0 0)
(0 0 0)
(0 0 0)
(0 0 0)
(0 0 0)
(0 0 0)
(0 0 0)
(0 0 0)
(0 0 0)
(0 0 0)
(0 0 0)
(0 0 0)
(0 0 0)
(0 0 0)
(0 0 0)
(0 0 0)
(0 0 0)
(0 0 0)
(0 0 0)
(0 0 0)
(0 0 0)
(0 0 0)
(0 0 0)
(0 0 0)
(0 0 0)
(0 0 0)
(0 0 0)
(0 0 0)
(0 0 0)
(0 0 0)
(0 0 0)
(0 0 0)
(0 0 0)
(0 0 0)
(0 0 0)
(0 0 0)
(0 0 0)
(0 0 0)
(0 0 0)
(0 0 0)
(0 0 0)
(0 0 0)
(0 0 0)
(0 0 0)
(0 0 0)
(0 0 0)
(0 0 0)
(0 0 0)
(0 0 0)
(0 0 0)
(0 0 0)
(0 0 0)
(0 0 0)
(0 0 0)
(0 0 0)
(0 0 0)
(0 0 0)
(0 0 0)
(0 0 0)
(0 0 0)
(0 0 0)
(0 0 0)
(0 0 0)
(0 0 0)
(0 0 0)
(0 0 0)
(0 0 0)
(0 0 0)
(0 0 0)
(0 0 0)
(0 0 0)
(0 0 0)
(0 0 0)
(0 0 0)
(0 0 0)
(0 0 0)
(0 0 0)
(0 0 0)
(0 0 0)
(0 0 0)
(0 0 0)
(0 0 0)
(0 0 0)
(0 0 0)
(0 0 0)
(0 0 0)
(0 0 0)
(0 0 0)
(0 0 0)
(0 0 0)
(0 0 0)
(0 0 0)
(0 0 0)
(0 0 0)
(0 0 0)
(0 0 0)
(0 0 0)
(0 0 0)
(0 0 0)
(0 0 0)
(0 0 0)
(0 0 0)
(0 0 0)
(0 0 0)
(0 0 0)
(0 0 0)
(0 0 0)
(0 0 0)
(0 0 0)
(0 0 0)
(0 0 0)
(0 0 0)
(0 0 0)
(0 0 0)
(0 0 0)
(0 0 0)
(0 0 0)
(0 0 0)
(0 0 0)
(0 0 0)
(0 0 0)
(0 0 0)
(0 0 0)
(0 0 0)
(0 0 0)
(0 0 0)
(0 0 0)
(0 0 0)
(0 0 0)
(0 0 0)
(0 0 0)
(0 0 0)
(0 0 0)
(0 0 0)
(0 0 0)
(0 0 0)
(0 0 0)
(0 0 0)
(0 0 0)
(0 0 0)
(0 0 0)
(0 0 0)
(0 0 0)
(0 0 0)
(0 0 0)
(0 0 0)
(0 0 0)
(0 0 0)
(0 0 0)
(0 0 0)
(0 0 0)
(0 0 0)
(0 0 0)
(0 0 0)
(0 0 0)
(0 0 0)
(0 0 0)
(0 0 0)
(0 0 0)
(0 0 0)
(0 0 0)
(0 0 0)
(0 0 0)
(0 0 0)
(0 0 0)
(0 0 0)
(0 0 0)
(0 0 0)
(0 0 0)
(0 0 0)
(0 0 0)
(0 0 0)
(0 0 0)
(0 0 0)
(0 0 0)
(0 0 0)
(0 0 0)
(0 0 0)
(0 0 0)
(0 0 0)
(0 0 0)
(0 0 0)
(0 0 0)
(0 0 0)
(0 0 0)
(0 0 0)
(0 0 0)
(0 0 0)
(0 0 0)
(0 0 0)
(0 0 0)
(0 0 0)
(0 0 0)
(0 0 0)
(0 0 0)
(0 0 0)
(0 0 0)
(0 0 0)
(0 0 0)
(0 0 0)
(0 0 0)
(0 0 0)
(0 0 0)
(0 0 0)
(0 0 0)
(0 0 0)
(0 0 0)
(0 0 0)
(0 0 0)
(0 0 0)
(0 0 0)
(0 0 0)
(0 0 0)
(0 0 0)
(0 0 0)
(0 0 0)
(0 0 0)
(0 0 0)
(0 0 0)
(0 0 0)
(0 0 0)
(0 0 0)
(0 0 0)
(0 0 0)
(0 0 0)
(0 0 0)
(0 0 0)
(0 0 0)
(0 0 0)
(0 0 0)
(0 0 0)
(0 0 0)
(0 0 0)
(0 0 0)
(0 0 0)
(0 0 0)
(0 0 0)
(0 0 0)
(0 0 0)
(0 0 0)
(0 0 0)
(0 0 0)
(0 0 0)
(0 0 0)
(0 0 0)
(0 0 0)
(0 0 0)
(0 0 0)
(0 0 0)
(0 0 0)
(0 0 0)
(0 0 0)
(0 0 0)
(0 0 0)
(0 0 0)
(0 0 0)
(0 0 0)
(0 0 0)
(0 0 0)
(0 0 0)
(0 0 0)
(0 0 0)
(0 0 0)
(0 0 0)
(0 0 0)
(0 0 0)
(0 0 0)
(0 0 0)
(0 0 0)
(0 0 0)
(0 0 0)
(0 0 0)
(0 0 0)
(0 0 0)
(0 0 0)
(0 0 0)
(0 0 0)
(0 0 0)
(0 0 0)
(0 0 0)
(0 0 0)
(0 0 0)
(0 0 0)
(0 0 0)
(0 0 0)
(0 0 0)
(0 0 0)
(0 0 0)
(0 0 0)
(0 0 0)
(0 0 0)
(0 0 0)
(0 0 0)
(0 0 0)
(0 0 0)
(0 0 0)
(0 0 0)
(0 0 0)
(0 0 0)
(0 0 0)
(0 0 0)
(0 0 0)
(0 0 0)
(0 0 0)
(0 0 0)
(0 0 0)
(0 0 0)
(0 0 0)
(0 0 0)
(0 0 0)
(0 0 0)
(0 0 0)
(0 0 0)
(0 0 0)
(0 0 0)
(0 0 0)
(0 0 0)
(0 0 0)
(0 0 0)
(0 0 0)
(0 0 0)
(0 0 0)
(0 0 0)
(0 0 0)
(0 0 0)
(0 0 0)
(0 0 0)
(0 0 0)
(0 0 0)
(0 0 0)
(0 0 0)
(0 0 0)
(0 0 0)
(0 0 0)
(0 0 0)
(0 0 0)
(0 0 0)
(0 0 0)
(0 0 0)
(0 0 0)
(0 0 0)
(0 0 0)
(0 0 0)
(0 0 0)
(0 0 0)
(0 0 0)
(0 0 0)
(0 0 0)
(0 0 0)
(0 0 0)
(0 0 0)
(0 0 0)
(0 0 0)
(0 0 0)
(0 0 0)
(0 0 0)
(0 0 0)
(0 0 0)
(0 0 0)
(0 0 0)
(0 0 0)
(0 0 0)
(0 0 0)
(0 0 0)
(0 0 0)
(0 0 0)
(0 0 0)
(0 0 0)
(0 0 0)
(0 0 0)
(0 0 0)
(0 0 0)
(0 0 0)
(0 0 0)
(0 0 0)
(0 0 0)
(0 0 0)
(0 0 0)
(0 0 0)
(0 0 0)
(0 0 0)
(0 0 0)
(0 0 0)
(0 0 0)
(0 0 0)
(0 0 0)
(0 0 0)
(0 0 0)
(0 0 0)
(0 0 0)
(0 0 0)
(0 0 0)
(0 0 0)
(0 0 0)
(0 0 0)
(0 0 0)
(0 0 0)
(0 0 0)
(0 0 0)
(0 0 0)
(0 0 0)
(0 0 0)
(0 0 0)
(0 0 0)
(0 0 0)
(0 0 0)
(0 0 0)
(0 0 0)
(0 0 0)
(0 0 0)
(0 0 0)
(0 0 0)
(0 0 0)
(0 0 0)
(0 0 0)
(0 0 0)
(0 0 0)
(0 0 0)
(0 0 0)
(-0.01278569896 -0.1003644232 0)
(-0.01349383164 -0.1003428698 0)
(-0.01271956095 -0.1111828449 0)
(-0.01343662323 -0.1111603854 0)
(-0.02202221444 -0.09940527709 0)
(-0.0219823981 -0.09805806676 0)
(-0.02484091189 -0.09796941054 0)
(-0.01347498148 -0.09966904357 0)
(-0.01489361906 -0.09962567451 0)
(-0.01493218377 -0.100972924 0)
(-0.0133611336 -0.09562823942 0)
(-0.02202052953 -0.1102174829 0)
(-0.02219139369 -0.1089026378 0)
(-0.02505540067 -0.1088093619 0)
(-0.01341553189 -0.1104870052 0)
(-0.01484971902 -0.1104420842 0)
(-0.01489192131 -0.1117894704 0)
(-0.01497072691 -0.1023194852 0)
(-0.01355108213 -0.1023626979 0)
(-0.01366924619 -0.1064033042 0)
(-0.01296061286 -0.1064248733 0)
(-0.01294046612 -0.1057516514 0)
(-0.0136490975 -0.1057300198 0)
(-0.007991887053 -0.1065763046 0)
(-0.007959969461 -0.1062424764 0)
(-0.008326750391 -0.1062302366 0)
(-0.008351020936 -0.1065651186 0)
(-0.007805103251 -0.1011930861 0)
(-0.008186408968 -0.1011795769 0)
(-0.008203159895 -0.1015143813 0)
(-0.007827362132 -0.1015273421 0)
(-0.01231898644 -0.1213097621 0)
(-0.013753111 -0.121264843 0)
(-0.007790254738 -0.1008572198 0)
(-0.008174875708 -0.1008433562 0)
(-0.013380105 -0.09630193657 0)
(-0.01267197428 -0.09632355257 0)
(-0.007428667154 -0.1012060669 0)
(-0.00740686271 -0.1008709197 0)
(-0.00772221354 -0.1120102785 0)
(-0.007702246656 -0.1113305988 0)
(-0.008057557312 -0.1113213491 0)
(-0.008415235215 -0.1113132783 0)
(-0.008437863948 -0.1119897424 0)
(-0.008378033319 -0.1068995389 0)
(-0.008025106345 -0.106910092 0)
(-0.01368963738 -0.1070763304 0)
(-0.01298093754 -0.1070977763 0)
(-0.00771657679 -0.1069183149 0)
(-0.007680868324 -0.106584856 0)
(-0.00700688478 -0.1120326837 0)
(-0.006991367462 -0.1113528646 0)
(-0.007348769646 -0.1113397909 0)
(-0.007457694221 -0.1015396097 0)
(-0.007643467434 -0.1062517634 0)
(-0.004191719217 -0.1041713123 0)
(-0.003825533641 -0.10418416 0)
(-0.003802852817 -0.1038512327 0)
(-0.004166145154 -0.103838413 0)
(-0.008012042962 -0.1038726194 0)
(-0.008343415702 -0.1038643075 0)
(-0.008355823147 -0.1042004381 0)
(-0.008030381957 -0.1042081257 0)
(-0.01076553722 -0.1037950203 0)
(-0.01078486255 -0.1044680173 0)
(-0.01008396976 -0.1044887175 0)
(-0.01006495929 -0.1038157733 0)
(-0.01084457334 -0.1064883947 0)
(-0.01014355538 -0.1065090989 0)
(-0.01013289239 -0.106172663 0)
(-0.01012298233 -0.1058362662 0)
(-0.0108243034 -0.1058152394 0)
(-0.01068787594 -0.1011015402 0)
(-0.01070705454 -0.1017738527 0)
(-0.01000459917 -0.1017946645 0)
(-0.009984863203 -0.1011225574 0)
(-0.01004513723 -0.1031429172 0)
(-0.01074615126 -0.1031220879 0)
(-0.007988038426 -0.1035382301 0)
(-0.00832583945 -0.1035291531 0)
(-0.007820599082 -0.09848841923 0)
(-0.008164955514 -0.09847863573 0)
(-0.008178131582 -0.09881530607 0)
(-0.007837647381 -0.09882471772 0)
(-0.01061166957 -0.09840651104 0)
(-0.01063090111 -0.09908051326 0)
(-0.00992851223 -0.09910144827 0)
(-0.009909157495 -0.09842751255 0)
(-0.009965907481 -0.1004493609 0)
(-0.01066892021 -0.1004283437 0)
(-0.01055395175 -0.09638776255 0)
(-0.009850319075 -0.09640898709 0)
(-0.009889566155 -0.09775402275 0)
(-0.0105923931 -0.09773307402 0)
(-0.007801167999 -0.09815244595 0)
(-0.008150095618 -0.09814220605 0)
(-0.007479084242 -0.0984979258 0)
(-0.007453506871 -0.09816252089 0)
(-0.007502264352 -0.09883359373 0)
(-0.01086520701 -0.1071611628 0)
(-0.01016486961 -0.1071815951 0)
(-0.01015396217 -0.1068453548 0)
(-0.01077933264 -0.1092634645 0)
(-0.01007512311 -0.1092582717 0)
(-0.01015304381 -0.1088800346 0)
(-0.01018767953 -0.1085318438 0)
(-0.01088894853 -0.1085211547 0)
(-0.007956382389 -0.1093217525 0)
(-0.008076479546 -0.1089398765 0)
(-0.008410596371 -0.1089351746 0)
(-0.008299028932 -0.1093251776 0)
(-0.00778075074 -0.109237987 0)
(-0.007860473841 -0.1089312946 0)
(-0.004444724638 -0.1095401786 0)
(-0.004428775135 -0.1092051612 0)
(-0.004767144123 -0.1092020175 0)
(-0.004783306782 -0.1095368403 0)
(-0.004285671205 -0.1068681034 0)
(-0.004634683111 -0.1068605545 0)
(-0.004649736184 -0.1071963517 0)
(-0.004301956312 -0.1072032356 0)
(-0.007684526016 -0.1038804346 0)
(-0.00765322723 -0.103546963 0)
(-0.004520843126 -0.1038050023 0)
(-0.004620316023 -0.1040794587 0)
(-0.004270168371 -0.1065329467 0)
(-0.004621706172 -0.1065244417 0)
(-0.004538392081 -0.1045076852 0)
(-0.00419799823 -0.1045115814 0)
(-0.007712860835 -0.1042148762 0)
(-0.00383799597 -0.1045220429 0)
(-0.003940252179 -0.1068741616 0)
(-0.003922517584 -0.1065399518 0)
(-0.02231592595 -0.1196485603 0)
(-0.02511559087 -0.1192559276 3.58602037e-13)
(-0.01371092831 -0.1199180826 0)
(-0.01514511544 -0.1198731616 0)
(-0.01657930258 -0.1198282406 0)
(-0.01666368755 -0.1225223871 0)
(-0.0149341236 -0.1131368565 0)
(-0.01362652373 -0.1172233103 0)
(-0.01219239918 -0.1172682293 0)
(-0.01215019689 -0.1159208432 0)
(-0.01358432144 -0.1158759241 0)
(-0.007889881584 -0.1174029911 0)
(-0.007847679295 -0.1160556049 0)
(-0.009281822622 -0.1160106852 0)
(-0.009324024911 -0.1173580714 0)
(-0.008459244822 -0.1126643664 0)
(-0.007742613534 -0.112686186 0)
(-0.0079610785 -0.1052276846 0)
(-0.008321483549 -0.1052160829 0)
(-0.00830714533 -0.1055563087 0)
(-0.007932025788 -0.105569123 0)
(-0.009400137591 -0.1051821098 0)
(-0.00940771854 -0.1055201456 0)
(-0.009048311257 -0.1055314028 0)
(-0.009044665121 -0.1051929932 0)
(-0.009439103268 -0.1065301611 0)
(-0.009081008242 -0.1065413146 0)
(-0.009066850468 -0.1062053014 0)
(-0.009427192557 -0.1061938897 0)
(-0.00702598933 -0.1127086318 0)
(-0.006455713225 -0.1174479115 0)
(-0.006413510936 -0.1161005253 0)
(-0.00774053554 -0.09714704245 0)
(-0.00737504651 -0.09715892866 0)
(-0.007350132578 -0.09682450526 0)
(-0.007721148336 -0.09681207009 0)
(-0.007831993699 -0.09983921344 0)
(-0.007806845642 -0.1001797152 0)
(-0.007438466916 -0.1001919425 0)
(-0.007490053302 -0.09984873333 0)
(-0.008020788195 -0.1097044271 0)
(-0.007557567327 -0.1097878434 0)
(-0.01052550304 -0.1099034847 0)
(-0.009807189127 -0.1099259835 0)
(-0.009859544093 -0.1096155127 0)
(-0.01058935991 -0.1119242335 0)
(-0.009872090285 -0.1119460731 0)
(-0.009850623451 -0.1112727046 0)
(-0.01056806122 -0.1112502333 0)
(-0.009451757119 -0.1068661588 0)
(-0.009096533016 -0.1068769717 0)
(-0.009489452809 -0.1078756634 0)
(-0.009142849313 -0.1078857052 0)
(-0.0091287971 -0.1075490623 0)
(-0.009477776744 -0.1075388834 0)
(-0.008125742154 -0.1079126765 0)
(-0.008094612644 -0.1075780092 0)
(-0.008434144846 -0.1075690033 0)
(-0.008458497574 -0.1079045092 0)
(-0.00395882341 -0.1072082825 0)
(-0.004395452599 -0.1088770775 0)
(-0.007828380662 -0.1079198604 0)
(-0.007793199772 -0.1075854454 0)
(-0.005752867701 -0.1081810673 0)
(-0.005728598576 -0.1078496306 0)
(-0.00606191042 -0.1078282282 0)
(-0.006168400879 -0.1080941332 0)
(-0.004853198815 -0.1121032728 0)
(-0.004832726204 -0.1114292468 0)
(-0.005551607956 -0.1114054774 0)
(-0.00557096118 -0.1120801649 0)
(-0.004829779877 -0.1098613798 0)
(-0.004490396757 -0.1098657455 0)
(-0.007908220275 -0.1025324879 0)
(-0.007556974791 -0.1025429257 0)
(-0.007523871167 -0.1022076312 0)
(-0.007880722775 -0.1021965794 0)
(-0.007574379008 -0.1056021875 0)
(-0.007542742465 -0.1053205323 0)
(-0.004141015131 -0.1027686905 0)
(-0.004043433553 -0.102496618 0)
(-0.004066137685 -0.1031936895 0)
(-0.009368437427 -0.1038360234 0)
(-0.009378097153 -0.104172428 0)
(-0.009032491045 -0.1041823133 0)
(-0.009022891941 -0.1038458441 0)
(-0.009042120119 -0.1048557393 0)
(-0.009392474602 -0.1048454547 0)
(-0.008007444431 -0.1048852028 0)
(-0.008343227983 -0.1048763142 0)
(-0.008264646326 -0.1025214494 0)
(-0.008285584497 -0.1028579392 0)
(-0.007935390388 -0.1028683441 0)
(-0.009325067646 -0.1024893629 0)
(-0.009336074912 -0.1028267902 0)
(-0.008986848861 -0.1028371021 0)
(-0.008974091264 -0.1024997922 0)
(-0.009011558188 -0.1035099931 0)
(-0.009358161684 -0.1034999513 0)
(-0.007760545019 -0.09748168211 0)
(-0.007400839303 -0.09749301131 0)
(-0.007520279459 -0.09950775933 0)
(-0.007848667047 -0.09949954093 0)
(-0.008473423971 -0.1082410621 0)
(-0.008146772165 -0.1082480985 0)
(-0.009496877231 -0.1082127018 0)
(-0.009151402168 -0.1082227709 0)
(-0.009367442076 -0.1092782449 0)
(-0.009011199309 -0.1092925352 0)
(-0.009102086069 -0.1089122632 0)
(-0.009452141221 -0.1089004219 0)
(-0.005878932434 -0.1094943173 0)
(-0.005825289783 -0.1091750763 0)
(-0.006226712585 -0.1091468423 0)
(-0.006382939459 -0.1094264745 0)
(-0.006103516255 -0.1085143714 0)
(-0.005765719854 -0.1085169961 0)
(-0.00786143566 -0.1082534024 0)
(-0.005664742098 -0.1068240943 0)
(-0.005768494098 -0.107093969 0)
(-0.005353614109 -0.1071807574 0)
(-0.005332334219 -0.1068461575 0)
(-0.005399474385 -0.1081901316 0)
(-0.005380831977 -0.1078561382 0)
(-0.00435800077 -0.1082091586 0)
(-0.004337875479 -0.1078740214 0)
(-0.004682350419 -0.1078696215 0)
(-0.004699946651 -0.1082052138 0)
(-0.007589496404 -0.1028782384 0)
(-0.004313046005 -0.1032356946 0)
(-0.004230735623 -0.1055231833 0)
(-0.004584915132 -0.1055142197 0)
(-0.004596093329 -0.1058517043 0)
(-0.004242514606 -0.1058606491 0)
(-0.005305622066 -0.1065149226 0)
(-0.005560473312 -0.1065529203 0)
(-0.004221684002 -0.1051851935 0)
(-0.004579283499 -0.1051746194 0)
(-0.007702729435 -0.1048906125 0)
(-0.009281735107 -0.1011438914 0)
(-0.009291306769 -0.1014794844 0)
(-0.008936460117 -0.1014903482 0)
(-0.008925390412 -0.1011549274 0)
(-0.008961267165 -0.1021623591 0)
(-0.009313430641 -0.10215183 0)
(-0.008243516489 -0.1021848402 0)
(-0.008185373599 -0.09982852087 0)
(-0.008176753702 -0.1001673147 0)
(-0.009246041325 -0.09979630135 0)
(-0.009254032904 -0.1001334473 0)
(-0.008900623673 -0.1001442034 0)
(-0.008894443046 -0.09980687547 0)
(-0.008915355195 -0.1008185345 0)
(-0.009271201196 -0.1008075768 0)
(-0.007104476232 -0.1012164716 0)
(-0.007071261759 -0.1008844381 0)
(-0.007039337923 -0.1005672106 0)
(-0.007405543106 -0.1005331889 0)
(-0.007789665382 -0.1005194035 0)
(-0.00805993007 -0.1072437039 0)
(-0.007754689152 -0.1072513226 0)
(-0.007853323896 -0.1018614194 0)
(-0.007490248564 -0.1018731674 0)
(-0.00717396007 -0.1018820718 0)
(-0.007137741976 -0.1015489421 0)
(-0.00793543057 -0.1059072269 0)
(-0.007607137969 -0.105920078 0)
(-0.003944725665 -0.102221386 0)
(-0.003779392627 -0.1017544227 0)
(-0.009208827939 -0.09844819513 0)
(-0.009218943379 -0.09878514927 0)
(-0.008870090858 -0.09879538681 0)
(-0.008859725091 -0.09845844051 0)
(-0.008887699183 -0.09946956516 0)
(-0.00923748847 -0.09945923563 0)
(-0.008190307051 -0.09949003044 0)
(-0.008103712963 -0.09713535394 0)
(-0.00811903235 -0.09747045372 0)
(-0.009167879389 -0.09710283691 0)
(-0.009177953666 -0.09743847683 0)
(-0.008826916663 -0.09744897072 0)
(-0.008816093365 -0.09711341691 0)
(-0.008848923212 -0.09812157052 0)
(-0.009198587335 -0.09811124491 0)
(-0.007139985437 -0.09850716877 0)
(-0.007108557872 -0.09817238559 0)
(-0.007076750141 -0.0978378649 0)
(-0.007427163286 -0.09782745319 0)
(-0.007780893645 -0.09781674965 0)
(-0.007848887333 -0.09916157399 0)
(-0.007519031033 -0.09916990103 0)
(-0.007196629358 -0.0991774308 0)
(-0.007170240384 -0.09884211395 0)
(-0.008137512873 -0.1085884785 0)
(-0.008464436568 -0.1085821226 0)
(-0.008801115039 -0.108573206 0)
(-0.008753794967 -0.1089244251 0)
(-0.00865370701 -0.1093089318 0)
(-0.006751499223 -0.1094134271 0)
(-0.006631909171 -0.1090706934 0)
(-0.006952636978 -0.1094487223 0)
(-0.007880702663 -0.1085921371 0)
(-0.004717610445 -0.1085393631 0)
(-0.004376938896 -0.1085433933 0)
(-0.005414132365 -0.1085253147 0)
(-0.005514578617 -0.1095080472 0)
(-0.005464720888 -0.1091872469 0)
(-0.007384765682 -0.1038876311 0)
(-0.007349547764 -0.1035550339 0)
(-0.007315520788 -0.1032214597 0)
(-0.007621581078 -0.103213001 0)
(-0.007962104788 -0.1032036507 0)
(-0.004111637975 -0.1035175704 0)
(-0.004416115825 -0.1035159894 0)
(-0.004796014046 -0.1045443433 0)
(-0.004898545845 -0.1048162607 0)
(-0.004561960739 -0.1048399582 0)
(-0.004208615151 -0.1048491462 0)
(-0.008033990849 -0.1045453463 0)
(-0.007727948741 -0.1045509855 0)
(-0.007456458208 -0.1045523477 0)
(-0.007421068297 -0.1042212593 0)
(-0.00387570387 -0.1055327374 0)
(-0.003863301478 -0.1051961681 0)
(-0.006955345725 -0.09650160423 0)
(-0.006984424512 -0.09683639832 0)
(-0.006664487949 -0.09684623132 0)
(-0.00663283901 -0.09651158037 0)
(-0.007014166217 -0.09717035729 0)
(-0.006696034725 -0.09717982053 0)
(-0.007180261411 -0.09985505378 0)
(-0.007011014745 -0.1002861407 0)
(-0.006964408624 -0.099824354 0)
(-0.009138742734 -0.1096405951 0)
(-0.008772486879 -0.1096551989 0)
(-0.00910876168 -0.1106193944 0)
(-0.008747586282 -0.1106282013 0)
(-0.008731764137 -0.11029105 0)
(-0.009094899173 -0.1102828082 0)
(-0.007679106626 -0.1106366105 0)
(-0.007654129343 -0.1102859645 0)
(-0.008004087381 -0.1102944226 0)
(-0.008028089325 -0.1106363291 0)
(-0.008406295377 -0.1072338575 0)
(-0.008759082711 -0.1072232461 0)
(-0.008780190986 -0.1075591669 0)
(-0.008798428339 -0.1078954281 0)
(-0.005697114669 -0.1075200486 0)
(-0.005952047343 -0.1075590461 0)
(-0.007346702673 -0.110636999 0)
(-0.007360109151 -0.1102632256 0)
(-0.006264398505 -0.1106978351 0)
(-0.006266867009 -0.1103538466 0)
(-0.006642344223 -0.1103270517 0)
(-0.006631941533 -0.1106769266 0)
(-0.006402808844 -0.1097820413 0)
(-0.006016463514 -0.1097872515 0)
(-0.00724634603 -0.1025515275 0)
(-0.007210807974 -0.1022163093 0)
(-0.006797641235 -0.09818099642 0)
(-0.006763394773 -0.09784661476 0)
(-0.006831712089 -0.09851557152 0)
(-0.007045074659 -0.0975039665 0)
(-0.006729230118 -0.0975130449 0)
(-0.007209300474 -0.0995141796 0)
(-0.006933240714 -0.09951606077 0)
(-0.006899734893 -0.09918472543 0)
(-0.00686572662 -0.09885014837 0)
(-0.008809296721 -0.1082324213 0)
(-0.005803645929 -0.1088430562 0)
(-0.00615183688 -0.1088360969 0)
(-0.006481200405 -0.1088176371 0)
(-0.006358728587 -0.1085532975 0)
(-0.005365193729 -0.1075198582 0)
(-0.005014745085 -0.1075261365 0)
(-0.005001651058 -0.1071880855 0)
(-0.004985314681 -0.1068525164 0)
(-0.007281126846 -0.1028867694 0)
(-0.004965122483 -0.1061780431 0)
(-0.004945398992 -0.1058443342 0)
(-0.005279578313 -0.1058220276 0)
(-0.005382605804 -0.1060901709 0)
(-0.004919776895 -0.1055125013 0)
(-0.005175258635 -0.1055502287 0)
(-0.004972911912 -0.1065161351 0)
(-0.004999126459 -0.105085483 0)
(-0.007488917121 -0.1048586586 0)
(-0.01059892373 -0.01879857108 6.868117186e-14)
(-0.006839106621 -0.01156366219 4.220235272e-14)
(-0.02240537653 -0.04654761097 1.7069679e-13)
(-0.0186594967 -0.03666906075 1.343092304e-13)
(-0.01850789092 -0.03735203291 1.331434962e-13)
(-0.02563903473 -0.05651167381 2.074451722e-13)
(-0.0306289418 -0.08290055891 3.047978536e-13)
(-0.02986108011 -0.07506736401 2.75932055e-13)
(-0.03004831545 -0.07748279443 2.771810559e-13)
(-0.03045068081 -0.08933160514 3.284178485e-13)
(-0.02744556351 -0.09701558661 3.56312202e-13)
(-0.02755850024 -0.09980120073 3.567424134e-13)
(-0.02476168214 -0.09527585426 0)
(-0.02190398192 -0.09536448499 0)
(-0.01904984886 -0.095453004 0)
(-0.02047635215 -0.09540876214 0)
(-0.01195163514 -0.02352626314 7.746581154e-14)
(-0.008005971014 -0.01503034285 4.943268017e-14)
(-0.02391400086 -0.0550388414 1.818267759e-13)
(-0.02017977995 -0.04396270284 1.450783937e-13)
(-0.02036266529 -0.04558063977 1.46826995e-13)
(-0.01929963096 -0.03994123396 1.386946114e-13)
(-0.02708048235 -0.06607559289 2.184780135e-13)
(-0.03161972235 -0.09450729746 3.128747261e-13)
(-0.03103439108 -0.08622500631 2.854105841e-13)
(-0.03107576464 -0.0887383006 2.867012183e-13)
(-0.0302475591 -0.0799433435 2.785272013e-13)
(-0.0312397801 -0.1011214682 3.347322419e-13)
(-0.02781379203 -0.1083275061 3.582273367e-13)
(-0.02770450499 -0.1110273018 3.583661146e-13)
(-0.02767414096 -0.102597241 3.571726248e-13)
(-0.02508615268 -0.1060591767 0)
(-0.02222457377 -0.1061399732 0)
(-0.02218316544 -0.1047919358 0)
(-0.01936654888 -0.1062282383 0)
(-0.01932546326 -0.1048805039 0)
(-0.02075384401 -0.1048362033 0)
(-0.02079511737 -0.1061839317 0)
(-0.01920552157 -0.1008411435 0)
(-0.02063308876 -0.1007968683 0)
(-0.02067294612 -0.1021433883 0)
(-0.01924506602 -0.1021876733 0)
(-0.01358977004 -0.1037098809 0)
(-0.01288132445 -0.1037314441 0)
(-0.01286205974 -0.1030583826 0)
(-0.01357037821 -0.1030367607 0)
(-0.01144960207 -0.1031010569 0)
(-0.01146886482 -0.1037740559 0)
(-0.01139201318 -0.1010804251 0)
(-0.01141100404 -0.1017527435 0)
(-0.01052395867 -0.02283121306 6.84036161e-14)
(-0.006847736198 -0.01416798223 4.241051954e-14)
(-0.02202171688 -0.05582691203 1.67754699e-13)
(-0.0183739799 -0.04410446413 1.324079735e-13)
(-0.01717124239 -0.04216970964 1.237759895e-13)
(-0.01998651945 -0.04580381291 1.440514374e-13)
(-0.02518002863 -0.06764315768 2.034344915e-13)
(-0.03018224742 -0.0991127233 2.984557046e-13)