/*--------------------------------*- C++ -*----------------------------------*\
| =========                 |                                                 |
| \\      /  F ield         | OpenFOAM: The Open Source CFD Toolbox           |
|  \\    /   O peration     | Version:  v2012                                 |
|   \\  /    A nd           | Website:  www.openfoam.com                      |
|    \\/     M anipulation  |                                                 |
\*---------------------------------------------------------------------------*/
FoamFile
{
    version     2.0;
    format      ascii;
    class       surfaceScalarField;
    location    "3.07";
    object      phi;
}
// * * * * * * * * * * * * * * * * * * * * * * * * * * * * * * * * * * * * * //

dimensions      [0 3 -1 0 0 0 0];
oriented        oriented;


internalField   nonuniform List<scalar> 
5999
(
0.00042194638
0.9162280536
0.0005108588579
0.9166110875
0.0005854099395
0.9165754489
0.0002854177001
0.9166073428
0.000342649445
0.4583389108
0.0002965069458
0.4583115562
0.0003624696911
-0.0003740258525
-0.0004612209625
0.4582888508
0.0005223701183
-0.0005810185011
0.4582376875
0.0006783309945
-0.0007851168047
0.4582132884
0.000901828377
-0.001037746482
0.4581864984
0.001186248098
-0.001339067218
0.458178983
0.001495084261
-0.001651596988
0.4582001045
0.001782992474
0.001158467091
0.9150695865
0.00181498665
0.915954568
0.002021882549
0.916368553
0.0005347076708
0.9171931612
0.0009013564609
0.4581000005
0.000642141126
-0.458207434
-0.4581948956
-0.0007925096428
0.4580045432
0.0009828620721
-0.4580536269
-0.001220794199
0.4577643006
0.0007112741619
0.0007988463608
-0.2289665391
-0.0008712527371
0.2288889691
0.0009488227928
-0.001288073898
-0.2289024332
0.2287986819
0.00139182521
-0.001830003731
-0.2288419665
0.2287026299
0.001969340308
-0.002492106476
-0.2288145682
0.2286549678
0.002651706965
-0.003182573172
-0.228849583
0.228751422
0.003280713033
0.001457205762
0.9136123808
0.003936886119
0.9134748876
0.006669412753
0.9136360264
0.00268271715
0.9150665205
0.006113336319
-0.4580734981
0.4579285993
0.002827616034
-0.4578471188
-0.002779413267
0.4585296347
0.002096897335
-0.4573720456
-0.002141272008
0.4571834578
0.001129365384
0.001200494461
-0.2285141265
-0.001415920325
0.2283519727
0.001578074103
-0.2282746308
-0.002167421163
0.2280427422
0.002399309756
-0.2281043966
-0.002350220269
0.2322310072
-0.001779266082
-0.2358522253
0.01601893861
0.2397595897
-0.01993953513
-0.2343823513
0.02854931054
0.2361281933
-0.03030503942
0.0004431325004
0.9131692483
0.0009762008555
0.9129418193
0.00209517023
0.912517057
0.002992857891
0.9122282945
0.001940538383
-0.4572075976
0.4568210167
0.00337943878
-0.4601159271
-0.004541478096
0.4571206074
0.007536797829
-0.4587170387
-0.008735980867
0.4603409578
0.001876635504
0.005235426252
-0.2277595988
-0.001823080661
0.2275788882
0.002003791279
-0.2295928917
-0.001103203899
0.2351421459
-0.004453320804
-0.2478221717
0.02049475476
0.2524603294
-0.02516545836
-0.2498877431
0.03602173758
0.25230795
-0.03847682032
-0.2398877658
0.04265845766
0.2403987857
-0.04318940214
4.851101454e-05
0.9131207373
0.000144178097
0.9128461522
0.0003830623251
0.9122781728
0.001056078618
0.9113096411
0.0002456370352
-0.4565942382
0.4558304693
0.001819847484
-0.4557521083
-0.002195427983
0.4551824071
0.002765129212
-0.4543288185
-0.003558179914
0.4536371099
0.002271105238
0.001978783316
-0.2282955642
-0.004051958666
0.2270566243
0.005290371775
-0.2513847739
0.005151767473
0.2580283668
-0.01183473728
-0.2631037553
0.0264488755
0.2653859521
-0.02878898194
-0.2552607579
0.03110891492
0.2545688738
-0.03046415915
-0.2386898633
0.0257810836
0.2367798596
-0.02389336277
-0.0002312467121
0.913351984
-0.0003697835488
0.912984689
-0.0002748071987
0.9121831964
2.895495925e-05
0.9109917737
1.410527825e-05
-0.4549967714
0.4547316594
0.0002940669977
-0.4547330996
-0.001206699131
0.4540253003
0.001914498403
-0.4528998281
-0.002395133922
0.4519671301
0.001632816267
0.001695015687
-0.237127254
0.001035291118
0.2404736248
-0.00440240115
-0.2642056573
0.01346178538
0.2664269969
-0.01574781704
-0.2676021579
0.01692282765
0.2654328077
-0.0148252865
-0.246617578
0.004410622328
0.2465801249
-0.004415624271
-0.2263834301
-0.01162484436
0.2223931618
0.01560462442
-0.0006394114129
0.9139913954
-0.00115150971
0.9134967873
-0.001515847984
0.9125475347
-0.0002944594261
0.9108014441
-0.001031058952
-0.4546426115
0.4543773839
-2.923189578e-05
-0.4530303861
-0.0001620110953
0.4527095893
0.0004828079015
-0.4516577258
-0.001401352121
0.4515049619
0.0008207243595
0.0007330642847
-0.2472259978
0.003029709085
0.2490944892
-0.004937403799
-0.2730256342
0.009229780241
0.2695946677
-0.005879900408
-0.2604923782
0.005250740162
0.2587311254
-0.003560278764
-0.2283127965
-0.006848858503
0.2217551399
0.01338221743
-0.2103309736
-0.0331377267
0.1069037691
0.1011993484
0.01554977547
0.01981580732
-0.001061247242
0.9150526426
-0.002069371907
0.914504912
-0.002881608646
0.9133597715
-0.001535157149
0.9115459759
-0.002090983294
-0.4543838676
0.4544208847
-0.001572174221
-0.452586764
0.001659133562
0.4525243357
-0.001596705209
-0.4508739032
0.001468152769
0.4515170144
-0.0007298717146
-0.001386066569
-0.2518004338
0.0007208834204
0.2517874311
-0.0007565345584
-0.2694074637
0.00032787662
0.2691127166
-0.0001185524659
-0.2531429419
-0.001911817743
0.2519844409
0.003002253196
-0.2105270477
-0.007248633562
0.2088499272
0.008917654114
-0.09472049439
-0.005904878523
0.09472877806
0.005896594859
-0.001473479073
0.9165261217
-0.002873381501
0.9159048144
-0.0043392411
0.9148256311
-0.002549998633
0.9128521471
-0.003095413717
-0.454652048
0.4548736151
-0.002771565699
-0.4526321018
0.0030228217
0.452865717
-0.003256436839
-0.4518929594
0.0034666303
0.4525825057
-0.001998579315
-0.002167560254
-0.2526989174
0.002752845208
0.2527107115
-0.002821303361
-0.2672399381
0.002195548123
0.2666935622
-0.001741591524
-0.2487825642
4.979989808e-05
0.2481754299
0.0004881285948
-0.2076486559
-0.001362260327
0.2079405897
0.001066598141
-0.09833787684
0.001079868355
0.09885361367
-0.001595605187
-0.001847496342
0.9183736181
-0.00380222617
0.9178595443
-0.005685108913
0.9167085138
-0.003558167611
0.9148385908
-0.004113384917
-0.4552945026
0.455710508
-0.003974173063
-0.4531765277
0.004446306467
0.453711551
-0.004981329693
-0.4533983863
0.005483898958
0.4546438168
-0.00317360817
-0.003571406927
-0.2527124074
0.004062433652
0.2528032552
-0.004216360627
-0.265377905
0.004018413386
0.2650412126
-0.003780786541
-0.2470457353
0.002916362065
0.2467576272
-0.002700078327
-0.2093427002
0.002696602122
0.2098289134
-0.003185041315
-0.1012172744
0.002765875298
0.1014488059
-0.001484998432
-0.001512408339
-0.002306301674
0.9206799197
-0.00459702337
0.920150266
-0.007017301213
0.9191287917
-0.004535781021
0.9174336409
-0.005076570358
-0.4563135049
0.4569130586
-0.005135334649
-0.4543159296
0.005862221844
0.4549826228
-0.006528915075
-0.4562685205
0.007296936386
0.4582010624
-0.004525040237
-0.004728593373
-0.2532141295
0.005320012017
0.2533902983
-0.005566553004
-0.2642485271
0.00572060918
0.2640454113
-0.005623515316
-0.2461365689
0.005246602375
0.2459938301
-0.005177848526
-0.2113705914
0.005446746267
0.2119154191
-0.005992461903
-0.1027951743
0.003906783438
0.1029443933
-0.002014056878
-0.002041945616
-0.00272434485
-0.005460338201
-0.008310104261
-0.005424733944
-0.4576659285
-0.006165367578
-0.4558503862
0.007019221914
-0.007930161739
-0.4602300191
0.008915876709
-0.005551905202
-0.004951846078
-0.2540311835
0.006554943507
0.2543030715
-0.006905238578
-0.263585649
0.007342034131
0.2634747857
-0.007344194256
-0.2457063824
0.007202594614
0.2456292702
-0.007200942153
-0.2137401063
0.007615223482
0.2144400114
-0.00831521824
-0.1039138739
0.005141168799
0.1040608079
-0.002624878203
-0.002663224634
0.0007070546791
-0.001276783766
-0.09776814775
0.002608768928
-0.1009725798
-0.001414759074
-0.001438704455
0.003771452767
-0.102633751
-0.001955548111
-0.001977327907
0.004971061233
-0.103771817
-0.002538988794
-0.00257412932
-0.007480119202
0.007834339574
-0.09507471477
0.001820168265
-0.002329328466
-0.2088361181
0.101561659
-0.1013131226
0.002360232476
-0.09889490268
0.0006363953033
0.09933837573
0.004826495443
-0.005355791237
-0.2108424709
0.1031416276
-0.1029724633
0.003602288453
0.002535956774
0.1017915776
0.1020854824
0.00322014405
-0.1018881962
-0.001698411737
-0.001719018549
0.05073081579
-0.001105243383
-0.05050085588
0.002055996402
-0.001180712932
-0.05007782576
-0.0008983675474
0.001757184803
0.05010467495
-0.0008856664424
0.007116064488
-0.007763773073
-0.2130926583
0.1043491013
-0.104195203
0.004817162953
0.003749128284
0.1032992828
0.1033683267
0.00433324262
-0.1032293367
-0.00222114983
-0.002251082792
0.02566356901
-0.001063741355
-0.02573375881
0.001133931153
-0.0506299004
-0.001044983052
0.002173133566
0.05062822476
-0.001126474867
0.004978880792
0.1045113893
0.05233964298
0.002857673526
-0.002907965872
-0.05228935063
0.02729805671
-0.002073189663
-0.02705392018
0.001829053134
-0.02655725567
-0.001059536585
0.001225437456
0.0263913548
-0.04580228346
0.001592213979
0.04635799238
-0.001082406151
-0.001065516752
0.04894211173
0.001869657751
-0.04860407048
-0.001178431725
-0.001029267275
-0.003369682795
-0.04223524215
0.04232886801
0.00327605694
0.001378246674
-0.00195159513
-0.045228935
-0.0008643422261
-0.05004525498
0.001721133099
-0.0008893616476
-0.001624804944
-0.04951461705
0.001566191195
0.0495732308
-0.1000827588
0.002067951338
0.1004115635
-0.002396755997
-0.04934896335
0.04935939339
-0.0007838676377
-0.0008513673442
0.02512374186
-0.0008663243201
-0.02512175977
0.001795467645
0.04911102668
-0.001066560995
-0.0008978216007
0.001605164787
-0.04933992224
-0.0007897310399
-0.0008244748524
-0.001051524844
-0.05067624378
0.002122137327
-0.001024269105
-0.001164561004
0.002038918443
0.05085338442
-0.0009969260609
0.003360536851
0.1022824533
-0.001767216362
-0.001790291333
-0.02571510407
0.02577413625
-0.001223593182
0.02512458587
-0.0009873937202
-0.02518871699
0.02510184145
-0.0008764671361
-0.001313830795
-0.02550651665
-0.001100712838
-0.02669340425
0.001236861422
-0.001072650485
0.001151371765
0.02558484773
0.004484681096
0.1035036259
-0.002292744709
-0.002327235648
-0.02585917978
0.02570935664
-0.0009228273454
0.02717044246
-0.0008577574512
-0.02741339785
0.02509554158
-0.001015938767
-0.000915347452
-0.02600757368
-0.001506608714
0.001564394831
0.0272402706
-0.00295428514
-0.02781684722
0.02761789946
-0.001307660948
0.02689623979
-0.0007853339129
-0.002312875126
-0.02757716176
-0.00264282946
0.00260837283
-0.2076185426
-0.09842447654
0.0002366285459
-0.09630961556
-0.005801734946
0.09620647198
0.09589359033
-0.00193397495
0.001347454704
-0.09530707009
0.04602929371
-0.04554670196
0.0008956549269
-0.04308065255
-0.003455238671
0.04316620842
0.001867005404
-0.002230455303
-0.09971930893
-0.04946710924
0.001557656974
-0.04873828274
0.001601789353
0.04893196103
-0.04848274113
0.001614116148
0.001144015832
0.04647749185
-0.0009823158762
0.09651686602
0.0003590401894
-0.02132850737
2.679404231e-05
0.02119684135
0.0001048719727
-0.002116809444
-0.01767721443
0.0175947017
0.002199322167
0.002008883418
0.0202677406
-0.002194888798
-0.02008173522
-0.02468932524
-0.09692705953
0.04752566524
0.04612914167
0.01399915012
0.01396242774
-0.00428285474
0.004941858798
-0.04289424621
-0.001180226722
-0.025153166
0.001334362141
0.02499903058
-0.05157026799
0.002875292757
0.05159255985
-0.002897584616
0.05170412937
0.003024942696
-0.003060597397
-0.05166847467
0.005455023458
-0.02077864545
0.02933591797
-0.01401229598
-4.180349154e-05
-0.02143701806
0.0001503141902
0.04755030451
0.001815379823
-0.04721759987
-0.001080870698
-0.001067213766
0.0235605014
-0.02391141834
0.0003091134524
-0.02275875094
0.003738139822
0.02447563458
0.02373664093
-0.02590134386
0.002198838624
-3.413569575e-05
0.0003820655269
0.02320522992
0.001844271941
0.04785432682
-0.001068147048
-0.001080147198
0.04339480628
-0.0005984947136
1.263374028e-05
-0.04280894531
0.02071392187
-0.02028400413
0.001578965685
-0.01877780205
-0.001716172227
0.01837716483
-0.003838358203
-0.02199743376
0.003077041019
-0.002651320333
0.001994420028
0.02137082217
0.0001554944808
0.04402360269
-0.0007842908923
0.02085010837
-0.003233688102
-0.003747916483
-0.02086908717
0.02507939092
0.0008593658258
-0.0009518635853
-0.02498689316
-0.02166750532
0.0001069123753
0.0215898278
-2.923485411e-05
0.0008930141153
0.02511602084
-0.0009296440367
0.04928017262
0.00165863177
-0.04924162992
-0.0008783565147
-0.0008188179528
0.02222197583
-0.02226977257
0.0001084969134
-6.070017868e-05
0.0007345511699
0.02298372355
1.83662111e-05
-0.02173736818
0.0001087914733
-3.892861137e-05
0.0001128964626
0.02215098636
-4.190699103e-05
0.001635253537
0.04931143212
-0.0008518478168
-0.0008146652251
0.02560176261
0.0009587648994
-0.0009342361046
-0.0256262914
0.001028508629
0.02551813374
-0.0009448797567
0.02501679693
0.0009506523348
-0.0009384639539
-0.02502898531
0.0009557514569
0.02501064
-0.0009495945278
0.02494608722
0.001383052361
-0.001440799397
-0.02488834019
0.001636470852
0.02525899598
-0.00194937961
0.02669985506
0.001303311924
-0.001517125017
-0.02648604196
0.001193851773
0.02674918426
-0.001243180971
0.003067705354
-0.003095068503
0.02488063942
0.001126088199
-0.0008404666935
-0.02516626093
0.02461484822
-0.0009144355234
-0.04449902488
-0.0148724544
0.04071421561
-0.003213350961
0.003287934036
-0.0177517975
-0.02605865601
0.001162687059
0.02608982073
-0.05120425874
0.002203981921
0.05123248496
-0.002232208138
0.05129940798
0.002308267413
-0.002330040759
-0.05127763464
-0.05107783418
0.002084521754
0.05111139823
-0.002118085805
0.002178570101
-0.002208240855
-0.05117458799
-0.02594423651
0.001188892419
-0.0515117822
0.002679117544
0.05152805036
-0.002695385703
0.002819661069
-0.002832597972
-0.05155733109
-0.02532320038
0.001296122577
-0.05080105851
-0.0009795251475
0.002048820865
0.05076027142
-0.05093298837
0.001966680119
0.05097286637
-0.002006558123
0.00205210036
-0.002086934461
-0.05104300008
0.0242698675
-0.0003569702585
-0.0245527057
0.0006398084555
-0.0003457922574
-0.02536242055
0.0006128800338
0.02509533278
-0.02536106953
0.001024669961
0.02529814673
-0.0009617471598
-0.0252576891
0.00144070975
0.0254534502
-0.05138813982
0.002529856127
0.05140707498
-0.002548791283
0.00263608943
-0.002656714043
-0.05149115759
0.002345951887
0.05132098773
-0.002367531636
0.002467955229
-0.00249111242
-0.05136498263
-0.02520058215
0.001325945408
0.02525010291
0.001095931265
-0.000940662659
-0.02540537152
0.0246907908
-9.588596816e-05
-0.02497016356
0.0003752587342
-0.02570997243
-0.0001462868882
0.0003946684318
0.02546159089
0.02299341008
-0.02314857407
0.0001739991472
-1.88351498e-05
-0.02655264808
0.002281225621
0.02425567548
1.574697657e-05
-0.02730710067
0.001674784044
0.02759534975
-0.001963033124
0.02532666398
0.001309984491
-0.001495530735
-0.02514111773
0.02347991933
-0.00221272199
-0.02343627747
0.002169080137
-0.0004155635864
0.0007070117881
0.0239784193
-0.000138589982
-0.0259599879
0.0003886054545
-0.0001229853512
-0.02671550471
0.0003781599374
0.02646033012
-0.02644591625
0.001045988727
0.02630174835
-0.0009018208225
0.02603509255
0.001058677402
-0.0007699308041
-0.02632383915
0.0224857273
-0.02260682247
0.0001097009725
1.139420211e-05
0.0001072107904
0.022847818
3.838128353e-05
-0.0195600663
0.004462955935
0.01505238686
4.472351555e-05
-0.02457061058
0.002615979781
0.02545820132
-0.003503570523
0.01917070281
0.001357893984
-0.02060958037
8.09835752e-05
0.004306616669
0.0147872768
7.680933995e-05
0.01836211815
0.0001613733743
-0.0005226063996
-0.01800088512
0.0007719048368
0.01889305525
-0.001302841944
0.02190321292
0.0006159904349
-0.02264897828
0.000129774926
0.0001609830349
0.02165413806
8.809182326e-05
-0.02507704307
0.0006043695874
0.02463365651
-0.02421990842
0.001206742003
0.02416853453
-0.00115536811
0.02381164148
0.001109051695
-0.0009815267927
-0.02393916638
-0.02316359859
0.001525138236
0.02359464428
-0.001956183926
0.001294965539
-0.001346334642
-0.02416853931
-0.02554854359
0.001087490961
-0.02151025121
0.004309003285
0.0215078646
-0.02402958856
0.001709605664
0.02464355723
-0.002323574328
0.02639532346
0.001431224842
-0.001757104508
-0.0260694438
0.001119162348
0.02370395808
-0.001011478952
0.001494772042
-0.001804880262
-0.02371948034
-0.02223725262
0.002084895395
-0.000955471598
-0.02297429409
0.00131306728
0.02261669841
-0.0221896871
0.001179334805
0.02231796985
-0.001307617554
0.00144029101
-0.001850485234
-0.02275340436
0.02309777889
0.001678647461
-0.001504032816
-0.02327239353
0.02245387924
-0.0003115719489
-0.02081997753
0.001475113223
0.01935585878
-1.099446363e-05
-0.02345024563
0.001612762698
0.02384852686
-0.002011043923
0.02728805321
0.002220891297
-0.003257167508
-0.026251777
-0.02382480855
0.0006824877514
0.02366020104
-0.0005178802454
0.00111893543
-0.001161460562
-0.0234077205
-0.02130003645
0.0004493310552
3.07278582e-05
-0.02725963866
0.0005488996153
0.02704079478
-0.0003300557371
0.02637737797
0.0005216297469
-0.000296553715
-0.026602454
0.001652156068
0.0276843767
-0.002048479561
0.0006103812757
-0.0003956333974
-0.02747438654
-0.02251084178
9.737346481e-05
0.02245220187
-3.873355515e-05
-0.0259727347
0.0007367133762
0.02578217714
-0.0005461558181
0.0252206435
0.0007027193425
-0.0005217697063
-0.02540159313
0.001141975416
0.02643754382
-0.001184195772
0.0007637984665
-0.0005775805629
-0.0261589526
-0.02258987769
0.0001010100891
-2.197418241e-05
-0.02194605653
5.966956248e-05
0.02185584484
3.054212502e-05
-0.02451427222
0.0006676473573
0.02433610598
-0.000489481117
0.0006701655776
-0.0005023420106
-0.02399263211
0.0006974313135
0.02504351059
-0.0005202984083
0.0006729039434
-0.000494669347
-0.02469250682
-0.02203002329
6.773548669e-05
1.62312729e-05
-0.02696049867
0.0003646693794
0.02672139323
-0.0001255639419
0.02602174814
0.0003128219672
-7.825264528e-05
-0.02625631746
-0.02785590015
0.002120183088
0.02794654094
-0.002210823874
0.0004383606269
-0.000163123474
-0.02723573582
-0.02509973936
0.02487340236
-0.0001194552534
0.02415442983
-0.0001007427696
-0.02441065732
0.0003134680554
0.02578658201
-7.830193265e-05
0.0003418848147
-0.0001166004673
-0.02532502371
-0.02537967382
0.0005259094539
0.02512366833
-0.0002699039667
0.02434455231
0.0005513803665
-0.0002886078489
-0.02460732483
0.0005124024454
0.02613315589
-0.0002681803699
0.0005195694891
-0.0002661234117
-0.0256331199
-0.0232890925
0.002103310411
0.02334517128
-0.002159389186
0.003365360971
-0.004652867016
-0.0265683941
0.0005771211191
0.02407812024
-0.0003106890456
0.00125261836
-0.00101882716
-0.0235228837
-0.0005060322996
0.02304709843
-0.02365600581
0.001114939678
-9.308522607e-05
0.0003853952116
0.02439848081
0.00111161281
0.02509954723
-0.0009610571244
-0.0221823886
0.02206057879
2.872459036e-05
0.02118547948
-0.02169485788
3.346097128e-06
-0.02259874814
0.02249342189
-4.096063727e-05
-0.0223114895
3.32149273e-05
0.001521280631
0.01967480362
-1.060476265e-05
0.00193775512
-0.00257144362
-0.02667341217
-0.03129662124
0.004765066193
-2.109303228e-05
0.002270933903
0.02229744516
-0.002258888443
0.02804345464
-0.02796502378
0.002180457586
-0.004546414555
0.003382261022
0.02464407286
0.001445647649
0.02562905805
-0.00174804172
-0.02219915294
0.02220051038
-0.004547771992
0.02435048266
-0.02660676577
-2.605331701e-06
0.02386415968
-0.0001252934422
-0.001500190242
-0.02291168469
-0.023016103
0.0229098868
-1.67691553e-05
-0.0227032572
-3.408091303e-05
0.0007920030064
0.02356592676
-7.447106745e-06
0.0001297600438
-0.02313067173
-1.519130984e-05
0.001047524408
-0.0009129586194
-0.02658048204
-0.0269833829
0.0003976382314
0.001176326094
0.02765913155
0.02197538252
-0.02211142418
0.0001603105207
-2.426886182e-05
0.0001208678633
0.02236645622
-1.596785715e-06
0.001069818665
0.02574499145
-0.0007797175614
0.002065989416
-0.002319684059
-0.02431691594
-0.02109402927
0.001465163061
6.879990889e-05
0.000198821209
0.02181797054
-4.14092252e-05
-0.05020088459
-0.000983326101
0.001897212244
0.0502427499
-0.05053875835
0.001736472227
0.05059218547
-0.001789899342
0.0507587881
0.001827885263
-0.001881899802
-0.05070477356
0.00159390248
-0.0503120323
0.0503711552
-0.001653025381
0.001699314375
-0.001757771738
-0.05048030099
-0.000944029574
-0.05016771311
0.001861510427
0.001857430727
0.05081088382
-0.00190952645
0.001943464688
-0.001980746573
-0.05089570648
-0.001033748817
-0.05083597798
0.002027433192
0.02582359188
0.0009404697571
-0.0009583445752
-0.02580571706
0.02751964782
-0.02777783025
0.0006965430513
-0.02772774452
0.001767822447
0.02808010517
-0.02672092433
0.002358540781
-0.02401883894
0.001742283324
0.02437986603
-0.02505958238
0.00107585184
0.02516725572
-0.001183525173
0.0001989709912
0.02107270408
-7.483371677e-05
0.02482462098
0.004367967826
0.0001433291622
-0.01432938101
0.0003170850273
-4.569219633e-05
-0.02156158572
0.0001702598524
0.0003156601755
-0.02427277072
0.02409819509
-0.02449781604
0.0007152811315
0.02370673743
0.000700571109
0.004589906218
-0.03046425212
-2.699796085e-05
0.02696450242
-0.02569873381
0.003324137607
0.02706562392
0.00209771713
0.02333277357
0.000756029388
-0.0005805103423
0.02298657727
0.0009267066469
0.02282369057
-0.02111202835
0.0007646531679
0.02138086815
-0.001033492971
0.001033499463
-0.001281843019
-0.02194134355
-0.02292992717
0.001634280541
-0.004594711776
0.02229195777
0.003152862374
-0.01925484622
0.02709167944
-0.01243154499
-0.003052567917
-0.0194359664
-0.01831965089
0.0002423534004
0.00101747903
-0.01960395448
0.0002668245587
-0.02169323087
0.001841622731
0.01496627042
-0.01488831503
-7.795538522e-05
0.03077278237
-0.02169549126
0.005888979315
0.02621099764
0.004578190943
-1.640621362e-05
0.02334443947
-0.02353913008
0.0003016029851
-0.0001219043866
0.02311650327
0.0003498405863
0.02149993821
-3.201479456e-05
0.02268568431
-0.0227539016
0.0001245878166
-5.637052342e-05
0.02263676736
0.0001144183965
-6.550144758e-05
0.02404237189
0.002191694679
-2.306893429e-05
0.02330494344
0.0007659999254
-2.857147e-05
5.92528068e-05
-0.0223701782
4.115282123e-05
0.02521247778
-0.02542962656
0.0002764015852
0.02502648245
0.0002944922471
0.02670140932
0.001098765771
-0.0002397111801
0.02634852134
0.0005925991617
0.02271819094
2.582143028e-05
0.0001123996324
-0.02179537134
-5.439647515e-05
0.02371990565
-0.02389448888
0.0002869828646
0.0002895670401
0.02484084236
0.000298536551
-0.0001156914556
0.02465973808
0.000296795731
0.02208778673
-5.249182586e-05
0.02644455241
-0.02671821215
0.0005864817073
0.0006281520978
0.02725616511
0.001046595574
0.0257283083
-0.0009513120024
0.001003269802
-0.0009550654671
-0.02540927386
-0.02562886497
0.0006083292371
0.0005876516067
0.02617036885
0.02454366291
-0.0247519489
0.0007596663493
-0.02537307128
0.0007315683151
0.02516741242
-0.02507187289
0.0009308617102
0.02505303399
-0.0009120228144
0.02207805704
-0.02215539359
6.217177614e-05
1.516478153e-05
0.02199502546
6.457636731e-05
1.845521087e-05
0.02253053024
4.921691581e-05
5.702020904e-05
0.02245353142
4.928366098e-05
2.771515666e-05
-0.01511594756
0.01509028862
2.565893517e-05
0.02190705166
7.465952086e-05
1.331427447e-05
0.0001018265371
0.0217966677
8.557423336e-06
0.00103661989
-0.0010790133
-0.02501718897
-0.02401147256
0.00124525198
0.0007816603966
0.02433912364
0.0003939779477
-0.0001488435721
-0.02521529794
0.02523894706
0.0006914421277
-0.02553641124
0.02492517906
0.0006890267418
0.0003107646582
-0.02344821928
-1.111944669e-05
0.02717871397
-0.0275944773
0.0007265279877
0.02683566518
0.0005170479412
0.02802692265
-0.02800264902
0.002256951992
-0.0008059914327
0.001238436779
1.464766838e-06
0.02316767626
-0.02400012686
0.0008309133881
1.537219345e-06
0.0003464848977
-2.134307951e-05
0.0001022782512
-0.02272571308
1.661236061e-05
0.02589743853
-0.0262020713
0.0004069110168
0.02559377065
0.0004133688597
0.02651152374
0.0004313522339
-9.901777755e-05
0.0004084702149
2.308714238e-05
0.02630984837
-0.03106865897
0.004751884422
6.926169474e-06
0.0023014514
8.270113153e-06
0.02207540777
-0.02214968958
0.00453723775
-0.01502358655
0.006030335354
2.880030203e-05
0.0004279757784
3.514792875e-05
0.01478044303
6.833776354e-06
0.01654817156
0.0002132782076
-0.01588651912
0.01683895578
0.0009280743674
0.01982745108
-0.02367072761
0.002777235624
0.0172410463
0.001813687922
0.0007727168529
0.01689861963
0.001831796807
-0.009815173864
0.003043065881
0.002026581777
0.0001490609237
4.472764993e-05
4.782469154e-05
0.0237362755
-0.02267313299
0.003245860779
-0.005824055509
0.003861597195
0.001014413719
0.0226886222
0.001312368784
0.002100384607
-0.02295378724
0.02084244356
0.0006073108664
0.003737388632
0.0004005035645
0.00275695287
0.01342038457
0.0007680938188
0.0009888395756
-0.0002204703336
0.0009811187077
-0.02009261287
0.0002681880565
0.0004382587409
0.02161293348
-0.02225619695
0.002118376693
-0.004522576488
0.004440018702
-5.503274445e-05
0.0001707268606
2.91749021e-05
0.02277986737
0.0005073627691
0.0009730014739
0.02283311211
-0.02292190212
0.0001249746638
-3.618465055e-05
0.0001214076393
-4.219713203e-05
0.02304757337
0.0002801093905
-2.273932009e-05
0.0001546306928
-2.895944874e-05
0.02564317915
-0.02584773731
0.0003019316277
-6.826957314e-05
0.0002818221624
1.375410199e-05
0.0001176700416
1.064320953e-05
0.02607333261
0.0003928587714
0.000326605386
0.02407606221
-0.02427850689
0.0002621142355
-9.448097275e-05
0.0002760543045
-3.400747093e-05
0.0001047272956
-4.696385155e-05
0.02447802077
0.0002864446055
0.0002672493715
-0.0001062417381
0.02649260019
0.0003350347817
-0.02304147449
0.02295636041
-2.112766588e-05
-0.02313990218
-2.713624937e-05
-0.02285857965
0.02276862018
1.170682491e-05
8.114613605e-05
1.663462657e-05
0.0003174288642
-0.0007623674861
0.02757945439
0.001129454033
-0.02431105595
0.02353618455
1.250390807e-05
-0.02655039199
2.851216657e-05
-0.02327655824
-2.646740937e-05
0.0002933700067
-3.374369745e-05
0.0006370885759
-0.0001201157339
0.02464577788
0.0003477402116
-0.02231998982
0.0222330425
-3.316841687e-05
-0.02241089732
-2.854775424e-05
-0.02214105694
0.02202991823
1.039594113e-05
0.0001117359361
-1.97503701e-05
0.0003468564987
-8.376618686e-05
0.02555039342
0.0003199547822
-0.02267928948
0.02258132338
1.419991757e-05
1.102876554e-05
-0.02249958883
-2.790895409e-05
0.0001083529008
-2.661835579e-05
0.0003337226108
0.02222946929
5.510258484e-05
-0.02230614022
2.156833909e-05
6.09635506e-05
1.31121499e-05
-0.0002756217747
0.02486672851
0.0005325615945
-0.02487537934
0.02466072112
-0.02509018072
-0.02444232432
0.02421829283
0.0002805685795
0.0005399722657
0.02238424814
5.503921828e-05
1.424405917e-05
5.109273844e-05
2.701518568e-05
0.01963594031
0.001465714259
-0.02111669685
1.504228708e-05
0.004502697056
1.729569768e-05
-0.004481582736
0.02451653163
0.003310222386
-0.02209543199
0.02211654631
-0.02278910691
-0.03122304499
1.978598204e-05
0.005983789943
0.00393192747
-0.0003722075272
0.02380347198
0.0006468557836
-0.02398226331
0.02371188232
-0.02334494683
-0.0004629872472
0.0005471348745
-0.0001801993799
0.0008277231514
0.02159684191
1.962641388e-05
1.715780891e-05
0.0006312616284
-0.02407380557
-0.0002134618699
0.02393198006
-0.02426819722
0.0009674787876
0.02364353354
0.001403386193
0.02460092788
0.0007096463885
-0.0004478677909
0.0007805984541
-0.0001231925458
0.02192084709
1.653914526e-05
1.252734534e-05
0.0223935184
0.0001517371202
-5.183363229e-05
-6.681467132e-05
0.01511515799
0.00456873986
-9.094230557e-06
0.01516533552
-5.017753345e-05
0.006125772886
-0.02225705861
0.02677156761
-0.02476358461
0.004117789887
0.003533984783
0.0236456678
0.002268799643
-0.004609126413
0.003491209606
-0.01515704659
0.03131316482
0.00604439215
-0.01514476588
-1.228071118e-05
-0.01969973272
7.194850827e-06
0.004710318769
-3.919716853e-06
-0.0002117956587
0.02348324455
0.0005927107931
-0.0219031124
0.02169291414
-1.597400329e-06
1.512384987e-06
-0.02120103083
1.10786515e-06
0.0004963490264
-4.465712592e-06
0.001067908889
0.02280658925
0.000125532441
-2.223489168e-05
0.0001331264183
-2.97943692e-05
0.02328201398
0.0002959965686
-1.208379041e-05
0.0001647187886
-1.337653805e-05
0.0001383227618
-0.02224206122
-7.685728009e-06
0.02467431521
-0.02498519923
0.0004492067767
0.02435503102
0.0004795947112
0.0252906851
0.0004239534093
-0.0001285346174
0.0004340204909
-4.139610122e-06
0.0005541382703
-0.02158350902
-6.465852111e-05
0.02294618205
-0.02356795579
0.001175912009
0.002261655535
0.02400463698
0.0005492152561
-0.0002871368002
0.000723817986
-5.267528189e-05
-0.001287278567
0.001435525444
-0.2286623734
0.001965498235
0.2283511352
-0.2285456864
-0.001770946968
-0.2289935504
-0.001153422095
0.2288588986
0.002169486624
-0.2284786192
0.002880370151
0.2281064088
-0.2283677768
-0.002619002173
-0.2289355344
-0.001669387097
0.2287749177
0.003067667245
-0.2282917327
-0.007644284349
0.2347348169
-0.2303650239
0.003268728632
-0.22890355
-0.002301438064
0.2287128816
-0.01162790967
-0.2318761481
-0.02055025426
0.2355513325
-0.2331218048
0.01811261836
-0.2289154073
-0.002999861237
0.2287326954
-0.02242697803
-0.2325126114
-0.001697552601
0.001909124081
-0.2279711703
0.002685859315
0.2273572239
-0.2276364358
-0.002406647492
-0.001955187375
0.2281389014
0.0006008937971
-0.2275095797
-0.01603151796
0.2447564421
-0.239412027
0.01066669239
-0.002914541611
0.228670231
-0.02106519771
-0.2428135097
-0.03335200727
0.2508146992
-0.2472803483
0.02978701653
0.01163678851
0.2391049929
-0.03636456214
-0.2469051445
-0.04210661682
0.2430842212
-0.2417131309
0.04071354917
0.02623569713
0.2378531714
-0.04305571132
-0.2389565318
-0.008907331
0.01010459646
-0.2294928297
-0.008367124097
0.2467992679
-0.2395243651
0.001070368949
-0.002515161308
0.228767933
-0.0139591262
-0.2458242083
-0.02675024773
0.2621378926
-0.2585756784
0.02313792218
0.01541597589
0.2498068897
-0.02971191365
-0.2601946411
-0.03443109718
0.2586389408
-0.2578171609
0.03355996935
0.03297403531
0.2538260954
-0.03466472773
-0.2550725708
-0.03252208699
0.2428923392