/*--------------------------------*- C++ -*----------------------------------*\
| =========                 |                                                 |
| \\      /  F ield         | OpenFOAM: The Open Source CFD Toolbox           |
|  \\    /   O peration     | Version:  v2012                                 |
|   \\  /    A nd           | Website:  www.openfoam.com                      |
|    \\/     M anipulation  |                                                 |
\*---------------------------------------------------------------------------*/
FoamFile
{
    version     2.0;
    format      ascii;
    class       surfaceScalarField;
    location    "0.75";
    object      meshPhi;
}
// * * * * * * * * * * * * * * * * * * * * * * * * * * * * * * * * * * * * * //

dimensions      [0 3 -1 0 0 0 0];
oriented        oriented;


internalField   nonuniform List<scalar> 
5975
(
1.064052918e-05
-0.0001816244453
-1.026993644e-05
0.0003635380328
-0.0001822841803
-0.0007285285565
0.0001135394267
-0.000237552581
0.00146636059
-0.0007375934574
0.0001237745784
0.0003384001441
-0.001382306059
-0.0003238892219
0.001296538555
0.0002627082778
-0.0009514001086
-0.0002527527674
0.0008117633305
0.000128654815
-0.0003939455332
-0.0001214212094
0.0002730492458
-3.125972536e-05
1.055227015e-05
-8.3219356e-06
3.08634241e-06
0
0
0
0
0
0
0
0
0
0
0
0
0
0
0
0
0
2.984586593e-05
-0.0004025778706
-2.984583516e-05
0.0008078786511
-0.0004053008113
-0.001624766397
0.0002401203824
-0.0002384359379
0.001619595535
0.0002972210463
-0.001420641109
-0.000288610709
0.001310915978
0.0002212397703
-0.0008818033031
-0.0002050843743
0.0007252371739
9.132117312e-05
-0.0002941735839
-8.263732191e-05
0.0001891518214
-4.618750687e-06
1.655138439e-06
-7.530264387e-07
0
0
0
0
0
0
0
0
0
0
0
0
0
0
0
0
0
0
7.033097929e-05
-0.00177538465
-7.03309793e-05
0.00177538465
0.0002258425309
-0.001740941707
-0.0002178006145
0.001689502353
0.0002516539638
-0.001385489975
-0.0002377259091
0.001242480607
0.0001644028334
-0.0007537242757
-0.0001529020363
0.0005902697808
5.222164203e-05
-0.0001815110783
-4.225185598e-05
9.47830532e-05
0
0
0
0
0
0
0
0
0
0
0
0
0
0
0
0
0
0
0
0
0
6.591653143e-05
-0.001812879077
-6.063747816e-05
0.001781494841
0.0001802790319
-0.001595172641
-0.0001637221882
0.001498410201
0.0001846289108
-0.001115233402
-0.0001642784468
0.0009658538305
0.0001093943395
-0.0005106634095
-9.288766549e-05
0.000372715727
1.817513827e-05
-6.877001005e-05
-1.099066166e-05
1.889411634e-05
0
0
0
0
0
0
0
0
0
0
0
0
0
0
0
0
0
0
0
0
0
3.763028923e-05
-0.001365508817
-2.94864132e-05
0.001319172021
0.000107853426
-0.001092382784
-8.910810289e-05
0.0009916142128
0.0001008677677
-0.0006441184225
-8.041278189e-05
0.0005234396982
4.325108999e-05
-0.0001985785434
-2.862957096e-05
0.0001161487594
1.635584142e-07
-4.996005182e-07
0
0
0
0
0
0
0
0
0
0
0
0
0
0
0
0
0
0
0
0
0
0
0
1.032270659e-05
-0.0006310407971
-6.375403438e-06
0.0005978475226
3.986902379e-05
-0.0004407797974
-2.704400229e-05
0.0003753476023
2.790771854e-05
-0.0001738398506
-1.524843751e-05
0.0001147004067
1.499090841e-06
-6.600261748e-06
-4.233084331e-09
7.119720853e-08
0
0
0
0
0
0
0
0
0
0
0
0
0
0
0
0
0
0
0
0
0
0
0
0
0
7.407613974e-07
-7.727896425e-05
-1.956327468e-07
6.734489357e-05
2.848984271e-06
-2.670075421e-05
-2.398235321e-07
1.470514721e-05
0
0
0
0
0
0
0
0
0
0
0
0
0
0
0
0
0
0
0
0
0
0
0
0
0
0
0
0
0
0
0
0
0
0
0
0
0
0
0
0
0
0
0
0
0
0
0
0
0
0
0
0
0
0
0
0
0
0
0
0
0
0
0
0
0
0
0
0
0
0
0
0
0
0
0
0
0
0
0
0
0
0
0
0
0
0
0
0
0
0
0
0
0
0
0
0
0
0
0
0
0
0
0
0
0
0
0
0
0
0
0
0
0
0
0
0
0
0
0
0
0
0
0
0
0
0
0
0
0
0
0
0
0
0
0
0
0
0
0
0
0
0
0
0
0
0
0
0
0
0
0
0
0
0
0
0
0
0
0
0
0
0
0
0
0
0
0
0
0
0
0
0
0
0
0
0
0
0
0
0
0
0
0
0
0
0
0
0
0
0
0
0
0
0
0
0
0
0
0
0
0
0
0
0
0
0
0
0
0
0
0
0
0
0
0
0
0
0
0
0
0
0
0
0
0
0
0
0
0
0
0
0
0
0
0
0
0
0
0
0
0
0
0
0
0
0
0
0
0
0
0
0
0
0
0
0
0
0
0
0
0
0
0
0
0
0
0
0
0
0
0
0
0
0
0
0
0
0
0
0
0
0
0
0
0
0
0
0
0
0
0
0
0
0
0
0
0
0
0
0
0
0
0
0
0
0
0
0
0
0
0
0
0
0
0
0
0
0
0
0
0
0
0
0
0
0
0
0
0
0
0
0
0
0
0
0
0
0
0
0
0
0
0
0
0
0
0
0
0
0
0
0
0
0
0
0
0
0
0
0
0
0
0
0
0
0
0
0
0
0
0
0
0
0
0
0
0
0
0
0
0
0
0
0
0
0
0
0
0
0
0
0
0
0
0
0
0
0
0
0
0
0
0
0
0
0
0
0
0
0
0
0
0
0
0
0
0
0
0
0
0
0
0
0
0
0
0
0
0
0
0
0
0
0
0
0
0
0
0
0
0
0
0
0
0
0
0
0
0
0
0
0
0
0
0
0
0
0
0
0
0
0
0
0
0
0
0
0
0
0
0
0
0
0
0
0
0
0
0
0
0
0
0
0
0
0
0
0
0
0
0
0
0
0
0
0
0
0
0
0
0
0
0
0
0
0
0
0
0
0
0
0
0
0
0
0
0
0
0
0
0
0
0
0
0
0
0
0
0
0
0
0
0
0
0
0
0
0
0
0
0
0
0
0
0
0
0
0
0
0
0
0
0
0
0
0
0
0
0
0
0
0
0
0
0
0
0
0
0
0
0
0
0
0
0
0
0
0
0
0
0
0
0
0
0
0
0
0
0
0
0
0
0
0
0
0
0
0
0
0
0
0
0
0
0
0
0
0
0
0
0
0
0
0
0
0
0
0
0
0
0
0
0
0
0
0
0
0
0
0
0
0
0
0
0
0
0
0
0
0
0
0
0
0
0
0
0
0
0
0
0
0
0
0
0
0
0
0
0
0
0
0
0
0
0
0
0
0
0
0
0
0
0
0
0
0
0
0
0
0
0
0
0
0
0
0
0
0
0
0
0
0
0
0
0
0
0
0
0
0
0
0
0
0
0
0
0
0
0
0
0
0
0
0
0
0
0
0
0
0
0
0
0
0
0
0
0.0001813825565
-4.468304444e-06
4.531192374e-06
-0.0001814454444
-0.0001807933524
0.0003617175596
1.109887845e-05
-0.0001023239833
0.0007201949463
0.0001023900912
-0.0007202610541
0.000400603242
-1.093318678e-05
1.093329739e-05
-0.0004006033526
-0.0001818407954
-4.251954305e-06
0.0007984877808
-0.0003648475035
-5.824753763e-06
2.633584411e-06
-0.0001822798432
0.001565792345
-0.0007957476676
-0.0007816112073
9.225509759e-05
0.0001015912757
-0.0007286085271
-0.0001022440126
0.0008736060194
-1.920631306e-05
1.920631307e-05
-0.0008736060194
-0.0004025779339
-1.093312348e-05
-5.948804729e-05
0.0007201984407
5.945367673e-05
-0.0003610153579
-0.0003591487122
4.930583438e-06
0.00037895095
-0.0003792770084
-4.604524995e-06
0.0003769301783
5.483117392e-06
-0.0003774827122
-8.835380889e-06
0.0003766278127
9.137746453e-06
-6.26380535e-05
0.0007545311581
6.111710099e-05
-0.0007530102056
0.0007287373641
-5.957460821e-05
-0.0003653284097
-0.0003633223935
6.397306418e-06
0.0001779520278
-0.0001785764434
-5.772890816e-06
-6.371555573e-06
0.0003695729409
6.558384361e-06
-0.0001849640122
-0.0001847957575
0.0001773374685
6.875856678e-06
-0.0001778160187
-6.209617208e-06
0.0001770373714
6.509714286e-06
-1.974948879e-05
0.0003529498603
1.993193225e-05
-0.0003531323037
0.0003718097872
-0.0003719469769
-6.234365851e-06
0.001737421948
-0.0008638159286
2.984583075e-05
4.048514853e-05
0.001725869591
-0.0001945055388
0.0001973509054
-0.001737162084
-0.0001980032918
-0.0008168877458
-0.0007921552025
-1.931631333e-05
0.0003609992349
1.94551462e-05
-0.0003611380677
0.0003548857959
-0.0003549813158
-1.965396885e-05
-5.840026815e-06
0.0001775824374
-6.176433732e-05
0.0007825578446
5.826860513e-05
-0.0007790621124
0.0007635325222
-0.0007609784181
-6.51921576e-05
-8.494653851e-06
0.0003786102229
0.0008360469004
-1.920631298e-05
1.920631267e-05
-0.0008360469001
2.121987921e-05
0.0002237545103
-0.0002449743895
-6.124774866e-06
0.000175368144
6.438365468e-06
-0.0001756817347
4.771755114e-06
0.0003871764825
-6.234847968e-06
-8.430136243e-07
0.0003848562036
2.559943898e-06
-0.0003865731338
-0.0001778853952
1.293385444e-06
-3.008108405e-06
0.0001796001181
-0.0001779207382
-3.731658149e-06
0.0001788047521
2.8476442e-06
-5.068604585e-06
0.0001788810676
5.0442531e-06
-0.0001788567161
-1.670356948e-06
-1.181975944e-06
-0.0001750684053
-1.99033759e-05
-1.112487799e-05
-0.0001468571413
-3.47453905e-06
0.0001829642474
3.766337729e-06
-0.0001832560461
0.000177152318
-0.0001740072137
-4.815461179e-06
-4.265434919e-05
0.0001840438086
8.554043643e-06
-1.82699495e-06
0.0001842203465
2.056259268e-06
-0.0001844496108
0.0001830584852
-0.0001831682897
-3.364734612e-06
-2.179215916e-06
0.0001849424418
2.304927562e-06
-0.0001850681534
0.0001846120424
-0.0001847732631
-1.665774233e-06
4.40084437e-06
0.0001850971936
0.0002274118395
-0.0002473152154
0.0001756708161
-0.0001754448217
-6.350769253e-06
-6.868107364e-07
0.0001721413326
-0.0001502346427
0.0001804218003
4.828342465e-05
0.0007202415902
0.0001134927827
0.001366428855
-0.0003328012681
0.0003384980882
-0.001411232078
0.000179157204
-0.0001794244456
-4.80136295e-06
-5.300105935e-06
0.0001787207657
-4.161630639e-06
0.0001823062358
4.819642235e-06
0.0001717609749
-0.0001690490189
-6.057012039e-06
0.0001729246401
-6.391627975e-06
-6.610334557e-06
0.0001752105188
6.767959781e-06
-7.54385331e-06
0.000174667204
7.6160944e-06
-0.0001747394451
-2.166207015e-05
-9.93823666e-06
0.0001812687441
-0.0001496684373
0.0002311723554
-0.0002528344255
0.0002326830331
2.288860968e-05
4.466629464e-05
2.554331382e-06
0.0001854624071
0.0001827376922
-0.0001480096342
0.0001875417774
-7.779817536e-07
8.430493559e-07
-0.000187606845
0.0001859977137
-0.0001866699588
-1.5069708e-06
-1.696302095e-05
-0.0001534731588
4.758404747e-05
-8.689184081e-07
0.0001770393813
0.0001742498359
-0.0001436288094
-0.0002266484768
4.530230792e-05
0.0001801641929
2.301755661e-05
-0.0002496660334
7.234992852e-07
-0.000152774348
0.0001787391886
-0.0001445617586
-0.000184000891
5.195901547e-06
0.0001825713272
1.640610254e-07
4.700740334e-05
-1.823240933e-06
-1.530243299e-05
-0.0001579812815
0.0001796281848
-0.0001479232144
0.0001800086252
-5.737484901e-07
2.985545827e-07
0.0001843190025
-0.0001826880538
0.0001846686367
0.0001824877299
7.37859809e-07
-4.977892801e-07
-8.568287597e-07
0.0001838423479
0.0001848979589
0.0001705760941
-1.689066439e-05
-0.0001543722404
3.37549266e-06
-6.589692484e-06
0.0001737902939
0.0001746479069
6.865510033e-06
0.0001786836319
-5.127341654e-06
-0.0001761056444
0.0001763814619
-0.0001447128841
0.001295534546
0.000345693024
0.0009618651752
-0.0002925057017
0.0002995312921
-0.001089151406
0.0008227022798
0.000278618784
0.0004084154853
-0.0001637297187
0.0001753281296
-0.0005414596387
0.0002876190126
0.0001396185968
-3.174969478e-05
3.945167161e-05
3.923211904e-05
-9.93658167e-05
-9.979394097e-06
0.0003696256992
9.926635762e-06
-1.891806317e-05
0.0003694517591
1.919780106e-05
-0.000369731497
0.0003634277964
-0.0003634622804
-1.928182934e-05
0.001566223896
0.000239137839
0.001421332105
-0.0002991682116
0.0003122387847
-0.001507945148
-0.001438104507
-0.0003249098464
0.001316672061
0.0003077699184
0.0008958914577
-0.0002396596215
0.000255293393
-0.001048305194
-0.001082587848
-0.0002820917502
0.0007539175344
0.0002274992569
0.0003234980298
-0.0001233192358
0.0001313013862
-0.0004565308987
-0.00052772506
-0.000155590998
0.000207701615
9.845552726e-05
-1.150503056e-05
1.026323736e-05
1.735953875e-05
-4.965318666e-05
-8.764561713e-05
-2.760800637e-05
-2.984583085e-05
0.0008360469001
2.984583114e-05
-6.176433733e-05
0.0008360469001
6.176433732e-05
-0.0008360469001
0.0008078786511
-0.0008078786511
-6.176433733e-05
0.001688848284
0.0002318378619
0.001413987412
-0.0002597229144
0.0002709024293
-0.001531139872
-0.001505688281
-0.0002921949663
0.001276107542
0.0002632326508
0.0007907613901
-0.0001911849469
0.0002014998272
-0.0009586223627
-0.001036569412
-0.0002306672542
0.0006274570456
0.0001808441964
0.0002114302442
-7.753957866e-05
9.206990978e-05
-0.0003321120449
-0.0004247114136
-0.0001102049588
0.000119227949
6.388452106e-05
-1.368266813e-06
0
2.89539446e-06
-9.265945929e-06
-3.722368167e-05
-8.309889701e-06
0.001843901267
-2.626673625e-05
2.78504595e-05
-2.777309431e-05
8.566781225e-06
0.001821779935
6.92390362e-05
0.001666351071
-0.0001608899512
0.000172767885
-0.001735657288
-0.001767521576
-0.0001895099858
0.001577753931
0.0001949782947
0.001205531098
-0.0001935786534
0.0002128007296
-0.001345176486
-0.001510018811
-0.000246166141
0.00105490805
0.0002038942445
0.0005830338627
-0.0001321511421
0.000149034794
-0.0007386718214
-0.0009209182682
-0.0001788366449
0.0004360037103
0.0001251205517
9.78414019e-05
-3.791275256e-05
4.868717003e-05
-0.0001885009072
-0.0002985165413
-6.887870194e-05
3.506926985e-05
2.615747591e-05
0
0
0
0
-3.312592675e-06
-1.323349565e-07
0.001519642129
-9.59945039e-06
1.442451987e-05
-2.324433707e-05
0.001473851414
4.593076354e-05
0.001244921791
-9.760838526e-05
0.000114695963
-0.001335916952
-0.001674242056
-0.0001469368207
0.00114084433
0.000126936928
0.000772461848
-0.0001089840423
0.0001303920209
-0.0009018187201
-0.001256080454
-0.0001731457394
0.0006410717115
0.0001219691259
0.000274281442
-5.983419855e-05
7.774434453e-05
-0.0003878113638
-0.0006588083587
-0.0001143756977
0.0001752029973
5.92789558e-05
6.051696694e-06
-3.627372555e-06
9.418851675e-06
-3.721433284e-05
-0.0001471130417
-2.73412038e-05
0
1.832056467e-06
0
0
0
0
0
0
0.0008175416968
2.766773693e-06
-1.202627841e-06
-5.149973497e-06
0.00077937108
1.554501132e-05
0.0005977896535
-3.65055365e-05
4.976069269e-05
-0.0006678686383
-0.001181602436
-8.072684795e-05
0.0005208884723
5.469915994e-05
0.0002752668649
-3.408028573e-05
5.025378236e-05
-0.0003567454848
-0.0007646143565
-8.818368416e-05
0.0001984257752
4.339076662e-05
3.018054018e-05
-6.006378653e-06
1.522979915e-05
-7.236523118e-05
-0.0002966648311
-4.296926394e-05
6.501585828e-06
6.845244157e-06
0
0
0
0
-1.410812792e-05
-7.627369534e-07
0
0
0
0
0
0
0
0
0.0001726532798
1.287483582e-06
-2.242251935e-06
3.303462904e-06
0.0001568326274
1.801460237e-06
8.606812536e-05
-3.337984766e-06
8.421206278e-06
-0.0001120277932
-0.0005010520958
-2.510248181e-05
6.024237078e-05
8.32500551e-06
6.329434492e-06
-1.583376197e-07
2.942938981e-06
-1.797970011e-05
-0.000239052027
-2.044441403e-05
6.503299887e-07
1.003052218e-06
0
0
0
0
-2.776520003e-05
-1.070482308e-06
0
0
0
0
0
0
0
0
0
0
0
0
0
0
0
0
0
0
0
4.74894591e-07
0
0
0
0
0
0
-4.064506927e-05
-5.511629503e-07
0
0
0
0
0
0
-1.285693766e-06
0
0
0
0
0
0
0
0
0
0
0
0
0
0
0
0
0
0
0
0
0
0
0
0
0
0
0
0
0
0
0
0
0
0
0
0
0
0
0
0
0
0
0
0
0
0
0
0
0
0
0
0
0
0
0
0
0
0
0
0
0
0
0
0
0
0
0
0
0
0
0
0
0
0
0
0
0
0
0
0
0
0
0
0
0
0
0
0
0
0
0
0
0
0
0
0
0
0
0
0
0
0
0
0
0
0
0
0
0
0
0
0
0
0
0
0
0
0
0
0
0
0
0
0
0
0
0
0
0
0
0
0
0
0
0
0
0
0
0
0
0
0
0
0
0
0
0
0
0
0
0
0
0
0
0
0
0
0
0
0
0
0
0
0
0
0
0
0
0
0
0
0
0
0
0
0
0
0
0
0
0
0
0
0
0
0
0
0
0
0
0
0
0
0
0
0
0
0
0
0
0
0
0
0
0
0
0
0
0
0
0
0
0
0
0
0
0
0
0
0
0
0
0
0
0
0
0
0
0
0
0
0
0
0
0
0
0
0
0
0
0
0
0
0
0
0
0
0
0
0
0
0
0
0
0
0
0
0
0
0
0
0
0
0
0
0
0
0
0
0
0
0
0
0
0
0
0
0
0
0
0
0
0
0
0
0
0
0
0
0
0
0
0
0
0
0
0
0
0
0
0
0
0
0
0
0
0
0
0
0
0
0
0
0
0
0
0
0
0
0
0
0
0
0
0
0
0
0
0
0
0
0
0
0
0
0
0
0
0
0
0
0
0
0
0
0
0
0
0
0
0
0
0
0
0
0
0
0
0
0
0
0
0
0
0
0
0
0
0
0
0
0
0
0
0
0
0
0
0
0
0
0
0
0
0
0
0
0
0
0
0
0
0
0
0
0
0
0
0
0
0
0
0
0
0
0
0
0
0
0
0
0
0
0
0
0
0
0
0
0
0
0
0
0
0
0
0
0
0
0
0
0
0
0
0
0
0
0
0
0
0
0
0
0
0
0
0
0
0
0
0
0
0
0
0
0
0
0
0
0
0
0
0
0
0
0
0
0
0
0
0
0
0
0
0
0
0
0
0
0
0
0
0
0
0
0
0
0
0
0
0
0
0
0
0
0
0
0
0
0
0
0
0
0
0
0
0
0
0
0
0
0
0
0
0
0
0
0
0
0
0
0
0
0
0
0
0
0
0
0
0
0
0
0
0
0
0
0
0
0
0
0
0
0
0
0
0
0
0
0
0
0
0
0
0
0
0
0
0
0
0
0
0
0
0
0
0
0
0
0
0
0
0
0
0
0
0
0
0
0
0
0
0
0
0
0
0
0
0
0
0
0
0
0
0
0
0
0
0
0
0
0
0
0
0
0
0
0
0
0
0
0
0
0
0
0
0
0
0
0
0
0
0
0
0
0
0
0
0
0
0
0
0
0
0
0
0
0
0
0
0
0
0
0
0
0
0
0
0
0
0
0
0
0
0
0
0
0
0
0
0
0
0
0
0
0
0
0
0
0
0
0
0
0
0
0
0
0
0
0
0
0
0
0
0
0
0
0
0
0
0
0
0
0
0
0
0
0
0
0
0
0
0
0
0
0
0
0
0
0
0
0
0
0
0
0
0
0
0
0
0
0
0
0
0
0
0
0
0
0
0
0
0
0
0
0
0
0
0
0
0
0
0
0
0
0
0
0
0
0
0
0
0
0
0
0
0
0
0
0
0
0
0
0
0
0
0
-0.000180995953
4.733792983e-06
-4.483037169e-06
4.819614766e-06
-0.0001813325306
-0.0001816793366
-4.249144935e-06
1.373355379e-05
0.0003614059922
-1.342198644e-05
-0.0003591034408
0.0003590221204
1.381487421e-05
1.135843269e-05
-0.0001802057911
0.0006934216671
-0.0006934710757
-0.0001028667093
-0.0003479249628
-7.066275611e-05
0.0006935795205
-7.120612372e-05
0.0007203123493
7.109221511e-05
0.000387545116
-0.0003905382554
2.150125794e-06
0.0004052941352
-3.718878815e-06
0.0001826157334
-2.168423811e-06
0.0001839207576
2.468012704e-06
-7.073678889e-06
0.000365786636
3.590933954e-06
4.268508141e-06
-0.000183646749
-0.0001829256502
4.048514852e-05
0.0007984877808
-4.048514854e-05
0.0007692052337
3.889734091e-05
-0.0003837295578
-0.0003838878682
5.475530327e-06
-3.240205626e-06
0.0003853097913
0.0001017297295
0.0007629157349
-0.0007631017323
-0.0001015437321
7.216689425e-05
-7.083006296e-05
0.0007621956909
-7.240249836e-05
0.0007838939133
7.106642966e-05
-7.137910496e-05
0.0007289103454
0.0007542712055
7.242684685e-05
0.0007546801576
0.0001018888791
-0.0007548393071
0.0008454377705
-0.0008454377704
-1.920631306e-05
-1.920631191e-05
0.0008168877491
8.273174926e-06
1.093313373e-05
-0.0004096166415
-0.0004072711043
3.136027802e-05
0.0007116668614
-0.0003568210837
-0.000354864726
2.8112347e-05
2.242733236e-05
-2.238119299e-05
0.0003548396565
-2.233136691e-05
0.0003610014659
2.23291359e-05
0.0003526635593
2.271363337e-05
0.0003524934807
3.122342748e-05
-0.0003523566302
0.000173322707
-6.731539508e-06
-6.968282667e-06
0.0001733555316
-1.012325303e-06
1.595831612e-06
-0.0003798605147
0.0003812965075
-0.0003824472586
1.384258143e-07
-3.586677459e-06
0.00038027866
-0.0003758670315
5.836590618e-06
0.0003755135582
-2.365024777e-06
2.529722327e-06
-0.0001877874943
-0.0001882442348
-0.0003782519054
0.0003768797673
-1.890748651e-05
1.894628408e-05
-0.0003769185649
0.0003713655204
-0.0003712876266
-1.8995957e-05
-9.567277165e-06
0.0003713976702
-0.0007450933967
5.986166425e-05
0.0007463488334
-4.802192067e-05
4.747533559e-05
-0.0003731812912
-4.885890975e-05
-0.0003752934492
-2.223986921e-05
0.0003633362987
0.0007371506383
-0.0003678590557
2.214494522e-05
2.549056702e-05
0.0007374376943
-5.629839619e-06
6.29075193e-06
-0.0001792373557
0.0001788458243
-0.0001791849785
-5.290685403e-06
-5.392342048e-06
0.0001784652756
2.830306062e-06
-3.107169447e-06
0.0001849034443
-0.0001813145037
0.000183287981
0.0003681629376
-0.0001845421203
-0.0001841361118
-1.858541472e-06
0.00018430216
-2.001893166e-06
0.000184883689
2.060645966e-06
-0.0001765597121
6.913678722e-06
0.00017652189
-7.158365108e-06
6.980114924e-06
1.405382056e-05
0.0003533497374
-1.404286967e-05
-0.0001768729636
-0.0001764877246
0.0003509857962
6.820821319e-06
-0.0001759323016
-0.0001753643487
-6.492338039e-06
0.0001755528196
-0.0003508576283
2.000543128e-05
0.0003507841292
-1.715936074e-05
1.728752872e-05
-1.694192711e-05
0.0003484716639
-0.0001739434926
0.0003481883353
-3.382858323e-06
-0.0001870250108
2.456712733e-06
0.0003738892445
-0.0001872006032
0.0003734914693
2.415167699e-06
-1.931364737e-06
0.000187882822
0.0001871531689
1.239679633e-06
-0.0001897662185
-0.0001893626633
-5.018478953e-07
1.391446422e-07
-0.0001882194299
-3.460461239e-07
0.000112889157
0.001737421948
-0.000112889157
0.001700266411
5.112481966e-05
-0.0008548286407
-0.0008454377704
-2.984583075e-05
0.0008454377704
-0.001700266411
0.0001980032918
0.001698345061
-0.0001554468421
0.0001554468421
-0.0001553853976
-7.240249837e-05
0.0008078786511
0.00166270293
-0.0008266560299
7.240249839e-05
8.304434372e-05
0.00166270293
-0.0003590505685
1.936771169e-05
0.000359138003
-1.673776695e-05
1.67093189e-05
-1.646984243e-05
-1.697302258e-05
-0.0003549502203
0.0003571417723
-0.000357405476
0.0003568555151
0.000357178193
-0.0001784618205
5.489316866e-06
6.033810895e-06
1.358759127e-05
-0.000177914541
-0.0001774909577
-0.0007852642511
6.568206492e-05
0.0007778507914
-7.055048806e-05
5.44914706e-05
-5.112481965e-05
-5.06515707e-05
-0.0007591857572
0.0007701996212
-0.0007663597213
0.0007706895285
0.0003831498896
7.181844287e-06
3.655729094e-05
-0.0003825886456
-0.0003814310257
-0.0003797963568
-0.0003784421624
1.670256639e-05
-0.0008266560299
0.0008266560306
-8.566781228e-06
5.613318721e-06
-8.566781246e-06
-0.0001742078128
0.0001742545503
-6.014988925e-06
-4.6573423e-06
-2.227947698e-06
3.095397295e-06
-0.0001919073839
-0.0001914073243
-0.0001911004245
-0.0001897483583
-4.031207242e-06
0.0003885648834
2.642806296e-06
-0.0003854803885
0.0003845445785
-2.488133998e-06
-0.0003833303681
0.0003823036345
1.352636216e-06
3.34438582e-06
0.000179194953
-3.46387284e-06
4.764579234e-06
-4.75460478e-06
4.387186887e-06
0.0001789763187
-4.558753404e-06
-0.0001795479643
0.0001791805464
-0.0001788099094
-4.92004841e-06
-4.800445874e-06
-0.0001845166481
2.608097675e-06
0.0001839648097
-1.039406418e-06
1.191395023e-06
-1.170014649e-06
-2.253838402e-06
0.0001843999637
0.0001836433268
-0.0001841659938
1.750929388e-06
0.000184719992
-2.437211e-06
1.559198204e-06
-2.601920135e-06
-1.045318829e-06
0.0001843562273
0.0001844413825
-5.454257152e-06
0.0001753161517
0.0001758790612
0.0002807495401
0.00143059776
-0.0002802241095
-0.0007201717345
-0.0007111232092
0.001394807807
-0.0007017936104
-0.0006931211929
-0.0001139769405
0.0006933045694
-0.001383965779
0.001345787524
-0.0003175227962
-0.0003123728225
-4.900524908e-06
-0.0001793243666
0.000180273361
-0.0001803542712
0.0001803234292
-5.614909986e-06
5.162354267e-06
-5.193196244e-06
4.749667371e-06
-4.122768221e-06
-0.0001817760595
6.862030167e-06
0.0001750249837
-6.676495045e-06
-0.0001742909706
0.0001741847181
-0.0001740489647
7.721566411e-06
-7.106359955e-06
7.242113358e-06
0.0001732396393
1.59256091e-06
0.0001881779185
-8.943006846e-07
0.0001878429198
-0.0001876393293
1.281775525e-06
-1.282503695e-06
1.486094154e-06
-7.114301516e-07
-2.11871003e-06
0.0001872502061
6.402132022e-06
1.521216461e-05
0
0
0
-1.72910384e-08
0
0
0
0
0
0.0003657831071
-1.026640758e-05
1.339024961e-05
-1.326691687e-05
0.0003656597744
0.000363506296
0.001501128519
-0.0002377024052
-0.0007462985374
0.0002793052755
-0.0002777170808
0.001495225696
0.001464108746
0.001313865417
-0.001403587096
-0.0003169704414
0.0003201346064
-0.0003074901089
0.001202547776
0.000329726711
0.001199742436
0.0007807788158
-0.0009295295933
-0.000234732673
0.0002225631197
-0.0002140474582
0.0006463196202
0.0002316475523
0.000668785536
0.0002557852641
-0.0003741391764
-0.0001123173382
8.759572947e-05
-7.949392659e-05
0.0001553539575
9.407696253e-05
0.0001694858536
0
3.776359029e-06
0
0
0
0
0
0
0
0
0
0
0
0
0
0
0.0008168877458
-2.98458319e-05
4.048514854e-05
-4.048514854e-05
0.0008168877458
0.0008078786511
0.001650701658
-0.0002360576924
0.0002664180333
-0.0002621719821
0.001607236743
0.000272892023
0.001585035699
0.001304131436
-0.001431044172
-0.0002722584659
0.000287242305
-0.0002638932693
0.001158315195
0.0002886996862
0.001187264159
0.0007002174173
-0.0008557869968
-0.0001982057332
0.0001747593237
-0.0001625892047
0.0005432700891
0.0001891366738
0.000569869508
0.0001650357351
-0.0002699695447
-7.188990117e-05
5.292508622e-05
-4.318824999e-05
8.132103026e-05
6.030068287e-05
9.979862456e-05
0
0
0
0
0
0
0
0
0
0
0
0
0
0
0
0
0.001810277521
-0.001812368127
-7.040187662e-05
0.0001128493881
-0.0001117112571
0.001802477381
0.001775024057
0.001672228148
-0.00173759855
-0.0002075292197
0.0002369331807
-0.000224087836
0.001583372347
0.0002475360621
0.001612211284
0.001193961332
-0.001341056652
-0.0002217090451
0.0002225809541
-0.000206863428
0.001035498061
0.0002363049294
0.001085799247
0.000546243484
-0.0007059227055
-0.0001397246529
0.0001254437845
-0.0001132606567
0.0003976649197
0.0001360901415
0.0004365868631
7.24273447e-05
-0.0001557985331
-3.434820966e-05
1.978648862e-05
-1.437321373e-05
1.961801612e-05
2.828470075e-05
3.320340604e-05
0
0
0
0
0
0
0
0
0
0
0
0
0
0
0
0
0.001708238783
-0.001746634112
-5.379943372e-05
9.446395005e-05
-8.467505201e-05
0.001654796031
0.0001024755046
0.001735925924
0.001397237758
-0.001499342003
-0.0001457609784
0.0001735458521
-0.0001538143241
0.001280250905
0.0001921190237
0.001384753593
0.0008652293709
-0.001010978522
-0.0001432541981
0.0001509010906
-0.0001305072127
0.000717361445
0.0001706784395
0.000812167764
0.0003063564585
-0.0004332289847
-7.602107551e-05
7.036676619e-05
-5.525920089e-05
0.0001959049384
8.53708714e-05
0.0002499271399
6.907595242e-06
-4.219847264e-05
-5.302852538e-06
2.110657774e-06
-4.012446059e-07
0
4.974627181e-06
5.201934388e-07
0
0
0
0
0
0
0
0
0
0
0
0
0
0
0
0
0.001147682124
-0.001192752534
-2.200031632e-05
5.05903558e-05
-3.97233231e-05
0.001088067874
6.209343875e-05
0.00125760069
0.0008351495208
-0.000930097272
-7.123366584e-05
9.296865017e-05
-7.392084863e-05
0.0007325295009
0.0001129723728
0.0008814740248
0.0004076360024
-0.000515535025
-6.107785361e-05
6.981124151e-05
-5.134532583e-05
0.0003048914214
8.950080834e-05
0.0004063090752
6.597157578e-05
-0.0001301606509
-1.619917853e-05
1.548695816e-05
-6.674022309e-06
2.230824366e-05
2.708894769e-05
5.339460153e-05
0
0
0
0
0
0
0
0
0
0
0
0
0
0
0
0
0
0
0
0
0
0
0
0
0.0004288200785
-0.0004564649534
-3.600192934e-06
1.458113131e-05
-9.133200054e-06
0.000392316258
2.151328321e-05
0.0005540184015
0.0002461236005
-0.0002990035992
-1.645723784e-05
2.67666733e-05
-1.556245515e-05
0.0001921961002
4.044851686e-05
0.0003072018598
5.150002329e-05
-9.195821353e-05
-6.058098607e-06
9.588276887e-06
-2.589677137e-06
2.158597047e-05
2.054346477e-05
6.489898026e-05
0
-1.886070491e-08
0
0
0
0
1.762544111e-08
0
0
0
0
0
0
0
0
0
0
0
0
0
0
0
0
0
0
0
0
0
0
0
0
0
1.626447887e-05
-2.04915807e-05
-3.688332581e-09
6.153510901e-07
-7.215275259e-09
1.149541295e-05
2.279393132e-06
5.471323694e-05
4.361534641e-07
-2.982016602e-06
0
3.750949005e-08
0
0
1.89299594e-06
6.400920505e-06
0
0
0
0
0
0
0
0
0
0
0
0
0
0
0
0
0
0
0
0
0
0
0
0
0
0
0
0
0
0
0
0
0
0
0
0
0
0
0
0
0
0
0
0
0
0
0
0
0
0
0
0
0
0
0
0
0
0
0
0
0
0
0
0
0
0
0
0
0
0
0
0
0
0
0
0
0
0
0
0
0
0
0
0
0
0
0
0
0
0
0
0
0
0
0
0
0
0
0
0
0
0
0
0
0
0
0
0
0
0
0
0
0
0
0
0
0
0
0
0
0
0
0
0
0
0
0
0
0
0
0
0
0
0
0
0
0
0
0
0
0
0
0
0
0
0
0
0
0
0
0
0
0
0
0
0
0
0
0
0
0
0
0
0
0
0
0
0
0
0
0
0
0
0
0
0
0
0
0
0
0
0
0
0
0
0
0
0
0
0
0
0
0
0
0
0
0
0
0
0
0
0
0
0
0
0
0
0
0
0
0
0
0
0
0
0
0
0
0
0
0
0
0
0
0
0
0
0
0
0
0
0
0
0
0
0
0
0
0
0
0
0
0
0
0
0
0
0
0
0
0
0
0
0
0
0
0
0
0
0
0
0
0
0
0
0
0
0
0
0
0
0
0
0
0
0
0
0
0
0
0
0
0
0
0
0
0
0
0
0
0
0
0
0
0
0
0
0
0
0
0
0
0
0
0
0
0
0
0
0
0
0
0
0
0
0
0
0
0
0
0
0
0
0
0
0
0
0
0
0
0
0
0
0
0
0
0
0
0
0
0
0
0
0
0
0
0
0
0
0
0
0
0
0
0
0
0
0
0
0
0
0
0
0
0
0
0
0
0
0
0
0
0
0
0
0
0
0
0
0
0
0
0
0
0
0
0
0
0
0
0
0
0
0
0
0
0
0
0
0
0
0
0
0
0
0
0
0
0
0
0
0
0
0
0
0
0
0
0
0
0
0
0
0
0
0
0
0
0
0
0
0
0
0
0
0
0
0
0
0
0
0
0
0
0
0
0
0
0
0
0
0
0
0
0
0
0
0
0
0
0
0
0
0
0
0
0
0
0
0
0
0
0
0
0
0
0
0
0
0
0
0
0
0
0
0
0
0
0
0
0
0
0
0
0
0
0
0
0
0
0
0
0
0
0
0
0
0
0
0
0
0
0
0
0
0
0
0
0
0
0
0
0
0
0
0
0
0
0
0
0
0
0
0
0
0
0
0
0
0
0
0
0
0
0
0
0
0
0
0
0
0
0
0
0
0
0
0
0
0
0
0
0
0
0
0
0
0
0
0
0
0
0
0
0
0
0
0
0
0
0
0
0
0
0
0
0
0
0
0
0
0
0
0
0
0
0
0
0
0
0
0
0
0
0
0
0
0
0
0
0
0
0
0
0
0
0
0
0
0
0
0
0
0
0
0
0
0
0
0
0
0
0
0
0
0
0
0
0
0
0
0
0
0
0
0
0
0
0
0
0
0
0
0
0
0
0
0
0
0
0
0
0
0
0
0
0
0
0
0
0
0
0
0
0
0
0
0
0
0
0
0
0
0
0
0
0
0
0
0
0
0
0
0
0
0
0
0
0
0
0
0
0
0
0
0
0
0
0
0
0
0
0
0
0
0
0
0
0
0
0
0
0
0
0
0
0
0
0
0
0
0
0
0
0
0
0
0
0
0
0
0
0
0
0
0
0
0
0
0
0
0
0
0
0
0
0
0
0
0
0
0
0
0
0
0
0
0
0
0
0
0
0
0
0
0
0
0
0
0
0
0
0
0
0
0
0
0
0
0
0
0
0
0
0
0
0
0
0
0
0
0
0
0
0
0
0
0
0
0
0
0
0
0
0
0
0
0
0
0
0
0
0
0
0
0
0
0
0
0
0
0
0
0
0
0
0
0
0
0
0
0
0
0
0
0
0
0
0
0
0
0
0
0
0
0
0
0
0
0
0
0
0
0
0
0
0
0
0
0
0
0
0
0
0
0
0
0
0
0
0
0
0
0
0
0
0
0
0
0
0
0
0
0
0
0
0
0
0
0
0
0
0
0
0
0
0
0
0
0
0
0
0
0
0
0
0
0
0
0
0
0
0
0
0
0
0
0
0
0
0
0
0
0
0
0
0
0
0
0
0
0
0
0
0
0
0
0
0
0
0
0
0
0
0
0
0
0
0
0
0
0
0
0
0
0
0
0
0
0
0
0
0
0
0
0
0
0
0
0
0
0
0
0
0
0
0
0
0
-0.0007120001909
0.0001027318345
0.0007116584476
-9.160112511e-05
9.182728634e-05
-0.0007122263522
-9.171700677e-05
-0.0007201451725
-0.0003435981672
-1.031603897e-05
-8.273771815e-06
6.256092755e-05
-0.0003978853229
-0.0004006036698
-8.273454688e-06
-3.856731187e-06
-0.0001822332092
0.0001822676264
-0.0001825334237
-9.167267529e-05
-0.0007286528586
0.0007376398923
-0.0007375160762
-9.179649143e-05
-0.0001021975777
0.0003479457537
-0.0003478820995
-2.849067917e-05
-3.125401316e-05
1.284566556e-05
-1.29383551e-05
0.0003767205022
-0.0003751388201
0.0003750355919
1.294889378e-05
9.512484614e-06
6.48972293e-06
-6.325315157e-06
-0.000176438935
6.44093332e-06
6.592669318e-06
-7.024997905e-07
8.740980524e-07
-2.734091174e-07
0.0001781145656
6.233835504e-06
0.0003797778089
-7.993802756e-06
1.277029454e-05
-1.278884242e-05
-1.601569246e-06
1.773124699e-06
0.0003379138178
0.001201613544
-0.001281109445
0.001191434736
-0.001082386946
0.0009578780704
-0.0003226252627
-0.0003151636856
0.000243504475
0.0006813419799
-0.0008345648485
0.0006976414158
-0.0005604136527
0.0004280042169
-0.0002103158742
-0.0001986288308
0.0001043556138
0.0001832559012
-0.0003061117968
0.0001992655565
-0.0001119071545
5.061981005e-05
-7.013905272e-05
-6.092407575e-05
1.3108169e-05
0.0003696898229
-1.31722927e-05
-0.0003678231657
0.0003676644179
-0.0003676569067
1.899565204e-05
-1.629732966e-05
1.630484079e-05
-1.633900376e-05
-1.642582685e-05
0.0003655387883
0.000365252611
0.000275149948
0.001546571488
-0.001536209085
0.001523920111
-0.0007718579161
-0.001483220472
0.0003223885114
0.001409037901
-0.0003028201325
0.0003063489184
-0.0003106157969
-0.0003086840736
0.001463448427
0.0002967382464
0.001192132414
-0.0013147987
0.001195958117
-0.001070682605
0.0002645859276
0.0009243150061
-0.0002864349757
0.000290654806
-0.0002685172441
-0.0003047781497
0.00107295439
0.0001977262582
0.0006024310335
-0.0007732676957
0.0006223136352
-0.0004771464227
0.0001455079366
0.0003443493228
-0.0001648995348
0.0001793912322
-0.0001556447475
-0.0001902470282
0.000505896617
6.969501249e-05
0.0001173431765
-0.000227929172
0.0001375158727
-6.443997448e-05
2.268875259e-05
1.789491005e-05
-4.092100265e-05
4.86856613e-05
-3.237325444e-05
-5.543182464e-05
7.718433874e-05
2.497460743e-05
4.048514853e-05
0.0008360469001
-4.048514854e-05
-0.0008266560299
0.0008266560299
-5.112481966e-05
0.0008168877458
-5.112481967e-05
-6.176433734e-05
0.0008168877458
0.0002559162592
0.001623627417
-0.001675099365
0.001621465383
-0.001538472064
0.0002795594092
0.001428799404
-0.0002688690151
0.0002766162461
-0.0002587404052
-0.0002849831973
0.001533421631
0.0002477591533
0.001122437213
-0.001296460944
0.001147060859
-0.0009859578445
0.0002197271052
0.0008199743238
-0.0002265613382
0.0002437182767
-0.0002155849043
-0.0002544910969
0.00101131619
0.0001513081234
0.0004724514815
-0.0006613010323
0.0005103886033
-0.0003698479184
0.0001019093956
0.0002454778697
-0.0001219406844
0.0001327446932
-0.0001068707423
-0.0001419100973
0.0003989119075
3.57679404e-05
4.937919427e-05
-0.000142275197
6.420831759e-05
-1.617553934e-05
4.645085648e-06
7.013399424e-08
-1.459398664e-05
1.929190187e-05
-9.948073998e-06
-2.662455012e-05
2.602667028e-05
1.530825436e-06
2.781108813e-05
0.001841575241
0.0001082919386
0.001786719816
-0.001830929821
0.001808889871
-0.001771032151
0.0001823228635
0.001714020759
-0.0001433818396