/*--------------------------------*- C++ -*----------------------------------*\
| =========                 |                                                 |
| \\      /  F ield         | OpenFOAM: The Open Source CFD Toolbox           |
|  \\    /   O peration     | Version:  v2012                                 |
|   \\  /    A nd           | Website:  www.openfoam.com                      |
|    \\/     M anipulation  |                                                 |
\*---------------------------------------------------------------------------*/
FoamFile
{
    version     2.0;
    format      ascii;
    class       pointVectorField;
    location    "2.45";
    object      pointDisplacement;
}
// * * * * * * * * * * * * * * * * * * * * * * * * * * * * * * * * * * * * * //

dimensions      [0 1 0 0 0 0 0];


internalField   nonuniform List<vector> 
6962
(
(0 0 0)
(0 0 0)
(0 0 0)
(0 0 0)
(0 0 0)
(0 0 0)
(0 0 0)
(0 0 0)
(0 0 0)
(0 0 0)
(-0.0009896717421 -0.001401834868 5.606626274e-15)
(0 0 0)
(0 0 0)
(0 0 0)
(0 0 0)
(0 0 0)
(0 0 0)
(0 0 0)
(0 0 0)
(0 0 0)
(0 0 0)
(0 0 0)
(0 0 0)
(0 0 0)
(0 0 0)
(-0.001759760971 -0.002788370624 9.964251646e-15)
(-0.001604302297 -0.002474414006 9.089951014e-15)
(-0.0013729626 -0.002060056613 7.771561172e-15)
(-0.006833927363 -0.0112232582 4.243827512e-14)
(-0.007343382381 -0.01239316961 4.558853295e-14)
(-0.01114379551 -0.01972253204 7.263634139e-14)
(-0.01051944298 -0.01812030937 6.861178292e-14)
(-0.02242391973 -0.04521202643 1.718486464e-13)
(-0.02284807324 -0.04731473881 1.749156375e-13)
(-0.02599875147 -0.05709635722 2.113031972e-13)
(-0.02564412018 -0.05484184143 2.086802953e-13)
(-0.03059227237 -0.08027334136 3.059219544e-13)
(-0.03071993522 -0.08272812271 3.06601966e-13)
(-0.03060200532 -0.08926164237 3.307909502e-13)
(-0.03039961144 -0.08643573783 3.293892936e-13)
(-0.02474312597 -0.09451000398 0)
(-0.02482336579 -0.09718543435 0)
(-0.02198246692 -0.09727243909 0)
(-0.02194261013 -0.09593518233 0)
(-0.02190312241 -0.09459778966 0)
(-0.01341243564 -0.09485780811 0)
(-0.01343116375 -0.09552585168 0)
(-0.01272773051 -0.09554692498 0)
(-0.01270907035 -0.09487906595 0)
(0 0 0)
(0 0 0)
(0 0 0)
(0 0 0)
(0 0 0)
(0 0 0)
(0 0 0)
(0 0 0)
(0 0 0)
(0 0 0)
(0 0 0)
(0 0 0)
(0 0 0)
(0 0 0)
(-0.001668907615 -0.002939536317 9.492406861e-15)
(-0.001886047064 -0.003241693483 1.074140776e-14)
(-0.002015364396 -0.003378412524 1.146305273e-14)
(-0.008135660445 -0.01492036133 5.072331444e-14)
(-0.007874415997 -0.01480685271 4.908573548e-14)
(-0.01175460885 -0.02317447462 7.691070003e-14)
(-0.01206727831 -0.02320454058 7.896461263e-14)
(-0.02390446788 -0.05374714023 1.835476215e-13)
(-0.02352491921 -0.05421132451 1.805222638e-13)
(-0.02664661966 -0.06508885579 2.16937579e-13)
(-0.02701455053 -0.06439641375 2.201294702e-13)
(-0.03139428448 -0.09170756268 3.138600491e-13)
(-0.03116216909 -0.09320034603 3.110289803e-13)
(-0.03081698817 -0.09980748288 3.33025274e-13)
(-0.03097508367 -0.09801936942 3.354261313e-13)
(-0.02475058335 -0.1052477326 0)
(-0.02483382014 -0.1079235052 0)
(-0.02198500797 -0.1080121248 0)
(-0.02194339924 -0.1066745493 0)
(-0.02190177118 -0.1053363522 0)
(-0.01335545898 -0.1056022072 0)
(-0.01339708705 -0.1069404043 0)
(-0.01197274312 -0.1069847122 0)
(-0.01195191942 -0.1063153029 0)
(-0.01193111506 -0.1056465151 0)
(-0.01264328702 -0.1056243612 0)
(0 0 0)
(0 0 0)
(0 0 0)
(0 0 0)
(0 0 0)
(0 0 0)
(0 0 0)
(0 0 0)
(0 0 0)
(0 0 0)
(0 0 0)
(0 0 0)
(0 0 0)
(0 0 0)
(-0.0003897506873 -0.0007531801074 2.220446049e-15)
(-0.0007072344481 -0.001336419913 4.024558464e-15)
(-0.001050768267 -0.001940569016 5.981326545e-15)
(-0.006033241651 -0.01219650703 3.762268275e-14)
(-0.005154190267 -0.01066520646 3.215483435e-14)
(-0.008401002804 -0.01823200292 5.501155087e-14)
(-0.009504340104 -0.02014796826 6.222800053e-14)
(-0.02061748039 -0.05107404025 1.581790254e-13)
(-0.01911185158 -0.04848093384 1.467020949e-13)
(-0.02221293123 -0.05970437514 1.807998196e-13)
(-0.02374489012 -0.06232696337 1.931788063e-13)
(-0.02897506773 -0.09291498673 2.883804306e-13)
(-0.02770158716 -0.09091621141 2.757100104e-13)
(-0.02798658886 -0.09930953883 3.011896288e-13)
(-0.02907440905 -0.1008396089 3.129718706e-13)
(-0.02479309125 -0.1147080874 3.556044348e-13)
(-0.02443351771 -0.1154307957 3.497202528e-13)
(-0.02211288187 -0.1177174315 3.564371021e-13)
(-0.02222044072 -0.1159720742 3.592681708e-13)
(-0.01368844482 -0.1163065409 0)
(-0.01377170095 -0.1189829351 0)
(-0.01092295093 -0.1190715528 0)
(-0.01083969481 -0.1163951586 0)
(-0.01226410089 -0.1163508488 0)
(0 0 0)
(0 0 0)
(0 0 0)
(0 0 0)
(0 0 0)
(0 0 0)
(0 0 0)
(0 0 0)
(0 0 0)
(0 0 0)
(0 0 0)
(0 0 0)
(0 0 0)
(0 0 0)
(0 0 0)
(0 0 0)
(-9.572822445e-06 -1.931637889e-05 5.551115123e-17)
(-0.002292130924 -0.005073621993 1.432187702e-14)
(-0.001438637775 -0.003253764582 8.992806499e-15)
(-0.00334769756 -0.007950818128 2.198241589e-14)
(-0.004599403235 -0.01068658822 3.018418848e-14)
(-0.01342887436 -0.03654301112 1.034450303e-13)
(-0.01130896279 -0.03149147373 8.724965195e-14)
(-0.01400918195 -0.04136306472 1.146721607e-13)
(-0.01628269966 -0.04696668019 1.330185961e-13)
(-0.02223386655 -0.0783021336 2.221001161e-13)
(-0.01993971064 -0.07192276199 1.99673611e-13)
(-0.02086157777 -0.08131771565 2.257916076e-13)
(-0.02302970371 -0.08764168636 2.486344464e-13)
(-0.02163161628 -0.1091792032 3.09613446e-13)
(-0.02009504827 -0.103857545 2.883249195e-13)
(-0.01878629905 -0.1091399895 3.028827189e-13)
(-0.02007733501 -0.1139339557 3.229638779e-13)
(-0.01336073342 -0.1218190233 3.447381269e-13)
(-0.01271092249 -0.1185440883 3.285011152e-13)
(-0.01023063022 -0.1198307668 3.318595398e-13)
(-0.01072368032 -0.1228134773 3.473332733e-13)
(0 0 0)
(0 0 0)
(0 0 0)
(0 0 0)
(0 0 0)
(0 0 0)
(0 0 0)
(0 0 0)
(0 0 0)
(0 0 0)
(0 0 0)
(0 0 0)
(0 0 0)
(0 0 0)
(0 0 0)
(0 0 0)
(0 0 0)
(-8.40420139e-06 -2.020825236e-05 5.551115123e-17)
(0 0 0)
(-8.654584915e-05 -0.0002231936859 5.689893001e-16)
(-0.00051153082 -0.001293520149 3.358424649e-15)
(-0.005173146903 -0.01540728349 4.014844013e-14)
(-0.003446635617 -0.01048813791 2.679800826e-14)
(-0.00513813494 -0.0166129753 4.246603069e-14)
(-0.007173932678 -0.02268755176 5.914713164e-14)
(-0.01235898415 -0.04793302428 1.250805015e-13)
(-0.009840853938 -0.03909711099 1.000172167e-13)
(-0.01092299216 -0.04697895777 1.202232758e-13)
(-0.01345617492 -0.05645950857 1.473682287e-13)
(-0.01413375591 -0.07885727161 2.058492266e-13)
(-0.01190869782 -0.06825646505 1.746935929e-13)
(-0.01145510614 -0.07394820801 1.892513923e-13)
(-0.01349087126 -0.08469817395 2.210731598e-13)
(-0.009481050195 -0.09613974941 2.507022367e-13)
(-0.008141454082 -0.08529525395 2.181310688e-13)
(-0.00655756831 -0.08700433098 2.22433183e-13)
(-0.007644694528 -0.09784219225 2.550459843e-13)
(0 0 0)
(0 0 0)
(0 0 0)
(0 0 0)
(0 0 0)
(0 0 0)
(0 0 0)
(0 0 0)
(0 0 0)
(0 0 0)
(0 0 0)
(0 0 0)
(0 0 0)
(0 0 0)
(0 0 0)
(0 0 0)
(0 0 0)
(0 0 0)
(0 0 0)
(0 0 0)
(0 0 0)
(-0.0002220840813 -0.0007176710448 1.734723476e-15)
(0 0 0)
(-0.000161435459 -0.0005661477281 1.346145417e-15)
(-0.0008005820618 -0.002754955853 6.661338148e-15)
(-0.003421703224 -0.01457366003 3.522182546e-14)
(-0.001906149662 -0.008295565631 1.96925809e-14)
(-0.00257034653 -0.01215394425 2.885192085e-14)
(-0.004241533568 -0.0196086994 4.740652315e-14)
(-0.005584176598 -0.0347274136 8.396061624e-14)
(-0.003836006152 -0.02449000023 5.814793091e-14)
(-0.003900908876 -0.02820894975 6.698808175e-14)
(-0.005561261713 -0.03911103489 9.456324612e-14)
(-0.004142329263 -0.04826315872 1.166566843e-13)
(-0.002991045537 -0.03612293029 8.576472865e-14)
(-0.002396198346 -0.03736514536 8.869294188e-14)
(-0.003320419588 -0.04968269655 1.200706201e-13)
(0 0 0)
(0 0 0)
(0 0 0)
(0 0 0)
(0 0 0)
(0 0 0)
(0 0 0)
(0 0 0)
(0 0 0)
(0 0 0)
(0 0 0)
(0 0 0)
(0 0 0)
(0 0 0)
(0 0 0)
(0 0 0)
(0 0 0)
(0 0 0)
(0 0 0)
(0 0 0)
(0 0 0)
(0 0 0)
(0 0 0)
(0 0 0)
(0 0 0)
(0 0 0)
(0 0 0)
(0 0 0)
(-2.496438139e-05 -0.000125281209 2.775557562e-16)
(-0.0004475967998 -0.003064677056 6.911138328e-15)
(-5.036298445e-05 -0.0003514658963 7.771561172e-16)
(-0.0001099949732 -0.0008744368733 1.942890293e-15)
(-0.0005669178691 -0.004416785473 9.950373858e-15)
(-0.0005827654866 -0.00775252676 1.747213485e-14)
(-0.0001881890549 -0.002567796273 5.689893001e-15)
(-0.0001613103894 -0.002893087916 6.411537967e-15)
(-0.0004775075227 -0.008322735291 1.874889133e-14)
(0 0 0)
(0 0 0)
(0 0 0)
(0 0 0)
(0 0 0)
(0 0 0)
(0 0 0)
(0 0 0)
(0 0 0)
(0 0 0)
(0 0 0)
(0 0 0)
(0 0 0)
(0 0 0)
(0 0 0)
(0 0 0)
(0 0 0)
(0 0 0)
(0 0 0)
(0 0 0)
(0 0 0)
(0 0 0)
(0 0 0)
(0 0 0)
(0 0 0)
(0 0 0)
(0 0 0)
(0 0 0)
(0 0 0)
(0 0 0)
(0 0 0)
(0 0 0)
(0 0 0)
(0 0 0)
(0 0 0)
(0 0 0)
(0 0 0)
(0 0 0)
(0 0 0)
(0 0 0)
(0 0 0)
(0 0 0)
(0 0 0)
(0 0 0)
(0 0 0)
(0 0 0)
(0 0 0)
(0 0 0)
(0 0 0)
(0 0 0)
(0 0 0)
(0 0 0)
(0 0 0)
(0 0 0)
(0 0 0)
(0 0 0)
(0 0 0)
(0 0 0)
(0 0 0)
(0 0 0)
(0 0 0)
(0 0 0)
(0 0 0)
(0 0 0)
(0 0 0)
(0 0 0)
(0 0 0)
(0 0 0)
(0 0 0)
(0 0 0)
(0 0 0)
(0 0 0)
(0 0 0)
(0 0 0)
(0 0 0)
(0 0 0)
(0 0 0)
(0 0 0)
(0 0 0)
(0 0 0)
(0 0 0)
(0 0 0)
(0 0 0)
(0 0 0)
(0 0 0)
(0 0 0)
(0 0 0)
(0 0 0)
(0 0 0)
(0 0 0)
(0 0 0)
(0 0 0)
(0 0 0)
(0 0 0)
(0 0 0)
(0 0 0)
(0 0 0)
(0 0 0)
(0 0 0)
(0 0 0)
(0 0 0)
(0 0 0)
(0 0 0)
(0 0 0)
(0 0 0)
(0 0 0)
(0 0 0)
(0 0 0)
(0 0 0)
(0 0 0)
(0 0 0)
(0 0 0)
(0 0 0)
(0 0 0)
(0 0 0)
(0 0 0)
(0 0 0)
(0 0 0)
(0 0 0)
(0 0 0)
(0 0 0)
(0 0 0)
(0 0 0)
(0 0 0)
(0 0 0)
(0 0 0)
(0 0 0)
(0 0 0)
(0 0 0)
(0 0 0)
(0 0 0)
(0 0 0)
(0 0 0)
(0 0 0)
(0 0 0)
(0 0 0)
(0 0 0)
(0 0 0)
(0 0 0)
(0 0 0)
(0 0 0)
(0 0 0)
(0 0 0)
(0 0 0)
(0 0 0)
(0 0 0)
(0 0 0)
(0 0 0)
(0 0 0)
(0 0 0)
(0 0 0)
(0 0 0)
(0 0 0)
(0 0 0)
(0 0 0)
(0 0 0)
(0 0 0)
(0 0 0)
(0 0 0)
(0 0 0)
(0 0 0)
(0 0 0)
(0 0 0)
(0 0 0)
(0 0 0)
(0 0 0)
(0 0 0)
(0 0 0)
(0 0 0)
(0 0 0)
(0 0 0)
(0 0 0)
(0 0 0)
(0 0 0)
(0 0 0)
(0 0 0)
(0 0 0)
(0 0 0)
(0 0 0)
(0 0 0)
(0 0 0)
(0 0 0)
(0 0 0)
(0 0 0)
(0 0 0)
(0 0 0)
(0 0 0)
(0 0 0)
(0 0 0)
(0 0 0)
(0 0 0)
(0 0 0)
(0 0 0)
(0 0 0)
(0 0 0)
(0 0 0)
(0 0 0)
(0 0 0)
(0 0 0)
(0 0 0)
(0 0 0)
(0 0 0)
(0 0 0)
(0 0 0)
(0 0 0)
(0 0 0)
(0 0 0)
(0 0 0)
(0 0 0)
(0 0 0)
(0 0 0)
(0 0 0)
(0 0 0)
(0 0 0)
(0 0 0)
(0 0 0)
(0 0 0)
(0 0 0)
(0 0 0)
(0 0 0)
(0 0 0)
(0 0 0)
(0 0 0)
(0 0 0)
(0 0 0)
(0 0 0)
(0 0 0)
(0 0 0)
(0 0 0)
(0 0 0)
(0 0 0)
(0 0 0)
(0 0 0)
(0 0 0)
(0 0 0)
(0 0 0)
(0 0 0)
(0 0 0)
(0 0 0)
(0 0 0)
(0 0 0)
(0 0 0)
(0 0 0)
(0 0 0)
(0 0 0)
(0 0 0)
(0 0 0)
(0 0 0)
(0 0 0)
(0 0 0)
(0 0 0)
(0 0 0)
(0 0 0)
(0 0 0)
(0 0 0)
(0 0 0)
(0 0 0)
(0 0 0)
(0 0 0)
(0 0 0)
(0 0 0)
(0 0 0)
(0 0 0)
(0 0 0)
(0 0 0)
(0 0 0)
(0 0 0)
(0 0 0)
(0 0 0)
(0 0 0)
(0 0 0)
(0 0 0)
(0 0 0)
(0 0 0)
(0 0 0)
(0 0 0)
(0 0 0)
(0 0 0)
(0 0 0)
(0 0 0)
(0 0 0)
(0 0 0)
(0 0 0)
(0 0 0)
(0 0 0)
(0 0 0)
(0 0 0)
(0 0 0)
(0 0 0)
(0 0 0)
(0 0 0)
(0 0 0)
(0 0 0)
(0 0 0)
(0 0 0)
(0 0 0)
(0 0 0)
(0 0 0)
(0 0 0)
(0 0 0)
(0 0 0)
(0 0 0)
(0 0 0)
(0 0 0)
(0 0 0)
(0 0 0)
(0 0 0)
(0 0 0)
(0 0 0)
(0 0 0)
(0 0 0)
(0 0 0)
(0 0 0)
(0 0 0)
(0 0 0)
(0 0 0)
(0 0 0)
(0 0 0)
(0 0 0)
(0 0 0)
(0 0 0)
(0 0 0)
(0 0 0)
(0 0 0)
(0 0 0)
(0 0 0)
(0 0 0)
(0 0 0)
(0 0 0)
(0 0 0)
(0 0 0)
(0 0 0)
(0 0 0)
(0 0 0)
(0 0 0)
(0 0 0)
(0 0 0)
(0 0 0)
(0 0 0)
(0 0 0)
(0 0 0)
(0 0 0)
(0 0 0)
(0 0 0)
(0 0 0)
(0 0 0)
(0 0 0)
(0 0 0)
(0 0 0)
(0 0 0)
(0 0 0)
(0 0 0)
(0 0 0)
(0 0 0)
(0 0 0)
(0 0 0)
(0 0 0)
(0 0 0)
(0 0 0)
(0 0 0)
(0 0 0)
(0 0 0)
(0 0 0)
(0 0 0)
(0 0 0)
(0 0 0)
(0 0 0)
(0 0 0)
(0 0 0)
(0 0 0)
(0 0 0)
(0 0 0)
(0 0 0)
(0 0 0)
(0 0 0)
(0 0 0)
(0 0 0)
(0 0 0)
(0 0 0)
(0 0 0)
(0 0 0)
(0 0 0)
(0 0 0)
(0 0 0)
(0 0 0)
(0 0 0)
(0 0 0)
(0 0 0)
(0 0 0)
(0 0 0)
(0 0 0)
(0 0 0)
(0 0 0)
(0 0 0)
(0 0 0)
(0 0 0)
(0 0 0)
(0 0 0)
(0 0 0)
(0 0 0)
(0 0 0)
(0 0 0)
(0 0 0)
(0 0 0)
(0 0 0)
(0 0 0)
(0 0 0)
(0 0 0)
(0 0 0)
(0 0 0)
(0 0 0)
(0 0 0)
(0 0 0)
(0 0 0)
(0 0 0)
(0 0 0)
(0 0 0)
(0 0 0)
(0 0 0)
(0 0 0)
(0 0 0)
(0 0 0)
(0 0 0)
(0 0 0)
(0 0 0)
(0 0 0)
(0 0 0)
(0 0 0)
(0 0 0)
(0 0 0)
(0 0 0)
(0 0 0)
(0 0 0)
(0 0 0)
(0 0 0)
(0 0 0)
(0 0 0)
(0 0 0)
(0 0 0)
(0 0 0)
(0 0 0)
(0 0 0)
(0 0 0)
(0 0 0)
(0 0 0)
(0 0 0)
(0 0 0)
(0 0 0)
(0 0 0)
(0 0 0)
(0 0 0)
(0 0 0)
(0 0 0)
(0 0 0)
(0 0 0)
(0 0 0)
(0 0 0)
(0 0 0)
(0 0 0)
(0 0 0)
(0 0 0)
(0 0 0)
(0 0 0)
(0 0 0)
(0 0 0)
(0 0 0)
(0 0 0)
(0 0 0)
(0 0 0)
(0 0 0)
(0 0 0)
(0 0 0)
(0 0 0)
(0 0 0)
(0 0 0)
(0 0 0)
(0 0 0)
(0 0 0)
(0 0 0)
(0 0 0)
(0 0 0)
(0 0 0)
(0 0 0)
(0 0 0)
(0 0 0)
(0 0 0)
(0 0 0)
(0 0 0)
(0 0 0)
(0 0 0)
(0 0 0)
(0 0 0)
(0 0 0)
(0 0 0)
(0 0 0)
(0 0 0)
(0 0 0)
(0 0 0)
(0 0 0)
(0 0 0)
(0 0 0)
(0 0 0)
(0 0 0)
(0 0 0)
(0 0 0)
(0 0 0)
(0 0 0)
(0 0 0)
(0 0 0)
(0 0 0)
(0 0 0)
(0 0 0)
(0 0 0)
(0 0 0)
(0 0 0)
(0 0 0)
(0 0 0)
(0 0 0)
(0 0 0)
(0 0 0)
(0 0 0)
(0 0 0)
(0 0 0)
(0 0 0)
(0 0 0)
(0 0 0)
(0 0 0)
(0 0 0)
(0 0 0)
(0 0 0)
(0 0 0)
(0 0 0)
(0 0 0)
(0 0 0)
(0 0 0)
(0 0 0)
(0 0 0)
(0 0 0)
(0 0 0)
(0 0 0)
(0 0 0)
(0 0 0)
(0 0 0)
(0 0 0)
(0 0 0)
(0 0 0)
(0 0 0)
(0 0 0)
(0 0 0)
(0 0 0)
(0 0 0)
(0 0 0)
(0 0 0)
(0 0 0)
(0 0 0)
(0 0 0)
(0 0 0)
(0 0 0)
(0 0 0)
(0 0 0)
(0 0 0)
(0 0 0)
(0 0 0)
(0 0 0)
(0 0 0)
(0 0 0)
(0 0 0)
(0 0 0)
(0 0 0)
(0 0 0)
(0 0 0)
(0 0 0)
(0 0 0)
(0 0 0)
(0 0 0)
(0 0 0)
(0 0 0)
(0 0 0)
(0 0 0)
(0 0 0)
(0 0 0)
(0 0 0)
(0 0 0)
(0 0 0)
(0 0 0)
(0 0 0)
(0 0 0)
(0 0 0)
(0 0 0)
(0 0 0)
(0 0 0)
(0 0 0)
(0 0 0)
(0 0 0)
(0 0 0)
(0 0 0)
(0 0 0)
(0 0 0)
(0 0 0)
(0 0 0)
(0 0 0)
(0 0 0)
(0 0 0)
(0 0 0)
(0 0 0)
(0 0 0)
(0 0 0)
(0 0 0)
(0 0 0)
(0 0 0)
(0 0 0)
(0 0 0)
(0 0 0)
(0 0 0)
(0 0 0)
(0 0 0)
(0 0 0)
(0 0 0)
(0 0 0)
(0 0 0)
(0 0 0)
(0 0 0)
(0 0 0)
(0 0 0)
(0 0 0)
(0 0 0)
(0 0 0)
(0 0 0)
(0 0 0)
(-0.01269044721 -0.09421039696 0)
(-0.01339375034 -0.09418914106 0)
(-0.01262246332 -0.1049549518 0)
(-0.01333463529 -0.1049327979 0)
(-0.02186411259 -0.09325975997 0)
(-0.02182485415 -0.09192173801 0)
(-0.0246638729 -0.09183429404 0)
(-0.01337517196 -0.09351991075 0)
(-0.01478413432 -0.09347713901 0)
(-0.01482214966 -0.09481519963 0)
(-0.01326295937 -0.08950666728 0)
(-0.02186014312 -0.1039981551 0)
(-0.02203012009 -0.1026923221 0)
(-0.02487459551 -0.1026002912 0)
(-0.01331383092 -0.1042640101 0)
(-0.01473823701 -0.1042197003 0)
(-0.01477986507 -0.1055578974 0)
(-0.01486014373 -0.09615257655 0)
(-0.01345018109 -0.09619519277 0)
(-0.01356668044 -0.1002082407 0)
(-0.01286288006 -0.100229512 0)
(-0.01284301382 -0.09956088172 0)
(-0.01354681226 -0.0995395482 0)
(-0.007928041486 -0.1003788545 0)
(-0.007896412674 -0.1000472984 0)
(-0.008260692345 -0.10003522 0)
(-0.00828472609 -0.1003678211 0)
(-0.007743675949 -0.09503234523 0)
(-0.008122381522 -0.09501900924 0)
(-0.008138946999 -0.09535153159 0)
(-0.007765711897 -0.09536432412 0)
(-0.01222247283 -0.1150126517 0)
(-0.01364681676 -0.1149683438 0)
(-0.007729000125 -0.09469876865 0)
(-0.008110998394 -0.09468508137 0)
(-0.0132816582 -0.09017576942 0)
(-0.012578357 -0.09019708748 0)
(-0.007369806865 -0.09504515747 0)
(-0.007348222442 -0.09471229353 0)
(-0.007659054971 -0.1057756756 0)
(-0.007639368728 -0.1051006315 0)
(-0.007992255793 -0.1050915205 0)
(-0.008347493694 -0.1050835807 0)
(-0.008369824298 -0.1057554318 0)
(-0.008311483054 -0.1006999642 0)
(-0.007960963122 -0.1007103703 0)
(-0.0135867895 -0.1008766768 0)
(-0.0128829231 -0.1008978258 0)
(-0.007654538021 -0.1007184715 0)
(-0.007619144135 -0.1003872814 0)
(-0.0069486047 -0.105797776 0)
(-0.006933337677 -0.1051225944 0)
(-0.007288302805 -0.1051096859 0)
(-0.007398564947 -0.09537642953 0)
(-0.0075820693 -0.1000564547 0)
(-0.004154326509 -0.097989473 0)
(-0.003790637998 -0.0980021552 0)
(-0.003768182707 -0.09767149587 0)
(-0.004128997723 -0.09765884084 0)
(-0.00794863395 -0.09769363042 0)
(-0.008277746313 -0.09768544564 0)
(-0.008289997677 -0.09801928428 0)
(-0.007966776504 -0.0980268503 0)
(-0.01068334774 -0.09761714581 0)
(-0.01070239823 -0.09828555264 0)
(-0.01000628574 -0.0983059627 0)
(-0.009987547962 -0.09763760836 0)
(-0.01076127236 -0.1002921505 0)
(-0.01006503556 -0.1003125644 0)
(-0.0100545168 -0.09997842302 0)
(-0.01004474584 -0.09964432057 0)
(-0.01074128374 -0.09962358619 0)
(-0.01060678861 -0.09494203644 0)
(-0.01062569352 -0.09560976343 0)
(-0.009928029086 -0.09563028399 0)
(-0.00990857058 -0.09496276086 0)
(-0.009968004099 -0.09696934131 0)
(-0.01066423703 -0.09694880307 0)
(-0.007924864293 -0.09736151882 0)
(-0.008260361219 -0.09735257549 0)
(-0.007759640355 -0.09234614528 0)
(-0.008101648089 -0.09233650169 0)
(-0.008114662715 -0.09267087652 0)
(-0.007776500857 -0.09268015162 0)
(-0.01053167478 -0.09226538895 0)
(-0.0105506319 -0.09293479412 0)
(-0.00985303349 -0.09295543706 0)
(-0.009833953998 -0.0922860979 0)
(-0.009889887219 -0.09429415597 0)
(-0.01058810525 -0.09427343154 0)
(-0.01047477967 -0.09026040935 0)
(-0.009775945893 -0.09028133957 0)
(-0.00981463942 -0.09161720157 0)
(-0.01051267291 -0.0915965451 0)
(-0.007740413267 -0.09201246142 0)
(-0.008086961079 -0.09200236552 0)
(-0.007420454874 -0.09235551442 0)
(-0.007395123334 -0.09202239375 0)
(-0.007443405461 -0.09268889581 0)
(-0.0107816223 -0.1009603302 0)
(-0.01008606147 -0.1009804743 0)
(-0.0100752999 -0.1006465271 0)
(-0.01069588772 -0.1030482622 0)
(-0.00999648663 -0.1030429553 0)
(-0.01007395573 -0.1026673168 0)
(-0.01010842894 -0.1023215103 0)
(-0.01080491294 -0.1023110431 0)
(-0.007892196179 -0.1031055528 0)
(-0.008011554578 -0.1027263092 0)
(-0.008343391527 -0.1027217104 0)
(-0.008232502892 -0.1031090273 0)
(-0.007717781282 -0.1030223218 0)
(-0.007797025276 -0.10271774 0)
(-0.004404464645 -0.103321742 0)
(-0.004388695167 -0.1029890083 0)
(-0.004724754921 -0.1029859579 0)
(-0.004740736141 -0.1033184984 0)
(-0.004247064441 -0.1006678742 0)
(-0.004593695393 -0.100660451 0)
(-0.004608574395 -0.100993959 0)
(-0.004263167208 -0.101000722 0)
(-0.007623351164 -0.09770132279 0)
(-0.007592336856 -0.09737012092 0)
(-0.004481281417 -0.09762573356 0)
(-0.004580016971 -0.09789833744 0)
(-0.004231738611 -0.1003350022 0)
(-0.004580878419 -0.1003266299 0)
(-0.004498561352 -0.09832362323 0)
(-0.004160490398 -0.09832742056 0)
(-0.007651421532 -0.09803348726 0)
(-0.0038029435 -0.09833773418 0)
(-0.003904002157 -0.1006738177 0)
(-0.003886459601 -0.1003418857 0)
(-0.02215152023 -0.1133649133 0)
(-0.02493215273 -0.1129894922 3.585742814e-13)
(-0.01360520803 -0.1136307683 0)
(-0.01502961411 -0.1135864585 0)
(-0.0164540202 -0.1135421486 0)
(-0.01653725699 -0.1162179213 0)
(-0.01482149313 -0.1068960945 0)
(-0.0135219519 -0.1109543741 0)
(-0.01209760797 -0.110998682 0)
(-0.01205597991 -0.1096604849 0)
(-0.01348032384 -0.109616177 0)
(-0.00782443323 -0.1111316101 0)
(-0.007782805167 -0.1097934129 0)
(-0.009207167742 -0.1097491045 0)
(-0.009248795806 -0.1110873016 0)
(-0.008390915952 -0.1064254549 0)
(-0.007679172168 -0.1064469734 0)
(-0.007897729641 -0.09903943433 0)
(-0.008255676821 -0.09902798839 0)
(-0.008241364233 -0.09936588856 0)
(-0.007868802752 -0.0993785357 0)
(-0.009326974563 -0.09899447627 0)
(-0.009334431975 -0.09933020607 0)
(-0.008977475822 -0.09934131011 0)
(-0.008973926441 -0.09900520988 0)
(-0.009365387967 -0.1003333333 0)
(-0.009009735137 -0.1003443346 0)
(-0.008995745366 -0.1000106122 0)
(-0.009353629976 -0.09999935489 0)
(-0.006967435289 -0.1064691138 0)
(-0.006400045792 -0.1111759193 0)
(-0.006358417729 -0.1098377222 0)
(-0.007680408225 -0.09101390851 0)
(-0.007317411711 -0.09102563596 0)
(-0.007292738873 -0.09069349023 0)
(-0.007661224504 -0.09068121874 0)
(-0.007770670333 -0.0936877206 0)
(-0.007745621643 -0.09402589253 0)
(-0.007379755086 -0.09403795812 0)
(-0.007431062198 -0.0936971029 0)
(-0.00795608105 -0.1034856287 0)
(-0.007496004681 -0.1035683772 0)
(-0.01044365499 -0.1036838594 0)
(-0.009730239929 -0.103706052 0)
(-0.009782303421 -0.1033977118 0)
(-0.01050664682 -0.1056908268 0)
(-0.009794269052 -0.105712365 0)
(-0.009773091758 -0.1050435889 0)
(-0.01048563665 -0.1050214233 0)
(-0.009377884085 -0.1006670399 0)
(-0.00902508265 -0.1006777036 0)
(-0.009415108065 -0.1016696611 0)
(-0.009070868552 -0.1016795608 0)
(-0.009056983756 -0.101345213 0)
(-0.009403583226 -0.1013351777 0)
(-0.008060699025 -0.1017061319 0)
(-0.008029853093 -0.1013737427 0)
(-0.008367069364 -0.1013648703 0)
(-0.008391184599 -0.101698091 0)
(-0.003922375657 -0.1010056617 0)
(-0.004355669781 -0.1026631573 0)
(-0.00776536597 -0.1017132037 0)
(-0.00773049626 -0.1013810641 0)
(-0.005703966188 -0.1019721867 0)
(-0.005679933122 -0.1016430074 0)
(-0.006010974131 -0.1016218218 0)
(-0.006116681158 -0.1018859342 0)
(-0.004809606048 -0.1058674258 0)
(-0.00478941633 -0.1051979968 0)
(-0.005503395628 -0.1051745423 0)
(-0.00552247346 -0.1058446281 0)
(-0.004786823066 -0.1036408324 0)
(-0.004449755844 -0.1036450962 0)
(-0.007845804604 -0.09636262543 0)
(-0.007496954708 -0.09637291737 0)
(-0.007464148271 -0.09603990479 0)
(-0.007818566151 -0.09602900414 0)
(-0.007513590455 -0.09941129858 0)
(-0.007482229693 -0.09913155941 0)
(-0.004104266417 -0.09659641558 0)
(-0.004007408764 -0.09632617967 0)
(-0.004029809875 -0.09701849732 0)
(-0.009295776655 -0.09765757231 0)
(-0.009305298999 -0.09799168249 0)
(-0.008962050099 -0.0980014269 0)
(-0.008952587976 -0.09766725263 0)
(-0.008971470431 -0.09867025773 0)
(-0.009319435377 -0.09866011776 0)
(-0.00794385178 -0.09869930034 0)
(-0.008277344968 -0.09869054377 0)
(-0.008199799829 -0.09635173793 0)
(-0.008220523608 -0.09668593517 0)
(-0.007872717917 -0.09669619462 0)
(-0.009252988915 -0.09632009565 0)
(-0.009263849384 -0.09665522186 0)
(-0.008917005161 -0.09666538919 0)
(-0.008904406286 -0.09633037927 0)
(-0.008941402914 -0.0973336919 0)
(-0.009285642427 -0.09732379224 0)
(-0.007700210045 -0.09134626797 0)
(-0.007342957482 -0.09135744345 0)
(-0.007461154422 -0.093358463 0)
(-0.007787301992 -0.09335037044 0)
(-0.008405937631 -0.1020323496 0)
(-0.008081514245 -0.1020392686 0)
(-0.009422410231 -0.1020044003 0)
(-0.009079291441 -0.1020143273 0)
(-0.009293632398 -0.1030626419 0)
(-0.008939818515 -0.1030767589 0)
(-0.009030165583 -0.1026991022 0)
(-0.009377833572 -0.1026874161 0)
(-0.005828891451 -0.1032764984 0)
(-0.005775682789 -0.1029594254 0)
(-0.006174371243 -0.1029314694 0)
(-0.00632947224 -0.1032092257 0)
(-0.006052150233 -0.1023032899 0)
(-0.005716659268 -0.1023058249 0)
(-0.007798124484 -0.1020444757 0)
(-0.005616730345 -0.1006244584 0)
(-0.005719716765 -0.1008925128 0)
(-0.005307650555 -0.1009786206 0)
(-0.005286586989 -0.1006463004 0)
(-0.005352983414 -0.101981114 0)
(-0.005334539196 -0.1016493967 0)
(-0.004318615459 -0.10199979 0)
(-0.004298698723 -0.1016669364 0)
(-0.004640823013 -0.1016626397 0)
(-0.004658227857 -0.1019959447 0)
(-0.007529183104 -0.09670594793 0)
(-0.004275023736 -0.09706026813 0)
(-0.004192789486 -0.09933212362 0)
(-0.004544553064 -0.09932329642 0)
(-0.004555583285 -0.09965847957 0)
(-0.004204416395 -0.09966728821 0)
(-0.00526012753 -0.100317321 0)
(-0.005513230945 -0.1003551135 0)
(-0.004183871431 -0.09899643926 0)
(-0.004539031993 -0.09898601323 0)
(-0.007641215796 -0.09870460841 0)
(-0.009210237911 -0.09498379993 0)
(-0.009219672966 -0.09531710403 0)
(-0.008867246394 -0.09532781831 0)
(-0.008856323487 -0.09499468492 0)
(-0.008891741388 -0.09599524697 0)
(-0.009241503029 -0.09598486446 0)
(-0.008178885719 -0.09601742218 0)
(-0.008121640129 -0.09367717607 0)
(-0.008113007131 -0.09401365526 0)
(-0.009175073968 -0.09364540175 0)
(-0.009182939396 -0.09398024784 0)
(-0.008831940456 -0.09399085549 0)
(-0.008825873656 -0.09365582901 0)
(-0.008846428212 -0.09466058634 0)
(-0.00919984733 -0.09464977897 0)
(-0.007047826849 -0.09505542235 0)
(-0.007014909626 -0.0947256484 0)
(-0.006983271087 -0.09441057967 0)
(-0.007346983567 -0.09437686801 0)
(-0.00772848653 -0.09436325835 0)
(-0.007995478275 -0.1010417121 0)
(-0.00769231949 -0.101049214 0)
(-0.007791425486 -0.09569612639 0)
(-0.007430826221 -0.09570771705 0)
(-0.007116695004 -0.09571649346 0)
(-0.007080794899 -0.09538563022 0)
(-0.007872112493 -0.09971433231 0)
(-0.007546058277 -0.09972702588 0)
(-0.00390943316 -0.09605280557 0)
(-0.003745327944 -0.09558899495 0)
(-0.009138400903 -0.09230649057 0)
(-0.009148375734 -0.09264114661 0)
(-0.008801902508 -0.09265124019 0)
(-0.008791679057 -0.09231659188 0)
(-0.00881924746 -0.09332081994 0)
(-0.009166651078 -0.09331063521 0)
(-0.008126611783 -0.09334099742 0)
(-0.008041108872 -0.09100237691 0)
(-0.008056252519 -0.09133519236 0)
(-0.00909801759 -0.09097030785 0)
(-0.009107951817 -0.09130365863 0)
(-0.008759308967 -0.09131400635 0)
(-0.008748630813 -0.09098074091 0)
(-0.008781022454 -0.09198201926 0)
(-0.009128301762 -0.09197183839 0)
(-0.00708366899 -0.09236462228 0)
(-0.007052527062 -0.09203211786 0)
(-0.007021007507 -0.09169987405 0)
(-0.007369030741 -0.09168960782 0)
(-0.007720348605 -0.09167905247 0)
(-0.007787592544 -0.0930147107 0)
(-0.007459986265 -0.09302291085 0)
(-0.007139783892 -0.09303032075 0)
(-0.007113646271 -0.09269728736 0)
(-0.008072245879 -0.102377323 0)
(-0.008396939153 -0.1023710799 0)
(-0.008731321157 -0.1023622957 0)
(-0.008684249535 -0.1027111071 0)
(-0.008584763183 -0.1030929677 0)
(-0.006695518773 -0.1031963457 0)
(-0.006576817895 -0.1028559263 0)
(-0.00689527595 -0.1032314426 0)
(-0.007817188026 -0.1023809021 0)
(-0.004675700109 -0.1023278167 0)
(-0.004337353324 -0.102331747 0)
(-0.005367470151 -0.1023140121 0)
(-0.005467022007 -0.1032900572 0)
(-0.005417572761 -0.1029714363 0)
(-0.007325635638 -0.09770840647 0)
(-0.007290728768 -0.09737807226 0)
(-0.007257004917 -0.09704676803 0)
(-0.007560977659 -0.09703843205 0)
(-0.007899178743 -0.09702921795 0)
(-0.004074930775 -0.09734017696 0)
(-0.00437733042 -0.09733867136 0)
(-0.004754416857 -0.0983600858 0)
(-0.00485619097 -0.09863016877 0)
(-0.004521898556 -0.09865363297 0)
(-0.004170963158 -0.09866268327 0)
(-0.007970289149 -0.09836176958 0)
(-0.007666335063 -0.0983673053 0)
(-0.007396697592 -0.09836860054 0)
(-0.007361619582 -0.09803976483 0)
(-0.003840179355 -0.09934153709 0)
(-0.003827933103 -0.09900726278 0)
(-0.006900715633 -0.09037270967 0)
(-0.006929524816 -0.09070522445 0)
(-0.006611770235 -0.09071492238 0)
(-0.006580408416 -0.09038254922 0)
(-0.006958992567 -0.09103690994 0)
(-0.006643030815 -0.09104624102 0)
(-0.007123383783 -0.09370331441 0)
(-0.006955200947 -0.0941314225 0)
(-0.006909011051 -0.09367277837 0)
(-0.009066417341 -0.1034224698 0)
(-0.008702658659 -0.1034368962 0)
(-0.009036433099 -0.104394581 0)
(-0.008677721423 -0.104403251 0)
(-0.008662078886 -0.104068398 0)
(-0.009022736702 -0.1040602896 0)
(-0.00761653404 -0.1044113759 0)
(-0.007591801728 -0.1040631183 0)
(-0.007939368955 -0.104071593 0)
(-0.007963134442 -0.1044111706 0)
(-0.008339481184 -0.1010320065 0)
(-0.008689862441 -0.1010215425 0)
(-0.008710755283 -0.1013551745 0)
(-0.008728796729 -0.1016891441 0)
(-0.005648734131 -0.1013156686 0)
(-0.005901918206 -0.101354454 0)
(-0.007286399186 -0.1044116912 0)
(-0.007299793517 -0.1040404723 0)
(-0.006211470532 -0.1044718821 0)
(-0.006213995232 -0.1041302424 0)
(-0.006586914912 -0.1041037102 0)
(-0.006576508939 -0.1044511944 0)
(-0.006349130477 -0.1035623695 0)
(-0.005965421457 -0.1035674621 0)
(-0.007188444651 -0.0963813945 0)
(-0.007153220385 -0.09604845713 0)
(-0.006743731092 -0.09204060388 0)
(-0.006709789425 -0.09170849763 0)
(-0.006777498309 -0.09237290221 0)
(-0.006989619166 -0.0913682483 0)
(-0.006675928834 -0.09137719765 0)
(-0.007152296995 -0.0933647734 0)
(-0.006878121379 -0.0933665831 0)
(-0.00684491465 -0.09303750253 0)
(-0.006811209587 -0.09270520227 0)
(-0.008739519354 -0.1020238391 0)
(-0.005754257196 -0.1026296672 0)
(-0.006100072673 -0.1026228293 0)
(-0.006427191692 -0.1026045655 0)
(-0.006305612071 -0.1023420045 0)
(-0.005319079115 -0.101315409 0)
(-0.004971021503 -0.1013215701 0)
(-0.004958088651 -0.1009858239 0)
(-0.004941935056 -0.1006525422 0)
(-0.007222916842 -0.09671435526 0)
(-0.004922023932 -0.09998266898 0)
(-0.004902505951 -0.09965123391 0)
(-0.005234408708 -0.09962915056 0)
(-0.005336675931 -0.09989548528 0)
(-0.004877129233 -0.09932166091 0)
(-0.005130858895 -0.09935918505 0)
(-0.004929688389 -0.1003184545 0)
(-0.004956027792 -0.09889757453 0)
(-0.007428869873 -0.09867282724 0)
(-0.01052627139 -0.01762542157 6.866729407e-14)
(-0.006792299792 -0.01084268937 4.218847494e-14)
(-0.02225070145 -0.04363423763 1.706829122e-13)
(-0.01853103437 -0.03437610279 1.342953526e-13)
(-0.01838040311 -0.03507206466 1.331434962e-13)
(-0.02546148872 -0.0529718374 2.074174166e-13)
(-0.03041449802 -0.07770146019 3.047562203e-13)
(-0.0296528298 -0.07036036908 2.759042994e-13)
(-0.02983840769 -0.07274027102 2.771671781e-13)
(-0.03023660172 -0.08372949735 3.283762151e-13)
(-0.02725089196 -0.09093625314 3.562844464e-13)
(-0.0273624777 -0.09369654181 3.566869022e-13)
(-0.02458575602 -0.0891591087 0)
(-0.02174754529 -0.08924652754 0)
(-0.01891287739 -0.08933383616 0)
(-0.02032965194 -0.08929019925 0)
(-0.01186956448 -0.02218739225 7.745193376e-14)
(-0.007951113866 -0.01417570339 4.941880238e-14)
(-0.02374821314 -0.05189849924 1.817990203e-13)
(-0.02004038979 -0.04145634549 1.45064516e-13)
(-0.02022189349 -0.0430365499 1.46826995e-13)
(-0.0191665585 -0.03755914825 1.386946114e-13)
(-0.02689197886 -0.06230297534 2.184641357e-13)
(-0.03139649161 -0.0891062966 3.128469706e-13)
(-0.0308163809 -0.08129786546 2.853828285e-13)
(-0.03085705725 -0.08377439911 2.86659585e-13)
(-0.03003590223 -0.07516357064 2.784994457e-13)
(-0.03101808417 -0.09534305792 3.347044863e-13)
(-0.0276142452 -0.1021421252 3.581857033e-13)
(-0.02750513419 -0.104821354 3.583244812e-13)
(-0.02747674563 -0.09646694728 3.571309914e-13)
(-0.02490572161 -0.09986888688 0)
(-0.02206366033 -0.09994852417 0)
(-0.02202282095 -0.09860968038 0)
(-0.01922512722 -0.1000355797 0)
(-0.01918460828 -0.09869703706 0)
(-0.02060324749 -0.09865334214 0)
(-0.02064395289 -0.09999187902 0)
(-0.01906634318 -0.09468522618 0)
(-0.02048417436 -0.0946415564 0)
(-0.02052347369 -0.09597889271 0)
(-0.01910533173 -0.09602257216 0)
(-0.0134883188 -0.09753318737 0)
(-0.01278470489 -0.09755445294 0)
(-0.01276571463 -0.09688598202 0)
(-0.01346920229 -0.09686465816 0)
(-0.01136289014 -0.09692806511 0)
(-0.01138187848 -0.09759647387 0)
(-0.01130612349 -0.09492121506 0)
(-0.01132484193 -0.09558894785 0)
(-0.01045165446 -0.02163472893 6.838973832e-14)
(-0.006800805608 -0.01342602435 4.241051954e-14)
(-0.0218687198 -0.05289483264 1.677408212e-13)
(-0.01824687436 -0.0417896656 1.323940957e-13)