/*--------------------------------*- C++ -*----------------------------------*\
| =========                 |                                                 |
| \\      /  F ield         | OpenFOAM: The Open Source CFD Toolbox           |
|  \\    /   O peration     | Version:  v2012                                 |
|   \\  /    A nd           | Website:  www.openfoam.com                      |
|    \\/     M anipulation  |                                                 |
\*---------------------------------------------------------------------------*/
FoamFile
{
    version     2.0;
    format      ascii;
    class       volScalarField;
    location    "1.97";
    object      k;
}
// * * * * * * * * * * * * * * * * * * * * * * * * * * * * * * * * * * * * * //

dimensions      [0 2 -2 0 0 0 0];


internalField   nonuniform List<scalar> 
3259
(
37.00864365
37.00608329
36.99583085
36.98193185
36.97055213
36.96267652
36.95846625
36.95605261
36.90987175
36.90907407
36.90867779
36.90842108
37.04648236
37.03799386
37.00349975
36.9404349
36.88226988
36.84248786
36.79744474
36.78347107
36.73192609
36.72923034
36.72793766
36.72724099
37.13033607
37.11465836
37.05295339
36.94738848
36.82460264
36.7326027
36.65190926
36.61986517
36.559164
36.55284848
36.54988446
36.54868099
37.31386593
37.288867
37.18805912
37.02289711
36.84017107
36.67415368
36.53531326
36.47238649
36.39306168
36.38093951
36.3750953
36.37282517
37.71199516
37.66672175
37.48792288
37.20972552
36.92546361
36.68528493
36.46247982
36.34627149
36.23645736
36.21339084
36.20292825
36.19886638
38.6271109
38.50955608
38.07107021
37.57415633
37.11025645
36.74835419
36.4396942
36.24664689
36.09148955
36.05031323
36.0327361
36.02587186
40.62242428
40.49546142
39.13323877
38.16807755
37.41059267
36.87154975
36.45493426
36.17802987
35.95722725
35.89227347
35.86443403
35.85363488
43.5478934
40.82986162
39.01042379
37.81931061
37.04908591
36.4979293
36.13677921
35.83673994
35.74093874
35.69923775
35.68328225
48.72196685
42.88547863
40.00837095
38.30585333
37.26506768
36.56084423
36.11716713
35.73059044
35.59843629
35.54002863
35.51776378
52.20614857
44.74014395
40.98469615
38.788592
37.48954058
36.63647817
36.11531615
35.64060962
35.46854024
35.39083088
35.36113132
53.88521068
46.09914696
41.76887401
39.2027945
37.69777946
36.7143371
36.12172656
35.56578471
35.35324266
35.25548153
35.21753126
54.60365747
46.94967691
42.31360832
39.51476233
37.87308583
36.78578428
36.13043472
35.50699989
35.25373411
35.1358148
35.0893209
49.36230887
43.97110631
53.19066015
49.83393435
54.90177465
53.50125594
55.57643307
55.01341519
55.61698372
40.59656917
43.45416687
40.36656009
54.19534424
45.97665782
48.15593693
43.38589555
41.47976745
57.24930611
60.24610759
51.89114386
45.68912936
44.00052684
55.15627243
54.78656944
53.74988486
47.35099776
46.15939742
56.88988479
55.82271212
41.21407187
58.07334777
57.74439473
60.22478372
54.56913452
47.05571047
53.32305433
58.74450041
54.91382447
56.97271278
51.72281874
58.27583573
56.77351717
58.92130778
58.42797121
51.46439753
55.62315699
55.24951195
54.43969631
57.25509656
57.51822984
56.69597389
57.21002111
54.25126681
57.67670079
57.0111829
44.41058751
46.50046957
58.11462849
40.70199562
69.31763653
50.18843335
59.77160411
54.5616359
48.39696713
47.6519236
69.95702828
47.5118815
45.76927366
45.49786289
52.198643
46.37162319
45.28447367
41.99502784
55.37188641
57.8644783
58.02696178
57.55648668
57.83329898
55.30372262
42.43994169
45.33349342
42.42163157
42.47013345
75.61944275
50.71670371
68.94155231
48.78804884
64.23580349
49.7315873
59.37457939
59.56793372
54.86987317
54.84986324
42.07495458
53.4502722
56.46754729
42.97675401
41.82482785
56.86394293
43.81419365
56.32291643
51.0220943
48.51532991
61.64466472
58.40708515
57.99863236
56.05844104
56.2342905
57.55965235
56.2385729
55.64652587
56.79115165
56.39585481
57.44368577
59.35050987
54.25059494
53.13293044
55.41485503
54.57416527
59.30492498
55.84717528
57.92314851
55.76458206
41.89780379
44.44774151
57.34397881
41.66358064
41.85300348
71.21812734
51.75985038
69.21951941
41.08360664
42.81332343
58.2654532
44.08231976
51.77252467
44.36100511
48.83874307
44.17941233
44.48172399
58.26824385
62.01563926
60.17541808
60.13725699
54.94355683
44.95526921
44.73516627
51.46276201
51.0167591
54.57918236
59.72144692
64.31938134
62.50185362
56.14887051
50.78565315
49.13728285
52.70876751
51.30089501
56.54549875
55.35328137
51.82547116
51.67721922
56.45971055
44.75227049
44.70116077
55.44758344
57.37265376
57.40667181
57.35548503
56.59390921
57.13644834
56.89102158
57.32967109
57.19332934
56.59962681
57.43040413
45.08107552
49.92152095
61.93602567
61.12765848
60.55236089
59.78114226
59.47757176
59.19237059
40.29355666
40.74981415
70.42499531
65.30555634
51.67048341
65.72496859
50.88973212
43.71695411
43.13590759
57.7896279
66.36367663
76.09654811
59.68528857
55.17627108
64.41411263
60.63396039
54.30699999
50.59031671
57.58923758
57.19909743
56.95622201
58.62877262
60.00919217
59.69454336
57.89194224
46.54510963
45.31715374
54.88918933
53.03948227
52.0440778
47.1595441
52.31905684
51.59689802
54.6205834
51.04328669
47.07962124
44.28668341
45.57644244
42.02914521
49.93065028
48.71182028
48.2214349
46.2977928
44.91462656
48.22393851
46.87184534
46.62188211
48.25856921
40.3860442
40.24654094
64.65678491
63.74950701
59.43252245
65.53067744
67.02173317
66.06259021
66.50493943
65.63017009
67.5036747
66.25722588
56.58045889
63.63569056
64.82301933
52.25640012
51.8381832
55.52258315
56.45567173
53.66994747
52.47794083
43.5638046
43.61478169
44.5438674
43.71394165
57.67124284
44.74143347
46.16115802
43.64294518
44.24849835
66.34641741
41.40760057
64.93472571
56.67530141
64.4381106
41.41625198
71.52460287
43.07002143
40.89043057
39.41587204
69.5352764
68.95703452
48.5630589
70.04130725
58.03834117
58.15881973
55.75375012
47.24432605
46.26740295
50.88040185
58.37124225
46.92920429
47.22133949
41.83789432
42.22540764
44.98165721
52.60441575
57.2461746
60.51250528
41.69911803
40.61864566
45.18260886
50.7465164
52.78664789
57.92461439
61.49126194
63.41322382
56.13616299
57.59899566
50.12488073
72.59776267
64.32732325
42.14001549
70.09490607
59.05453119
47.44681928
50.48523445
68.8642002
40.85435396
40.48896599
48.00544273
48.56311603
46.78371825
49.3198869
43.67561462
42.57484785
41.02502154
43.71357825
44.13236809
47.85374222
71.52041369
65.1225966
61.88263822
75.02136387
71.68748807
42.46158417
49.54835149
47.58234013
61.74036968
60.72464318
48.74580604
51.40086327
50.34758065
41.90875592
57.71789728
43.85548899
44.64743931
55.18949625
43.09754676
44.71569263
56.68642682
56.00873415
45.48247434
46.28702565
57.41402033
55.69346937
56.03004932
55.52633705
44.73638727
45.66080427
71.22675028
68.97789348
67.96679334
52.80845756
50.33560646
42.05363047
59.7553395
62.34151544
65.38639455
46.30895753
67.3209241
58.92642666
67.78486177
65.94097708
48.7740689
45.76293238
46.73132598
52.90027763
54.94713989
55.38582803
54.24704303
54.54100155
61.45295328
61.06690258
61.47248239
60.15640127
60.56111933
60.8065212
51.56693065
47.07625503
47.42107063
46.56380763
46.79094639
51.88587123
63.50428743
62.61795513
62.70886906
61.93922801
62.29912897
62.97816713
51.54901817
48.48445099
48.88300583
47.76011542
48.12256656
51.61914092
53.71579247
53.6656468
52.94714855
53.0094983
73.96606536
74.7689484
71.53135253
54.81813038
74.27179927
66.04330831
73.61548244
66.68460457
69.73618306
64.3817132
54.18146126
71.5129096
65.39878257
60.27420094
59.63164737
70.44621053
53.94660793
60.59612662
61.88470557
65.86565182
67.73610429
64.57476268
70.32572766
65.67882326
71.01827218
62.9537363
66.69954805
70.15442708
72.24050058
71.41536751
56.67081243
57.29765565
57.6525919
56.22221203
56.3238116
56.1436557
58.98677375
59.23617381
59.63006014
58.29904836
58.65894018
58.50595999
46.12622437
46.96516012
46.97685409
52.61609425
52.39497084
49.33222469
53.73682977
53.67053851
52.5936565
51.72686119
52.53548477
49.03440885
46.59835268
46.48526678
46.94013219
46.79274681
47.6596077
61.21487047
54.48672398
43.09899855
63.46333648
63.2281173
62.73507465
46.95184344
61.21394353
60.23467362
42.91005373
43.21928201
52.13918977
64.40529114
62.72214437
62.69606012
62.67677722
62.70348924
64.08341641
65.96557422
66.39843179
66.41168499
70.41201092
70.13388116
70.606675
70.57040249
66.23548327
67.90227756
69.56567047
71.20841641
68.1080158
52.20803053
50.10150085
50.53706539
49.26381203
49.68388185
51.8479619
53.00024862
51.80379518
52.25994215
50.97731319
51.4054574
52.88144363
55.95928689
55.53417996
57.20111598
47.70964354
51.08575425
45.07529168
54.80305975
55.47113452
54.02477817
54.46903893
45.66726947
43.72878038
50.35507334
47.33100297
54.37543466
54.7312505
44.0157307
63.40475874
46.53843674
48.2165089
43.22817269
44.83445116
64.57996073
63.04736757
62.03198212
50.34056092
55.73873028
65.33634957
69.90127573
37.10044534
37.04479448
37.10284025
37.09599501
37.04268667
37.08937704
37.05222856
37.01751964
37.03508929
36.96594304
36.95862553
36.9406564
36.85610254
36.89574014
36.83254446
36.77086612
36.85117137
37.2494144
37.12751082
37.25493855
37.24639771
37.12252043
37.23458658
37.16967619
37.07259651
37.14137887
37.03525422
36.97610858
36.99536233
36.87170973
36.8546316
36.83131024
36.71508946
36.75064315
37.57318081
37.30798195
37.58634154
37.57996962
37.30336542
37.55852322
37.43600406
37.22155663
37.38942251
37.21470085
37.06752932
37.14961118
36.95639975
36.8854134
36.89556853
36.72977579
36.71363831
38.29748805
37.69369819
38.32056253
38.31129117
37.68980505
38.23322328
37.98222462
37.54948555
37.88867257
37.57134743
37.28344322
37.46223933
37.14940433
36.99346856
37.05407459
36.80203107
36.74178557
40.2495905
38.56147265
40.29632619
40.05909342
38.53032036
39.68191724
39.04267566
38.19355102
38.81718824
38.18634424
37.70021266
37.99342477
37.474548
37.21814217
37.32437582
36.94109778
36.82972136
41.93755649
41.93460231
40.63562437
41.3362974
40.6349051
40.12858002
40.3556987
39.10758879
38.39101886
38.77184355
37.94005032
37.57915908
37.71101767
37.14842087
36.98728505
45.56527016
44.0817
42.64795295
42.37910965
40.26069436
39.38911186
39.73480484
38.50325751
38.07266603
38.17908178
37.40765467
37.21032983
50.28780967
47.40718633
46.19335031
44.32927447
41.43036718
40.57694638
40.71962916
39.08960967
38.65756114
38.66891641
37.68462851
37.47763943
53.00349493
49.77149207
49.01873682
45.82632358
42.41956135
41.72372282
41.57013849
39.60532616
39.23700876
39.10578101
37.94162735
37.75119844
54.24808042
51.11712359
50.74170704
46.81063374
43.11438931
42.63716756
42.18176325
40.00694487
39.72980205
39.4470131
38.15648458
37.99890064
54.76737949
52.29431039
52.15296871
43.25832983
40.08570368
38.20125821
48.5265135
50.17879635
51.47307445
44.31167845
45.29763604
44.75262129
52.83672493
55.1585107
55.61324761
51.87137839
52.94122922
50.61968771
54.7588253
56.55389096
56.75582032
55.72925633
56.05201421
53.78309001
55.50734092
56.54069258
56.58249565
56.3007704
56.35911213
55.12429647
56.61021485
56.64993837
55.67332733
56.52216042
56.10964429
58.07423615
41.98732796
58.9539709
56.0712759
42.78557949
42.97754382
43.71910907
40.5339936
41.86390906
41.54878288
53.54855851
54.47327603
55.18210423
46.88715326
47.9081992
47.12670988
45.82983268
44.42910055
46.19509176
42.74174337
43.8303163
44.6001675
42.28556173
43.05329187
42.10933634
57.5636314
55.32310594
54.80641124
61.11147945
60.93746723
60.23806858
48.728694
47.74494328
50.72656889
45.15787098
46.67413625
47.26440861
45.33615569
46.0330636
44.60386072
55.07128654
52.66786969
52.89378614
51.30235868
51.12583616
54.68165556
50.55301468
50.00520045
53.21389952
46.98788299
48.68275862
49.05304556
47.79008558
48.26702091
46.60543753
56.75158335
54.27939786
54.67853901
49.53620953
50.67749894
55.99638001
40.07746093
40.21977653
42.05924766
57.95960116
53.37208654
54.79518075
56.82783682
56.99464222
57.8121019
60.12936506
61.40121492
61.31488516
55.85401291
56.54820708
55.1613711
48.23187346
49.70511036
47.93527961
53.94818632
52.18725319
51.43276072
55.94991159
55.43791748
57.96167354
55.0488887
51.70735946
51.49548817
54.39428945
53.90753809
56.72699527
54.34687849
54.98792291
52.16101408
57.90377412
58.15815905
58.12302395
58.38687645
58.39930257
57.02315441
59.26664264
56.7997557
56.38767887
58.07839575
57.95450966
58.88083331
50.7922533
53.25331171
54.1109935
55.41524675
47.75213863
49.13058934
53.05193335
53.16999959
55.31487226
56.39357814
56.5262867
54.61495596
57.29278343
58.19194062
58.21444582
57.43014061
57.41212502
57.40542773
56.55866948
58.3468364
58.36917783
58.24086868
58.26168247
56.65416938
54.02790226
56.12862428
56.34609913
57.59821197
56.45636244
56.65096487
54.93569459
55.23766259
57.13728918
55.20705295
39.99819357
51.77834941
57.02992773
53.4571034
51.99341802
51.29053153
54.32483047
48.16997069
49.8947094
50.10868268
49.37050354
49.65315386
47.94044535
46.54299283
40.49037431
40.80094271
42.66146837
43.01061168
46.38569775
48.1912511
46.17833695
44.5582569
50.59323143
49.82906261
51.4130804
45.48643113
46.14281271
47.69578514
44.72173464
41.83723866
42.16198541
41.14105746
41.07186993
42.25955335
56.47642276
56.5156394
55.45688146
57.95569575
57.6369698
57.37866389
57.64137208
57.63826764
57.96827132
57.67870083
57.41494367
57.42782768
57.39011059
57.4104888
57.71898393
55.20903108
56.39853159
56.4441279
43.70839181
44.63802106
44.98526333
45.58507325
42.37782955
43.55560154
43.26110333
43.866608
43.70171249
42.38985516
52.78242487
56.26575864
52.18144017
55.26193863
49.97944833
47.78643926
60.26108787
58.37875062
63.58186805
48.12904836
50.04989733
52.08552705
58.85927947
58.62714625
59.18781029
59.71780187
59.51821499
59.31129689
52.0941173
52.10939245
54.87132629
54.79617569
51.8015204
52.01984787
53.45084708
53.90874909
56.61456615
42.49981934
42.26709717
42.20547909
44.03466956
43.68170697
41.79248832
42.20649384
42.31513415
44.81020776
56.18499287
51.08699144
51.58098059
50.23111573
44.56016328
45.56938528
41.12997709
41.78586582
49.38128857
60.39490721
60.68053321
58.77313863
57.5526762
59.55304664
60.02688486
53.06632371
52.83884974
55.8777804
56.37046371
53.38810536
53.26181355
58.39393072
58.3668756
57.81887496
56.05677489
57.37298048
57.49729233
57.03240968
57.22743029
55.8652337
56.67009381
57.78162768
57.85217573
57.60555615
57.70086167
56.54421746
57.12899526
58.40565291
58.40752658
57.45161384
57.13048733
59.33368746
53.90358685
55.37387424
55.71323551
54.57000429
54.98355642
53.52970306
55.15377911
56.58628485
56.83484569
56.04517505
56.31537277
54.8786675
59.01573228
57.93167197
57.67972372
46.08534758
47.24528819
56.30582355
55.68815108
53.77138181
53.91210635
42.65077487
51.10486924
51.66937467
52.42320679
51.83796253
43.05910132
57.23767462
55.51935607
55.78173088
41.51597003
41.43672999
41.25137593
46.07855534
44.55916707
41.65175358
46.589417
41.52786599
48.41107361
46.18312329
44.42223543
45.84738817
46.0211351
45.34565671
44.10922162
49.36481454
45.92695944
47.27472756
47.88720212
49.94287352
44.44336983
45.65716515
45.24510534
46.10894082
45.94208634
44.53973746
56.49890753
55.82834954
57.89286194
60.19789632
60.64645604
60.45030982
52.2384298
52.43804335
54.98233411
44.75560441
47.28526388
47.03884635
48.18133628
47.69681352
44.68565819
54.60038732
50.99657868
50.96878093
61.33556536
61.42211567
59.96971769
53.64196976
52.90019684
55.04797988
50.25305814
51.35317817
51.96673129
50.06393861
50.72741339
49.70432481
52.26361699
53.62872744
54.11478554
52.55183888
53.10688942
51.79197445
57.63108174
54.8917155
54.28625691
52.1461325
51.92379081
55.20002266
56.53835999
53.59675844
53.27627418
44.75522567
48.82113948
48.56320968
49.22226301
49.02968951
44.70380611
55.3883418
53.25803278
53.35240288
58.15251666
58.16948271
57.32736196
57.39408605
58.14000593
58.13521018
58.13932634
58.14157749
57.37970717
58.30384541
58.32646154
56.55777323
57.06237143
58.00539104
58.04135067
57.91195878
57.96291683
56.9868464
57.29002401
58.11654396
58.13030659
58.07211815
58.09705261
57.24998138
56.6269155
58.26833201
58.2897678
56.0230664
56.2523328
57.52212112
46.18176213
53.49370025
53.06041031
54.42660549
53.97676194
49.05997283
55.19612125
58.9405881
66.65577998
40.41181958
41.80937141
41.20409928
43.95858457
42.60796017
40.54766074
54.69605432
48.07415358
41.7665942
42.32148544
41.16834677
41.38519883
45.75286019
42.81405963
41.0911584
41.14848739
57.86719468
61.18587619
63.57074565
57.88198271
60.1725375
56.97969596
64.79024585
66.69578685
62.25237914
52.66128864
54.79473431
56.78327933
52.01992003
53.51546474
51.86528146
59.6954536
55.93180428
54.57189523
58.94825958
57.97483078
57.29847052
60.10720447
59.90918409
59.88784023
46.96130512
46.95242711
45.6663284
54.88246315
52.11244407
52.1526449
51.12536504
51.45015959
54.70872487
42.53921667
42.39335723
42.2737391
49.57778497
45.48617693
45.95585308
44.46187238
44.94049072
49.1022635
45.82230608
42.8696245
42.98138604
42.86475278
42.8369801
45.28192628
47.81979446
43.65700809
43.99103849
43.17185744
43.36205026
47.27152247
45.727853
42.46378925
42.67422393
41.36363145
42.09480494
51.50007378
40.33076217
40.31938881
40.19246777
40.77661177
40.46248882
40.25157907
59.11233883
60.93903284
61.13971298
58.3981243
59.00732232
57.06875397
64.30709117
61.7031412
61.0810299
62.57913753
62.21852205
64.78253095
55.69477883
52.60997459
52.37493753
53.29143962
53.38651823
56.44988332
43.53101316
44.66913452
44.03200828
46.09733273
45.37381494
43.53193644
44.27203701
43.16039896
43.00691682
43.60773854
43.37121487
43.94750797
41.95136228
41.62254134
41.43248654
41.52360567
43.19645043
42.39481651
42.37590095
41.50278434
41.60981379
40.33893877
40.83142854
41.54207302
39.72453688
40.24964954
39.85461901
50.28319722
50.44403574
48.731296
58.10128592
57.65271637
57.64692626
57.68468105
57.66410706
58.11630077
47.12892254
48.66055438
49.11513857
47.27571068
47.94105918
47.13768184
57.73774033
49.7741142
49.82218544
51.12530783
55.16474574
65.03498713
47.06619387
48.67341525
48.14577463
49.37432594
49.22420954
47.1354938
42.99601806
42.73032795
42.14484994
44.23311347
43.30798614
43.4423629
53.15275264
53.80460758
53.21469126
58.44281774
55.87184307
54.96336261
57.64283392
56.71216462
59.42435703
41.29748628
40.08925936
40.15909398
40.10579399
40.06847263
40.8754055
43.27670248
40.44355034
40.82580223
51.45987935
55.18621832
54.82016398
55.81680716
55.51053865
52.14747085
62.36242672
59.27021557
58.43934708
60.54531647
59.87520284
62.82132837
55.57177314
57.16906323
57.80468574
40.31745135
40.66477133
40.94963183
40.8512654
41.3655377
41.21475565
40.57921523
46.76641006
43.76678066
43.53317974
47.97031279
48.71616332
49.39532429
50.18411545
48.91196061
48.17591732
41.29411924
41.49774126
44.18418434
41.8645272
40.8690955
41.00175884
40.80429537
40.79931255
41.38693752
43.81166742
44.20266239
44.12585827
44.71376795
44.57794167
43.94272311
46.49360466
45.26564275
45.98351915
51.05484421
47.62588003
47.98463739
46.52985689
46.99487015
50.6744623
41.7864225
43.13956527
42.8696361
53.4649922
53.603938
55.5949838
44.88637378
49.82254432
49.48612797
50.65795591
50.26741234
45.23586975
45.99613979
47.02833727
46.60133413
47.65493158
47.40629562
46.40208815
51.35631702
48.60852081
49.69896258
37.02754093
37.02573147
37.00800566
37.02020865
37.01117156
37.00291581
36.99410326
36.9725373
36.9883137
36.94948018
36.93021355
36.97581404
36.91406289
36.90118352
36.96622703
36.89186334
36.88308936
36.96034253
36.87687361
36.87254012
36.95711299
37.061733
37.06180375
37.04653521
37.05186595
37.04480121
37.03315997
37.01146468
36.99726162
36.99461297
36.93667761
36.91452089
36.92507415
36.86211023
36.84640751
36.87119172
36.75696974
36.73773439
36.8070819
36.7219202
36.70991656
36.78950733
36.70152131
36.69721095
36.77932014
37.16416217
37.16455136
37.13051248
37.14692418
37.13351994
37.10325509
37.07567451
37.04992887
37.02982931
36.95841885
36.92431789
36.91603501
36.82357802
36.78956733
36.79671296
36.68342793
36.62375555
36.67647955
36.58865396
36.56338082
36.63366969
36.54545784
36.53501003
36.61022492
37.38861686
37.39087903
37.31573793
37.36580253
37.33931373
37.27231454
37.2418489
37.20089367
37.15078437
37.05740385
37.00607903
36.97702145
36.85319673
36.80514182
36.79604235
36.67880223
36.55834947
36.58530964
36.49193535
36.44277536
36.49925451
36.4081081
36.38636572
36.45335785
37.87953781
37.88289134
37.71863744
37.83639645
37.76903593
37.64795366
37.59858219
37.52560236
37.42345674
37.28138739
37.19835822
37.13627704
36.96172233
36.88971473
36.86085893
36.72919629
36.55879177
36.55360772
36.44298645
36.35612944
36.39458622
36.29444959
36.25322789
36.31306895
39.02416251
39.03460046
38.63638671
38.81037407
38.66669285
38.44353177
38.28740291
38.13972379
37.94902539
37.69805015
37.55737533
37.45115608
37.17492926
37.06230002
37.00994022
36.83650458
36.59556978
36.57188254
36.44413701
36.31017882
36.32765791
36.20957947
36.1386686
36.19015714
41.01019753
41.02104633
40.69789323
39.50121344
39.17912696
38.87172854
38.35129187
38.11479845
37.95849736
37.50533211
37.33423714
37.25613927
37.00047667
36.66962624
36.62830077
36.47386921
36.30239471
36.30143157
36.15462276
36.04616662
36.08714457
44.20772982
43.86693486
43.29856126
41.33855738
40.69779781
40.28495153
39.23638603
38.85688319
38.66647066
37.93675273
37.69025884
37.59221166
37.20860353
36.77779536
36.72063911
36.52736171
36.31573138
36.30674423
36.12473215
35.97502983
36.00689957
49.28218011
48.26660265
47.76420568
43.39440663
42.40696608
41.98493443
40.23766242
39.69708178
39.50338301
38.42817315
38.09715385
37.99481954
37.43421664
36.90544515
36.84071447
36.59791594
36.34185308
36.32725835
36.11450029
35.92312905
35.94705305
52.49928877
51.32279218
51.02280041
45.14288005
43.90852285
43.56533564
41.16478934
40.48399875
40.32823811
38.90019986
38.49115573
38.39591181
37.64920547
37.03574548
36.9718113
36.67587777
36.37642838
36.35791393
36.11847224
35.88849639
35.90569074
54.02502041
52.93342252
52.77789068
46.37689193
45.00616596
44.76884125
41.89789009
41.11487568
41.00562218
39.29433153
38.82576092
38.74522431
37.83325199
37.15652847
37.09835702
36.7515691
36.41414109
36.39433193
36.12782776
35.86676261
35.87910567
54.67356241
53.67587692
53.62512591
47.13034342
45.71215792
45.54619931
42.40044653
41.54525818
41.47763974
39.56068012
39.05558971
39.0154359
37.21031102
36.43089942
35.86124264
41.01442766
47.24841594
46.70118599
47.51275736
50.71208633
50.36458346
51.54123759
52.63495804
52.45246408
53.58429212
58.03664136
57.61969303
57.72324608
57.62730643
57.37754881
58.52671841
58.13677907
58.55751671
58.60921808
57.77232784
57.8000956
56.84544248
59.06158617
58.01636331
57.81121829
58.68672249
58.74326809
58.57894451
58.10450207
58.11094308
57.48478423
56.63868163
57.71064378
57.72902507
57.80368004
53.54138445
53.47738395
54.48069344
46.28422483
45.70904059
45.23226365
57.90989656
58.09712015
58.08384099
58.06131499
58.06097653
58.0046234
57.59603418
58.09030807
58.09447507
58.08152356
58.07974233
57.79494915
42.32514558
42.77513826
42.77794531
42.81807222
42.82479111
42.45956454
51.10754268
49.34769656
48.05663092
58.17616183
58.23558885
57.65462041
57.33934419
58.05521897
58.11207889
58.73783825
58.65391354
59.37239342
59.22546508
58.85551891
58.8011867
54.06997178
54.15491967
55.91566242
42.05404077
45.06722412
44.64650338
48.13543748
47.6307936
43.97838362
55.50705685
55.21208702
55.73754232
56.91966852
56.08037079
55.74615966
57.65849213
57.65605426
56.58294733
56.60631715
57.66101982
57.65788629
45.49226319
49.08988343
48.57290531
42.84859878
42.34715347
42.49193832
58.060056
58.06467765
58.06191008
55.70839356
56.67925763
56.71237294
41.96129197
42.56237797
42.42053111
44.61110961
44.2048485
44.30890916
57.86630443
57.14298394
57.28844813
47.35302388
48.01274929
47.37697129
47.4635565
46.53748254
46.73441581
37.07824259
37.05999889
37.10297625
37.08027529
37.08019757
37.07414855
37.07858171
37.10103233
37.04502156
37.06028707
37.05677098
37.07913784
37.05982066
37.06858119
37.03681372
37.05039782
37.06779011
37.02556701
37.03660389
37.02539544
37.01454546
37.00360033
37.02168326
36.96002341
36.98337853
36.99209516
36.97426562
36.97756623
36.95756595
36.91192361
36.91056631
36.93751425
36.86426456
36.88784346
36.88497782
36.90910455
36.89646169
36.87756001
36.80887532
36.82549458
36.84526944
36.79402961
36.80982895
36.78940575
36.86023052
36.83370377
36.82116188
37.20061601
37.1605535
37.25603253
37.2052871
37.20470151
37.19532933
37.2025938
37.25356835
37.12824756
37.16214831
37.15600306
37.21644609
37.17051979
37.1846355
37.1310041
37.15321424
37.19481591
37.09007805
37.11766748
37.09788922
37.10912746
37.07628998
37.1054528
37.00990975
37.04460047
37.0737586
37.00465031
37.02178932
36.99045611
36.95403893
36.93677814
36.97417337
36.8621032
36.89971443
36.9129482
36.88656993
36.89091181
36.8568204
36.79172868
36.78934769
36.82596475
36.72233907
36.7538149
36.75267393
36.77278398
36.76083418
36.73482387
37.46472238
37.38012708
37.5891304
37.47827184
37.4743455
37.4613165
37.47477901
37.58695536
37.31297841
37.38880807
37.38116528
37.51664473
37.42401157
37.44174219
37.35620909
37.39561838
37.476369
37.25041809
37.3096608
37.27777865
37.33593846
37.26272434
37.31126702
37.15655734
37.21117582
37.27723951
37.11062996
37.15585624
37.10751554
37.08388297
37.04217598
37.10000354
36.92669962
36.98395128
37.01938038
36.93124252
36.95472176
36.90328575
36.83741749
36.81891353
36.87156103
36.72072742
36.76889288
36.78228124
36.7543549
36.75960587
36.71578877
38.03363979
37.86084622
38.32798781
38.07940069
38.06925381
38.02349403
38.06548847
38.32799177
37.71206036
37.88050053
37.87397509
38.13058044
37.97316132
38.0027019
37.81923372
37.90428865
38.06064988
37.60660213
37.71582268
37.66240729
37.78645975
37.64438148
37.73298994
37.46113587
37.55390313
37.67980234
37.35549074
37.44606991
37.36414575
37.35472768
37.27153331
37.36570796
37.08963853
37.1795395
37.25014189
37.06429752
37.11700819
37.03755044
36.96418704
36.92398996
37.00433682
36.77774013
36.84865557
36.88014505
36.79981681
36.8218902
36.75814571
39.4512525
38.98813981
40.30062672
39.54804317
39.55327468
39.32210825
39.45426664
40.17789618
38.60140467
39.0326564
38.97910232
39.45623749
39.1291529
39.27906185
38.71357404
38.90678171
39.26486478
38.32117434
38.55425746
38.42779905
38.59883013
38.35343875
38.53090564
38.00775807
38.17928652
38.38767475
37.82560472
37.99060759
37.84257943
37.80967668
37.67970426
37.84000532
37.38064685
37.52643761
37.63616051
37.3326085
37.42249331
37.29486617
37.18552093
37.11978065
37.24468031
36.89909264
37.00491589
37.05780573
36.916725
36.95787742
36.86224361
41.9433955
41.49476477
41.45657238
41.40264258
41.45556602
41.98569566
40.68505895
41.0542076
41.04316734
39.89074516
39.51800784
39.90237622
38.85536556
39.17234644
39.47822447
38.62595659
38.88231462
38.60692857
38.46812593
38.29158582
38.56269583
37.81214508
38.04117279
38.19181175
37.76190019
37.89540857
37.69238174
37.50378979
37.41488726
37.60367519
37.0918643
37.24482512
37.31644374
37.11535956
37.17840793
37.03753166
45.00789287
44.41522188
44.82539126
43.52119415
43.9612891
44.47040274
41.55763001
41.12611605
41.85054678
39.97617935
40.51088951
40.86201992
39.81027926
40.14667757
39.6640226
39.27413463
39.08141463
39.50426869
38.36366533
38.70219619
38.86660325
38.35424218
38.51726
38.21168956
37.89037735
37.79266271
38.06161289
37.34155261
37.55354069
37.63412543
37.39028838
37.47038616
37.27424883
49.1877688
48.73232646
49.79246024
47.001973
47.80217841
48.22222677
46.92086683
47.37720424
46.64736532
43.20132423
42.81338648
43.86615734
41.1707737
41.92884966
42.24873009
41.22805795
41.57573513
40.85997248
40.10479262
39.926479
40.51102098
38.95529772
39.40995115
39.56613232
39.05471682
39.22249288
38.80161411
38.29778779
38.20103986
38.55416725
37.61794566
37.89048412
37.9712971
37.71986468
37.80468947
37.54750141
51.84226849
51.58507681
52.75986447
49.54599873
50.50682588
50.76607132
49.95838944
50.25426715
49.28283468
44.51383637
44.21999578
45.48605634
42.21049895
43.14386903
43.39020984
42.57400115
42.85987044
41.9544586
40.82573313
40.68395106
41.3971227
39.49607564
40.05325805
40.17423701
39.74694489
39.88931395
39.36341885
38.66444463
38.57922042
39.00657568
37.88030624
38.2055986
38.27807227
38.05184077
38.13215333
37.81885278
53.17896647
53.04318694
54.12815464
45.40665076
45.21331223
46.58487158
42.99518594
44.03339705
44.18312155
43.63087796
43.82201292
42.79334504
41.36674655
41.25966571
42.07469144
39.91879924
40.54526153
40.6440647
40.32913265
40.42324291
39.82142497
38.95638512
38.88838812
39.36930487
38.10472936
38.4688459
38.52840836
38.34596504
38.41573662
38.0586885
44.33299764
44.46789795
43.37260833
40.73670542
40.79801087
40.13871253
38.579399
38.61646237
38.23901722
50.62364515
49.76063158
49.28986895
50.50928307
50.08996722
51.06032206
55.32789015
54.18324352
53.99747091
54.51283772
54.35109943
55.46693034
52.24781718
51.21104666
50.8311547
51.852526
51.52011775
52.60513292
56.58639332
55.81255074
55.77176962
55.85347223
54.79740763
54.65985803
55.04319288
54.92527271
55.94729451
41.40634572
41.00417529
40.95440726
40.51359562
41.74410812
41.24581085
41.28492581
41.04886067
41.12997053
41.63664592
45.32977637
45.97205424
46.45859271
44.97486601
45.4812721
44.96774027
46.90561822
46.15124198
45.57053218
48.41833032
49.32267827
49.66161495
48.60437036
48.98380446
48.10235864
51.16260875
50.00476712
49.60399736
50.40153926
51.37717465
51.56852767
50.97737819
51.20158978
50.19308815
53.41522532
52.27599704
52.05818688
49.91005497
53.12980643
52.96171975
53.50712317
53.34434185
50.34145282
57.40191018
57.52865241
57.99427418
53.89075447
56.34197119
56.08193965
56.77765354
56.56755161
54.38123712
48.72569875
48.1163341
47.56421522
48.95431652
48.44972672
49.23203341
58.26451723
57.15952688
56.8691191
54.58082444
53.40146396
53.16580664
53.80854886
53.59372122
54.7809987
58.43392398
58.47235112
58.00312458
58.19525399
58.46072736
58.49926924
58.42159498
58.45128076
58.15202522
56.93951356
57.851044
57.88893123
58.32934166
58.16470988
59.17407762
58.03896092
58.33195511
58.38726453
58.15610336
58.26191654