/*--------------------------------*- C++ -*----------------------------------*\
| =========                 |                                                 |
| \\      /  F ield         | OpenFOAM: The Open Source CFD Toolbox           |
|  \\    /   O peration     | Version:  v2012                                 |
|   \\  /    A nd           | Website:  www.openfoam.com                      |
|    \\/     M anipulation  |                                                 |
\*---------------------------------------------------------------------------*/
FoamFile
{
    version     2.0;
    format      ascii;
    class       volScalarField;
    location    "2.58";
    object      k;
}
// * * * * * * * * * * * * * * * * * * * * * * * * * * * * * * * * * * * * * //

dimensions      [0 2 -2 0 0 0 0];


internalField   nonuniform List<scalar> 
3259
(
36.9949251
36.99981547
36.99371298
36.98447243
36.97414807
36.96564048
36.96034924
36.95703709
36.91079614
36.90941835
36.90877944
36.90842439
36.99473544
37.00909089
36.99240301
36.94947581
36.89900036
36.85715526
36.80787227
36.78914425
36.73489292
36.73067132
36.72857182
36.7275708
37.03378847
37.0570282
37.03122236
36.96108104
36.85988998
36.76492264
36.67505412
36.63336214
36.56663977
36.55682644
36.55217861
36.55030305
37.17491757
37.19062261
37.13870548
37.03407547
36.89037017
36.73738823
36.58059299
36.49952679
36.40766485
36.38948729
36.38047692
36.37693193
37.50816754
37.49797882
37.37860643
37.19932446
36.99254355
36.77368061
36.54688744
36.39625464
36.26362451
36.22874095
36.21255247
36.20623636
38.26383871
38.17649899
37.84964284
37.51166218
37.1891169
36.87713199
36.56319896
36.33012435
36.13460429
36.07377102
36.04700979
36.03642919
40.04459019
39.85650946
38.71958993
38.02708658
37.50043349
37.05016843
36.61722874
36.30512817
36.02027445
35.92475755
35.88283399
35.8663074
42.6328954
40.15028825
38.76562742
37.93062503
37.29103463
36.70861188
36.30989172
35.9224412
35.7823828
35.72051962
35.69635866
47.18756231
41.93138827
39.6633207
38.44189935
37.58067019
36.82565151
36.32845761
35.83966965
35.64899213
35.56296624
35.52970469
50.40760435
43.56688912
40.57950349
38.98629075
37.88933562
36.95550622
36.35573911
35.77258602
35.52801402
35.41510805
35.37139842
52.01606846
44.80539302
41.40597322
39.50186867
38.18843728
37.08242268
36.38794764
35.71865618
35.42239667
35.28182468
35.22686222
52.70331866
45.65718695
42.0734014
39.94049423
38.44575041
37.19421824
36.42029211
35.67792454
35.33257101
35.16586075
35.09947191
47.6983163
43.00108459
51.27241666
48.14837172
52.97077644
51.57346527
53.65109655
53.08468018
53.69155264
40.00030957
42.52287975
39.78290542
51.16366301
44.57667298
46.67539392
42.33878934
40.69135763
55.54686071
57.01896188
50.10881514
44.37247548
42.88927819
54.61235279
54.05885257
51.88601269
45.85447633
44.80507349
55.96884251
55.19167475
39.63470266
56.73456222
56.50762473
56.90469774
51.49227564
45.64590358
50.55208499
55.568017
54.13320504
55.35872357
49.89897805
56.29958659
55.54366643
55.78466053
56.38226488
49.65672897
55.04406007
54.6952188
52.50283526
56.06275484
56.29014703
55.50701299
56.02035882
52.31397914
56.46842675
56.0526428
40.54445589
41.38101693
56.76132011
39.53907046
61.76837688
47.19324765
47.08475334
52.66276125
46.80489258
46.14623278
54.35545065
49.57133827
48.09049138
44.19090434
49.62184265
45.02780886
47.66526192
43.85733702
53.44732476
56.47561777
56.59357332
56.31525717
56.46381627
53.3781586
41.59577641
44.02652728
41.67812242
41.63517871
66.18666571
48.23948587
61.4222035
46.32068443
58.06635956
47.40253807
56.86850033
56.97779126
54.26506665
54.22910756
40.93970271
44.66785521
55.68309859
41.34986731
42.58296625
46.15479696
41.49751417
55.58587124
52.37135993
50.38226659
49.1091858
54.90345656
54.51288421
54.84062181
54.95123625
55.92744848
53.85790591
53.2504967
54.46470461
54.0273251
55.86910904
56.66264377
51.89822182
50.86472462
53.01810474
52.20390187
56.69727934
55.20245591
46.73663187
55.13965012
43.04283684
46.89334356
56.26439572
43.1896392
40.95381471
55.64690814
52.92939923
60.82699478
39.823592
40.32318376
53.73526141
40.68629169
43.87335917
43.30932674
46.32486156
43.04222589
43.35067505
56.18820851
59.06917987
57.98299174
57.16870551
54.3917544
45.21499902
45.5568341
48.30936067
47.59390526
53.95792796
56.25194577
60.20791403
59.34337449
53.0121199
48.76286954
47.31363523
50.47994009
49.21850134
53.37666493
54.39888957
49.49140629
48.64680449
55.0563664
45.78673521
46.10805422
54.88381395
56.17234401
55.27146981
55.17488506
55.55527391
54.87595437
54.5814059
55.13391845
54.94992365
55.57031429
56.31604896
47.4825614
51.29722775
49.84965981
55.4985832
54.624362
54.40656246
47.23735629
47.18332402
40.12525113
39.81674177
54.63087656
58.02607999
48.60737875
58.52833991
43.52661493
40.71243453
45.60258189
46.70771343
50.89669916
66.69216014
55.10705023
51.52035176
58.89876009
55.90881886
50.83053765
47.84901557
52.97448229
55.98077497
55.29912751
56.4347167
57.15537252
57.63223288
56.42976527
46.14303581
45.3971476
54.33026417
46.85966951
47.14137192
45.17999263
46.59761395
47.24868429
54.00698645
47.4764915
46.4249997
41.36400402
41.68086009
41.40218439
51.1085401
50.24214352
43.14030969
48.40596945
46.98514974
49.89861561
48.86871131
42.4929648
41.9733141
41.72796921
40.50145525
59.85970332
59.40101256
55.93176808
61.04914691
61.84272051
62.06447453
60.72774449
59.81089143
62.06871592
60.59119235
53.23235587
58.76690322
59.91607514
50.64081666
49.67261178
54.50445852
55.06975539
52.14217081
51.01344789
44.70633254
44.03572263
46.57216351
45.17347743
47.19176214
43.91988434
44.78984202
43.85407924
43.66858144
50.87469463
41.81516792
49.99836064
46.08390086
49.73301419
41.43554732
55.39180652
42.19942971
40.18125737
38.93967859
53.46253053
53.05601087
46.99348112
53.39032623
56.60343121
56.56764862
53.82645081
45.22922257
44.66027787
47.60527066
52.82897438
45.13548572
45.27247094
41.14283925
41.4812027
43.83165543
49.8104891
53.32363296
56.02791635
44.0704742
42.33225084
40.79372247
51.93446699
53.44957068
56.64556352
56.81538817
58.49341252
52.83635818
46.65431064
43.01772683
56.62740533
50.87317821
44.61711868
62.28694454
46.94415173
41.71163194
43.0330013
53.64839698
40.15554478
40.65512463
49.84194041
46.81081457
45.25744613
47.20599405
46.16192895
40.4655007
40.11558739
42.7832971
43.03783376
45.71852262
63.39476792
58.88925765
56.44895715
66.36574458
63.67301499
41.01415277
43.05788483
42.24107711
48.28200105
47.66968199
42.93720723
52.17027516
51.40885404
41.52465346
46.36674048
42.07102805
42.30299813
45.35071422
40.15139363
40.68197582
46.71530093
46.53689419
42.66438372
43.01544463
46.61889316
46.5585215
47.03527869
54.94587357
46.28431492
47.63506674
55.82164479
53.35644438
52.70011096
44.34306628
43.05999543
40.09286073
55.14814525
54.73602695
59.05331575
41.44312387
51.70490176
47.44479441
51.96528764
51.03779254
42.4494807
44.23502115
44.94647488
49.07101776
53.97750553
54.33913271
53.41885839
53.70150467
58.75566183
57.92696352
58.18770321
57.3827468
57.65456633
58.34283331
48.04634054
48.11919542
48.35752938
47.74000424
47.88708344
47.95266241
59.86555349
58.76187115
58.76545274
58.43428529
58.64303976
59.60768953
49.06932294
49.16215854
49.43383147
48.6224636
48.88139431
48.83318664
52.71367251
52.89603521
52.01639942
52.211823
58.35059015
57.67274772
55.82330838
45.41079163
58.24908213
59.48549908
64.85529397
59.77486786
61.66442819
57.73546487
50.02854575
63.65988883
58.48768465
47.56483451
47.54555726
54.72303901
44.78866214
48.36940046
55.02567974
50.68597827
51.93004409
50.06041459
62.70737907
59.34360021
63.06319025
57.76681134
60.39259871
62.879605
64.15490148
63.51284566
55.45665848
55.63314758
55.91287093
54.98718932
55.16235562
55.17623213
57.20870966
56.81949108
57.10000398
56.23392133
56.51600236
56.81945084
45.88605484
48.4961626
48.48009601
46.92387669
47.14647719
45.67038587
46.9832769
46.71665969
46.4163399
47.63630409
48.00972342
46.96728602
47.85390056
47.68944176
48.40479894
48.18002587
46.66169858
47.7374063
45.00202539
41.1295048
49.03825339
48.96348503
48.72071574
42.2459731
47.89432806
47.45874751
41.99353363
41.96939789
44.41768511
59.72615713
58.5053635
58.4115685
58.62262303
58.62296878
59.56574797
61.43346921
61.58583136
60.53726701
63.46300832
63.41116874
63.28732364
63.42843684
60.37354826
62.20046595
62.91557625
64.74148322
62.21502785
50.39279284
50.30243391
50.59574347
49.72039921
50.00885494
49.99105019
51.70327152
51.38708838
51.59301827
50.89049177
51.15879809
51.41959076
46.0792355
46.13387681
46.72524995
43.52642426
44.54471665
44.15888587
46.58658156
46.72935596
46.66578788
46.71087056
44.49790658
43.67592342
44.9265037
44.16037244
46.24003046
46.19143628
43.60725631
49.29620083
41.63874307
42.3469697
40.70684959
41.04395939
49.78854238
48.7938701
48.45409733
43.31246745
45.57863721
50.06676921
54.71758383
37.00698168
36.9827169
37.01744687
37.03828711
37.0079894
37.0394557
37.02636261
37.00163845
37.01693007
36.97188031
36.96304873
36.95322328
36.88452615
36.91175522
36.86181676
36.79939166
36.86688681
37.1108571
37.02229095
37.12659408
37.14774449
37.05673537
37.14460149
37.11816772
37.04182519
37.10231132
37.03610875
36.98203119
37.00864643
36.91217377
36.88604018
36.87698575
36.7704159
36.78452003
37.38019696
37.15754361
37.40015352
37.40917813
37.19361971
37.39161578
37.33085606
37.15731356
37.30075716
37.19033399
37.06429755
37.14747433
37.00784539
36.92931694
36.95891402
36.80919234
36.77390316
37.97738289
37.47354558
38.00283517
38.00805579
37.50112918
37.92880857
37.76716023
37.41572773
37.70097737
37.48940023
37.24881625
37.41671507
37.2007326
37.04601146
37.1291083
36.91788431
36.82901954
39.68723894
38.19627972
39.72258501
39.49035872
38.18872097
39.14851188
38.62616136
37.93422464
38.45382439
38.00716709
37.59508819
37.87511125
37.52119472
37.26783094
37.41083954
37.1006218
36.95539575
41.16704692
41.23972204
40.05597485
40.64478833
39.96789031
39.50847698
39.74134463
38.80197899
38.17800626
38.56445602
37.97511006
37.62269316
37.80762716
37.36216038
37.15758557
44.36170504
43.03327347
41.76184576
41.48199156
39.82638471
39.03612966
39.44688477
38.55435327
38.11422659
38.31237873
37.68798398
37.43730106
48.61598917
46.02423707
44.93461108
43.18923357
40.89980285
40.08437166
40.38185943
39.17613448
38.70093222
38.85593621
38.04535166
37.774371
51.16852259
48.16713454
47.48642299
44.52788698
41.85078471
41.13684748
41.2277854
39.77404287
39.32153765
39.38181155
38.3966317
38.1327057
52.36241375
49.37808208
49.04240724
45.45978421
42.62798821
42.05534732
41.93331604
40.28622492
39.90124501
39.84072619
38.7100257
38.47951324
52.85520507
50.44954031
50.33282517
42.78036401
40.3970104
38.77754143
46.96260844
48.30084536
49.45888558
43.27194598
44.06406514
43.62469044
50.93256583
52.91711729
53.38135323
49.81831301
50.79624979
48.84331487
52.82576918
54.46156237
54.68998552
53.50640797
53.85326941
51.84967464
53.58262728
54.58624337
54.63337295
54.28362058
54.35524394
53.19677768
54.66600335
54.71017069
53.74699659
51.09637921
52.15224649
52.24162556
41.1943132
52.78914989
50.33169952
41.98714959
42.13928788
42.75411797
39.94993012
41.15809457
40.85470342
50.62893607
51.34255897
51.92145582
45.16478839
45.88274535
45.36980728
44.60056205
43.35454042
44.92727005
41.78500671
42.76016523
43.43842387
41.39942582
42.07111526
41.2270772
55.73894562
54.2437613
53.9324544
57.83117922
57.73538996
57.0970696
47.22151072
46.33356282
49.0201865
43.91333696
45.30207477
45.82650293
44.10075795
44.71917007
43.4109917
54.52147728
52.6517893
52.83171801
51.57237573
51.45012548
53.99851584
48.87299177
48.37906716
51.37079681
45.54706147
47.11277527
47.4347999
46.30931133
46.72918978
45.18809977
55.8766522
54.20218397
54.48463597
50.79800148
51.57711564
55.33226787
39.68129536
39.59730125
39.80024891
56.65658385
53.8810766
54.90535119
56.0187812
56.13635008
56.55576502
56.75016844
57.90188917
57.89054438
52.49411263
53.06926467
51.9911591
46.58176568
47.88435534
46.41592478
51.10798536
49.77470437
49.13292616
53.10236142
52.61908667
54.73417681
54.21373578
51.86533407
51.71500768
53.61701585
53.33755154
55.20877867
52.12000268
52.74373695
50.32116964
56.09443473
55.68116866
55.57366918
56.3956868
56.34969925
55.65993367
56.28545471
53.93905064
53.52028272
55.48331594
55.26497266
56.60481772
49.02153619
51.08589271
51.89242019
54.88018373
49.52789338
50.52849332
52.95478947
53.05776088
54.76333363
54.25363089
54.42199834
52.67986116
56.10029701
56.56648077
56.5690929
55.34860921
55.28913458
56.19856394
55.46585024
56.46318597
56.43440772
56.57099881
56.57148321
55.65956907
52.09124491
53.94277985
54.19245446
56.41770238
55.76803385
55.90155903
54.70201433
54.91593881
56.13376769
55.18453025
39.89179243
48.27137215
52.18813228
49.56269968
50.185937
49.53083947
52.43681787
46.62009892
48.19650554
48.3757011
47.72961838
47.97060881
46.38635367
48.73224802
41.03694956
42.4733192
45.06952923
45.47459184
48.584164
46.27642846
44.72637953
43.47659449
48.42381812
47.77187187
48.94603647
44.25719544
44.75372629
46.11983284
47.17454486
43.86395484
44.40576956
40.92358211
41.22297134
44.38193714
54.50659105
54.55377987
53.53115869
56.52523843
55.70080035
55.3982397
55.70719865
55.70188725
56.53607633
56.38945745
55.38518813
55.36243634
55.40223982
55.39379404
56.40983593
53.28337656
54.40793114
54.46299395
42.68588117
43.54687813
43.77797296
44.22497133
41.60016449
42.57382031
42.39337541
42.69236555
42.68971048
41.59665663
49.7461725
52.52049631
49.4398818
51.13821946
47.35049619
45.71139232
55.22781994
53.71415835
57.54572719
46.11167055
47.51313588
49.16253855
56.51570946
56.35696035
56.7754872
57.04333403
56.94007168
56.7951849
52.21235914
52.22206308
54.28264977
54.17140991
52.00706566
52.16122412
53.57160762
53.91204449
55.78216843
41.32884452
43.20149138
42.7430052
46.40736139
45.92505769
42.17782298
42.35427028
42.15819695
41.74669434
55.46072479
51.848975
52.19926849
51.75512146
47.06284458
48.04924454
43.1374748
44.35560846
51.07816987
56.55546455
56.85493661
55.25868078
54.10686298
55.74049368
56.17540323
52.8617733
52.69562773
54.72710476
55.03338549
53.10504934
53.0104802
56.13922176
56.04136548
56.05189257
53.66890581
54.89664024
55.05810778
54.49742427
54.71689164
53.47096293
54.32916368
55.45913065
55.56729909
55.20490865
55.33925595
54.18796468
55.71267104
56.29203877
56.22192427
54.63998199
54.28047882
56.41260586
51.57408661
52.80014732
53.1345657
52.04582215
52.43528233
51.22867328
52.76219601
54.01640017
54.2763611
53.45654835
53.73915016
52.49423514
56.65738678
55.22170891
54.90499575
48.07542028
49.11669366
55.52799235
55.07758401
53.56222153
53.68588399
44.72097973
52.01317425
52.37588619
53.00015949
52.54623878
45.29840637
56.199527
55.11727204
55.30299086
42.68642734
40.59657854
40.69009242
41.614107
41.16676342
41.00071711
48.97846773
39.94768443
42.09322146
41.17971091
43.12592253
43.95200185
44.46679862
43.9865569
43.00926292
46.67444448
44.35236907
45.30918058
45.71935569
46.95555867
43.20265566
44.1846673
43.85175127
44.45131139
44.35881992
43.29354684
55.0357561
54.60614189
55.9605542
57.1549758
57.60047059
57.47240129
52.33376523
52.48456164
54.4330248
45.18920989
48.89820881
48.62890457
49.72946232
49.30312897
45.31177214
53.95903019
51.35594286
51.34965039
57.65471109
57.83601638
56.52958474
51.02784645
50.38971103
52.0334786
48.29250358
49.18710746
49.72622903
48.06890701
48.64493603
47.81059489
50.07791812
51.19055174
51.63327821
50.23546321
50.72895161
49.65640709
54.40437319
52.12706341
51.58513787
52.18495473
52.0258895
54.30595704
55.08066503
53.08611598
52.95567547
45.91718325
50.20548832
50.02189802
50.46968705
50.33787285
46.01171612
54.82571295
53.13070772
53.21770597
56.55781359
56.56127736
56.13154153
55.2429347
56.1246336
56.13232401
56.09434377
56.11360406
55.2146157
56.50854709
56.48984711
55.47794256
54.78583031
55.8225291
55.88782039
55.66335267
55.74840631
54.69293218
55.07870911
56.03549603
56.06967029
55.94502523
55.99494525
55.02249039
55.62679997
56.54419411
56.53234791
55.47131994
55.62964351
56.37260641
48.46507506
53.78546765
53.45298012
54.44414689
54.12621415
50.63099684
50.90330689
53.65455386
59.72177632
39.96005914
39.88616242
39.743571
40.45229935
40.06720637
39.85405705
50.03774571
42.23349067
40.37045438
40.526799
40.37221441
40.34381608
41.35634794
45.09777983
41.65807426
42.13971583
53.68315762
56.13484727
57.97366359
53.53711182
55.33576194
52.93407545
58.88635795
60.32325738
57.1583257
49.52577573
51.08671053
52.66811233
48.88070748
50.10291258
48.89186221
54.5818351
51.86881177
50.73827622
56.62100766
55.93639414
55.55876657
57.29823615
57.1581388
57.11983509
48.5320558
48.49320632
45.61362083
54.3119165
52.23050503
52.26351452
51.4811655
51.74346318
54.08965907
44.15718537
43.71167923
41.3618861
50.85721196
47.73428794
48.16951761
46.67992926
47.22250438
50.52674159
47.9465258
43.83122914
44.31135739
43.16514213
43.40520396
47.42292998
49.59925137
45.63143869
46.12143281
44.78796899
45.19102814
49.19318938
42.13172209
42.08297777
42.03966865
39.70861402
39.86198733
43.44343128
41.39045197
39.73153683
39.83877364
39.67591223
39.67934038
40.78660882
55.60297238
57.15051953
57.4033308
54.6950202
55.22791047
53.6686272
59.36585426
57.35319178
56.81325408
58.18896566
57.85234953
59.81952638
54.61122532
52.52484484
52.35498702
53.013781
53.1055847
55.07634475
44.39046295
43.05070364
42.85510712
43.70045869
43.37454004
44.19862626
46.17742885
42.95987292
43.03245511
42.79992371
42.87091721
45.70283301
40.62066133
40.5747984
42.17627814
41.16577467
40.90837567
40.73602873
41.51673466
40.74528456
40.92917315
39.71923979
40.13203523
40.74993472
39.18529611
39.63642858
39.30256734
48.54051101
48.67619448
47.13117021
56.68885937
55.72167514
55.71074616
55.75348891
55.73217739
56.53890658
44.89217981
45.83945753
46.25922403
45.24158119
45.77111562
44.65968172
50.45475683
46.78868897
46.78799653
47.76821331
50.45759386
57.38097503
45.21702815
46.22496332
45.91489151
46.54242067
46.49199766
45.24634222
42.12633806
41.91054039
41.4090411
43.16807942
42.41188455
42.58694481
50.24995792
50.78755542
50.3307557
54.30306953
52.3412893
51.60145372
53.79863103
53.02866967
55.10529738
43.48419694
40.82682599
41.25400289
40.08399668
40.38089507
42.86981378
40.14726888
39.56908367
39.60447232
52.45594529
54.98921397
54.72512471
55.43716664
55.22168193
52.97776649
57.55632107
55.17650389
54.47961853
56.2970225
55.72567652
57.96166042
52.35194959
53.6159879
54.15529895
41.85535301
40.23531111
42.23277917
41.87123838
43.32520324
42.90059986
40.40954517
48.90770707
46.29507079
46.19682982
46.29451499
46.90196658
47.49163997
47.946933
47.00672983
46.36986023
42.69817603
43.25451654
46.67456075
40.26186977
40.64424632
40.47274727
41.29932123
41.00234568
40.14921553
42.82416682
43.1791419
43.07206139
43.47075276
43.41874108
42.93178244
44.82212293
43.92136395
44.4085226
51.92542412
49.49784593
49.76429922
48.63815123
49.02578636
51.64727488
41.76543611
45.26584744
44.7280046
53.30979788
53.43057349
55.00510409
46.60669656
50.90114355
50.65095877
51.48268014
51.21333378
47.10976491
44.37501493
45.12753197
44.84346298
45.7079667
45.49406128
44.62927181
47.85623064
46.26379082
46.80781551
36.99345961
37.00145106
36.99878225
37.00305468
36.99928674
36.99750911
36.9883472
36.97382933
36.9893542
36.9569292
36.94041217
36.97920046
36.92503502
36.91166461
36.9696097
36.90105785
36.89074914
36.96276292
36.88294151
36.87711023
36.95853227
36.99837999
37.00579266
36.99919886
37.01591882
37.01523189
37.00848003
36.99812706
36.99039988
36.98835414
36.94773985
36.92951253
36.93744143
36.88289151
36.86726468
36.8879995
36.78425271
36.75857713
36.81971738
36.73810521
36.72244101
36.79748345
36.71108055
36.70530263
36.78330831
37.05720379
37.06868788
37.0442188
37.07970341
37.07690145
37.05508145
37.0496109
37.03467116
37.01785367
36.97276888
36.94657852
36.93671701
36.86198669
36.83188144
36.83172354
36.73681327
36.6654332
36.70496637
36.62146549
36.58919934
36.6518783
36.56559117
36.55143047
36.62031463
37.2349522
37.24921938
37.18760503
37.24378921
37.23391986
37.18394152
37.18280121
37.15784737
37.11693386
37.06530583
37.02926077
37.00125799
36.90810121
36.865146
36.85044936
36.76045743
36.63969614
36.63906281
36.55315493
36.49149868
36.53512686
36.44619645
36.41570074
36.47418659
37.64071214
37.64912091
37.5203424
37.60929075
37.5751277
37.48253059
37.46739542
37.4199289
37.33842615
37.26137783
37.20581095
37.14945958
37.03173669
36.97277013
36.93839784
36.84754438
36.66637374
36.64757187
36.55149305
36.44100925
36.46092794
36.36077306
36.30329387
36.35084466
38.59051311
38.59344505
38.2876846
38.40719795
38.30262985
38.12179398
38.02211128
37.91893334
37.76400959
37.61875583
37.52547662
37.42928036
37.25363889
37.16820768
37.11035449
37.00391157
36.74744654
36.69965568
36.58570446
36.44322847
36.43846627
36.31519392
36.21830113
36.25137534
40.355094
40.40005393
40.14514337
39.0218709
38.78116247
38.52000955
38.19347611
38.02946354
37.88557333
37.59456788
37.46497513
37.38291558
37.2286988
36.87700822
36.80604459
36.65934733
36.47325303
36.45453213
36.30602452
36.16238914
36.18206735
43.18335978
42.87612864
42.40350312
40.58498854
40.07286337
39.71039116
38.99215222
38.7214556
38.52736326
38.05179186
37.86281992
37.75840648
37.50669129
37.04862267
36.95721208
36.765117
36.5251506
36.49656377
36.31818571
36.13008822
36.14037413
47.69757569
46.81092727
46.35861003
42.36749099
41.55243095
41.18138865
39.91369773
39.52057117
39.30245255
38.58077319
38.3233563
38.20320593
37.81329181
37.24527609
37.14414372
36.89034961
36.59272748
36.55694984
36.34184702
36.11509954
36.11925852
50.68616062
49.61160502
49.33344369
43.91236436
42.89745302
42.58517315
40.82590927
40.32222626
40.1058052
39.12004864
38.79421602
38.67881164
38.11723439
37.44321229
37.34432074
37.02035367
36.66802468
36.62931415
36.37261641
36.11312631
36.11276568
52.14951775
51.11359328
50.96845032
45.04230856
43.94543066
43.71114489
41.60866003
41.02692455
40.84002823
39.61930709
39.23492159
39.13352907
38.3885896
37.62228176
37.53582869
37.14095882
36.74140718
36.70436601
36.40669642
36.11627688
36.1147532
52.7678868
51.79889278
51.75100901
45.79877877
44.68372048
44.5356232
42.21866566
41.59077802
41.45105868
40.04471631
39.61450791
39.52156937
37.70027464
36.77323617
36.11874957
40.36819366
45.89354038
45.40425438
46.1002729
49.04440586
48.7253657
49.78086085
50.83587692
50.66580208
51.72714647
56.70312442
56.54327884
56.61163935
54.54739714
54.28789108
55.3232284
56.22287448
56.41142245
56.41425843
56.20264057
56.21229811
55.57471724
55.97033256
54.97678671
54.74870898
56.41806291
56.41826162
56.46106143
56.53743037
56.54115248
56.26599357
55.48628119
56.18753587
56.19177841
56.66204047
51.67649289
51.61765134
52.58653717
44.86414011
44.43405143
43.99262415
56.49577938
56.49262657
56.48620055
56.42418718
56.43540857
56.57051451
56.34177985
56.52553144
56.52943815
56.49298733
56.49639501
56.44600403
41.57505385
41.87748725
41.90282516
41.88485651
41.90471724
41.68004484
47.91885428
46.63999428
45.89648699
56.33969482
56.35733314
55.97443702
55.81651393
56.29979451
56.31999549
55.94036542
55.80345894
56.60314276
56.70269614
56.16883098
56.05223716
53.81594547
53.89550349
55.25306119
43.5501686
47.44259181
47.0037271
49.88612667
49.53269169
46.39614848
52.4865637
52.20564034
52.64291462
53.72444723
53.01995208
52.71062104
56.21754697
56.20416283
55.52711866
55.59040233
56.24282235
56.22745882
47.84419229
50.6035115
50.244423
41.98239209
41.56230257
41.71532878
56.62408168
56.40367005
56.41334851
53.7820942
54.74387962
54.78009125
41.2475721
41.76247304
41.62306635
43.55004471
43.14613841
43.27604977
56.58494358
56.22998766
56.3325215
45.71585618
46.29636332
45.77520416
45.46357835
44.81702311
44.94061113
36.99542036
36.98740511
37.02621965
37.01424986
37.0062439
37.02438097
37.01966895
37.03326226
37.00516865
37.01087755
37.01454412
37.03796148
37.02489652
37.0259938
37.01462452
37.02157955
37.03398849
37.00586579
37.01237779
37.00617522
37.00494917
36.99555558
37.00608557
36.96576977
36.98242328
36.99042448
36.97476649
36.97730865
36.96314945
36.93104781
36.92865776
36.94928239
36.88777193
36.90918129
36.90969765
36.92384327
36.91440216
36.89742602
36.83879311
36.85066106
36.87022695
36.81773368
36.83464893
36.81902546
36.87666874
36.85422156
36.84067738
37.07244538
37.04367592
37.13940857
37.09927904
37.08773454
37.11049552
37.10763504
37.14704271
37.052107
37.07661482
37.08040423
37.1391996
37.10516936
37.10899788
37.08688961
37.09805014
37.13092077
37.0503191
37.07120041
37.06162645
37.08327451
37.05623427
37.07306761
37.01356306
37.03657246
37.06130022
37.0018305
37.01698138
36.9957525
36.97839067
36.9604016
36.98847587
36.89913195
36.93079432
36.94636716
36.91270017
36.91944248
36.89038003
36.84074276
36.83473689
36.86720496
36.76967159
36.80266353
36.80533754
36.80767576
36.80207381
36.77491494
37.28733434
37.21854828
37.40999256
37.3209268
37.30902439
37.3181089
37.32052793
37.41601065
37.19323681
37.25439187
37.25132004
37.3732499
37.3037997
37.3141615
37.26268211
37.28549803
37.35585016
37.17287355
37.22188886
37.20430111
37.26695252
37.20773995
37.23681458
37.14069066
37.17568435
37.22998052
37.09217393
37.12979575
37.09876523
37.10205021
37.0636566
37.10336107
36.97622804
37.02102304
37.05556952
36.96647107
36.9911747
36.95043125
36.90913117
36.88480467
36.93090855
36.79273498
36.83860057
36.85900542
36.81153161
36.82284207
36.78157329
37.74976968
37.61304575
38.01079104
37.82334147
37.79988831
37.77254112
37.79723598
38.02678132
37.51054044
37.65844748
37.64876804
37.86740209
37.74252121
37.76926655
37.63045634
37.68534163
37.82547896
37.45056077
37.54895769
37.51119431
37.6324972
37.51689426
37.57488314
37.39652307
37.45754707
37.56189707
37.29545623
37.36928171
37.31610534
37.34530175
37.27050694
37.33365335
37.14208527
37.20673565
37.27342238
37.09863591
37.14905189
37.09045771
37.0583249
37.01278959
37.07758099
36.8833532
36.9480823
36.98802226
36.88388334
36.9136516
36.85454683
38.94561332
38.55581939
39.76458952
39.05721686
39.04806729
38.85355085
38.94637341
39.61772225
38.2385938
38.6139604
38.5627089
38.96402683
38.67929361
38.81170104
38.3585369
38.50104673
38.80916188
38.02194962
38.22617777
38.1264805
38.29536106
38.09243817
38.22347567
37.85201602
37.96880796
38.14767935
37.67893544
37.81699742
37.7163682
37.75292255
37.63186615
37.74028936
37.42726172
37.52712606
37.63583533
37.34794563
37.43409358
37.34264508
37.30472229
37.23476402
37.33051406
37.04711252
37.14011987
37.20128907
37.03236615
37.08397134
37.00001729
41.21672934
40.84318603
40.80543924
40.76503416
40.80708551
41.30413548
40.11957903
40.47532901
40.44756743
39.37818163
39.06324391
39.36494762
38.57401166
38.80303005
39.06933304
38.34046334
38.56650918
38.37218213
38.35113334
38.18230462
38.36791291
37.85057422
38.01077636
38.15554045
37.75095692
37.8756816
37.73093287
37.65059961
37.55723727
37.70005585
37.28811073
37.41979354
37.5028933
37.26861802
37.3407701
37.22116892
43.89163859
43.36964213
43.7164676
42.54537955
42.94067515
43.40259195
40.81098515
40.43339439
41.03102022
39.54572709
39.94929642
40.27185655
39.34578476
39.65192193
39.29841294
39.11526832
38.90047145
39.1999319
38.39444674
38.63479364
38.82009508
38.31204907
38.47752646
38.25552631
38.08946181
37.97033476
38.17430623
37.59990281
37.77940223
37.88195678
37.59371865
37.68541475
37.51829024
47.64721317
47.23412036
48.16155881
45.66283493
46.39824802
46.77637785
45.60138497
46.01202845
45.33759647
42.2589336
41.90874766
42.79068214
40.61803843
41.20198881
41.51273195
40.58087236
40.90083186
40.36567452
39.92949787
39.70555636
40.12508937
39.01109898
39.33903828
39.53051846
38.98555906
39.17283982
38.86202172
38.56343899
38.44084914
38.71385589
37.95388599
38.18839836
38.2943276
37.98132227
38.08531775
37.86413867
50.09600859
49.85707018
50.93543291
47.96427323
48.86317989
49.09803937
48.35941904
48.62800286
47.72481459
43.45781828
43.18836294
44.23929419
41.6224072
42.33331005
42.58327839
41.79368064
42.07622794
41.39875626
40.68707228
40.49038053
41.01561937
39.62066694
40.0299208
40.2069356
39.69226714
39.87532615
39.47834918
39.0254704
38.91181436
39.25106184
38.30990326
38.59895564
38.69823713
38.39502574
38.49517341
38.21982265
51.3416746
51.21406668
52.24859886
44.34874285
44.1550726
45.27239381
42.4357964
43.22438101
43.42195531
42.81076617
43.04004925
42.27292806
41.31964361
41.16917587
41.75949813
40.16787483
40.64254295
40.77607416
40.34262122
40.5118005
40.04433428
39.43243377
39.34051855
39.73642366
38.63767011
38.97538585
39.05632519
38.79370264
38.88188781
38.55705576
43.58934461
43.74120651
42.92749319
40.89768757
41.02538679
40.51270025
39.13512554
39.21674049
38.84711934
48.69874553
47.99547071
47.57842113
48.67105483
48.29413588
49.08738687
53.08663874
52.09751699
51.91652865
52.42351981
52.26425005
53.23251345
50.16035868
49.30767397
48.96353357
49.89624999
49.58959881
50.48751258
54.50750333
53.79330702
53.74950616
53.63594591
52.70982567
52.57188105
52.96218987
52.84144654
53.74117888
40.73522049
40.37999376
40.3324791
39.94038565
41.04137336
40.60677842
40.63658164
40.4229759
40.5016713
40.94546859
44.15936007
44.74609596
45.18435082
43.84989642
44.30704921
43.82599345
45.55306433
44.9108554
44.39562831
46.9428377
47.77972116
48.08536387
47.12586474
47.46780037
46.65374233
49.42748667
48.39416451
48.02836328
48.7370281
49.66086992
49.83333561
49.29470784
49.49747273
48.54893596
51.56423606
50.50099766
50.29819939
51.05750129
53.24967209
53.11196432
53.56016416
53.42185594
51.34238922
56.40756683
56.48689762
56.67955791
54.26107286
55.81277317
55.62875081
56.1162925
55.97022248
54.6044139
47.02216083
46.52693596
46.04426811
47.27477603
46.82903258
47.46270921
55.04116547
54.06440397
53.77849978
52.34443979
51.34003366
51.117308
51.73079882
51.52532653
52.54229935
56.39969643
56.39883132
56.14656137
55.72467407
56.09861239
56.22257831
55.9696111
56.05516236
55.62366487
55.62095816
56.22666564
56.24188724
55.3523531
55.15353512
56.13679164
55.41674718
55.78107208
55.88868648
55.51090601
55.66094402