/*--------------------------------*- C++ -*----------------------------------*\
| =========                 |                                                 |
| \\      /  F ield         | OpenFOAM: The Open Source CFD Toolbox           |
|  \\    /   O peration     | Version:  v2012                                 |
|   \\  /    A nd           | Website:  www.openfoam.com                      |
|    \\/     M anipulation  |                                                 |
\*---------------------------------------------------------------------------*/
FoamFile
{
    version     2.0;
    format      ascii;
    class       volVectorField;
    location    "1.68";
    object      U;
}
// * * * * * * * * * * * * * * * * * * * * * * * * * * * * * * * * * * * * * //

dimensions      [0 1 -1 0 0 0 0];


internalField   nonuniform List<vector> 
3019
(
(99.99947594 0.00132913012 -3.895891575e-21)
(99.99909829 0.004936476311 -2.720689636e-25)
(99.99822408 0.01176016075 -3.895896481e-21)
(99.99660325 0.02428861414 -3.882548883e-21)
(99.99966977 0.02037460502 3.764391923e-21)
(99.998182 0.03556083316 0)
(99.9971156 0.06008549738 0)
(99.99667923 0.09503628306 -6.828871539e-21)
(99.99550843 0.1431780389 8.089474598e-22)
(99.99445312 0.2054155766 -5.509687994e-21)
(99.99405637 0.2775349185 5.775119307e-22)
(99.99509428 0.3478404964 0)
(99.99524139 0.003162044362 1.558234862e-20)
(99.99138277 0.01232073562 3.89876178e-21)
(99.98315943 0.0303745491 2.728246429e-20)
(99.9690198 0.06521005705 -1.168687525e-20)
(99.96939525 0.09519121228 3.788815965e-21)
(99.94659435 0.1687583797 -3.145880451e-23)
(99.91600703 0.2858019109 0)
(99.898294 0.3972113887 -6.793179894e-21)
(99.85923571 0.6057848122 -6.407668726e-21)
(99.82100021 0.8808935038 -1.151118674e-20)
(99.79693501 1.209750264 -4.951306258e-21)
(99.81011614 1.544684556 -7.004038061e-21)
(99.98818525 0.002645012215 -1.554764158e-20)
(99.97741427 0.01239472338 -3.118524033e-20)
(99.95460367 0.03571928816 -7.015297854e-20)
(99.91701892 0.08169488707 9.340480791e-20)
(99.8923013 0.1434255351 -7.723018946e-21)
(99.82619285 0.267212567 -7.583356908e-21)
(99.73259348 0.4639891517 -1.31940726e-20)
(99.67296314 0.6890420324 0)
(99.54807521 1.076347944 2.643682594e-20)
(99.42257578 1.60243926 6.057916324e-20)
(99.34270795 2.276279508 0)
(99.40652259 2.997751729 0)
(99.98361734 -0.001719766905 -7.8178918e-21)
(99.96309228 0.000282849845 5.478006747e-20)
(99.91977261 0.01969915569 -1.566780015e-20)
(99.84879873 0.06449154533 0)
(99.78891728 0.1484230401 0)
(99.65679989 0.3039040005 -6.09436029e-20)
(99.47014638 0.5587715504 -1.221829571e-19)
(99.30824954 0.8836683922 2.902986221e-20)
(99.02790469 1.433254328 7.620718124e-22)
(98.71726981 2.270336477 -1.975600255e-19)
(98.51324886 3.425189739 1.321633773e-18)
(98.60975133 4.752459205 1.172056885e-18)
(99.99051777 -0.01086034448 0)
(99.95867649 -0.02699722 0)
(99.89220207 -0.02406342367 7.858143918e-21)
(99.78173823 0.007338757941 1.191818288e-20)
(99.67669459 0.09881863092 1.974791407e-20)
(99.46121045 0.257972891 0)
(99.15652106 0.5259657085 0)
(98.84887375 0.9192953354 -6.043772022e-20)
(98.31827603 1.629101197 -4.384130322e-19)
(97.6774173 2.821929562 -7.12855658e-21)
(97.1363356 4.680184219 1.537095272e-18)
(97.36937479 6.993518568 2.988681589e-18)
(100.0191718 -0.02509083865 0)
(99.97579632 -0.07012108509 0)
(99.88646788 -0.09699055499 -1.577184451e-20)
(99.73610312 -0.09598758938 3.199269089e-20)
(99.57404347 -0.01399335559 0)
(99.27316148 0.1166853481 0)
(98.83500477 0.3572609081 2.504998854e-20)
(98.34735598 0.7648799527 0)
(97.48298793 1.542029635 -4.567703427e-19)
(96.24140713 3.004210697 2.386033094e-19)
(94.88458141 5.640019067 -1.246562306e-18)
(94.66173735 9.757438778 0)
(100.0795271 -0.04409147634 3.840748282e-21)
(100.0257427 -0.1280324584 -3.867426015e-21)
(99.91625405 -0.197267608 7.883343924e-21)
(99.73048424 -0.2426155701 -2.889059872e-20)
(99.51240557 -0.1906840368 8.094528564e-23)
(99.13100863 -0.1208062593 2.457378426e-20)
(98.57068405 0.04419867667 -5.075610118e-20)
(97.88654088 0.3962545078 2.494727692e-19)
(96.65301054 1.071505882 -4.826489445e-19)
(94.6173225 2.445958351 8.484997508e-19)
(91.67931142 5.098948858 2.175394834e-20)
(88.17496126 11.09303653 0)
(100.1801569 -0.06694253351 -3.841153603e-21)
(100.1183088 -0.1978694103 3.86881784e-21)
(99.99376795 -0.3193487489 -4.902390639e-21)
(99.78172273 -0.4238146204 -3.287160407e-21)
(99.513855 -0.4205378971 1.399451423e-20)
(99.07117906 -0.4380822561 8.302045334e-21)
(98.4185197 -0.3943307446 -4.28513038e-21)
(97.5880449 -0.1834671411 5.077166042e-19)
(96.06317589 0.1962587195 4.857365097e-19)
(93.44211795 0.9466602387 7.85499389e-20)
(89.26723195 2.037709534 -1.736898891e-18)
(81.78494222 3.656743469 0)
(100.3274081 -0.09222416499 -1.848288595e-21)
(100.2607648 -0.2752029814 -1.388227862e-21)
(100.1280642 -0.4549536521 -4.754714443e-22)
(99.9018429 -0.6261488464 1.435935769e-21)
(99.59681838 -0.6847640286 -2.631162258e-23)
(99.11995871 -0.805950066 0)
(98.42024795 -0.907814581 -6.613975096e-23)
(97.52292765 -0.887923183 -5.340046159e-19)
(95.88232228 -0.893793939 -6.523655072e-20)
(93.19868597 -0.9125478364 -2.698440426e-20)
(89.48440926 -1.397227091 -9.124768713e-19)
(85.2626627 -3.321951948 0)
(100.5245557 -0.1182084354 3.642000787e-21)
(100.4568041 -0.3546839934 5.531733008e-23)
(100.3235648 -0.5941763314 0)
(100.09664 -0.8344930475 1.872985967e-22)
(99.76962896 -0.9620131119 -1.917557766e-21)
(99.28820021 -1.190152121 2.032056942e-21)
(98.59030142 -1.439935629 -6.710278362e-20)
(97.69907847 -1.615792975 -9.604798123e-19)
(96.10701791 -1.971076328 1.334019698e-19)
(93.66407981 -2.528704304 -6.323411898e-19)
(90.72324821 -3.556735192 1.623363137e-18)
(88.08770244 -5.127746639 -8.326123916e-19)
(100.771449 -0.14320853 -1.79355662e-21)
(100.7061176 -0.4309874332 1.808072038e-21)
(100.5793447 -0.7271059237 1.763102487e-21)
(100.3657576 -1.034203877 -1.64398527e-21)
(100.0302501 -1.230816458 -1.889805063e-21)
(99.57180333 -1.557121015 0)
(98.91716686 -1.941038758 -6.589050206e-20)
(98.08171248 -2.290165709 0)
(96.62174801 -2.915773207 -3.720430338e-19)
(94.47317685 -3.79506135 -2.298462461e-21)
(92.00973631 -4.973520672 0)
(89.83670671 -6.219363759 0)
(101.0645763 -0.1656918316 6.593172116e-21)
(101.0048806 -0.4992281377 0)
(100.8900533 -0.8435337769 -1.75966256e-21)
(100.6995471 -1.216368608 0)
(100.3657284 -1.4728616 0)
(99.95625679 -1.879387757 -5.616274071e-21)
(99.37544106 -2.373736811 -7.599861023e-21)
(98.62692606 -2.863103147 0)
(97.34300458 -3.684619791 0)
(95.47153263 -4.776999956 0)
(93.27888042 -6.087050377 0)
(91.18294619 -7.32219719 1.681487919e-19)
(84.74198181 -2.92950204 0)
(87.82569528 -4.960245717 2.135054956e-19)
(89.65144652 -6.097228058 0)
(91.01365442 -7.169648023 -6.741632379e-19)
(82.07950461 5.092178662 0)
(90.39540744 -3.110785644 0)
(88.11667585 -4.674332544 0)
(85.78419684 -2.849837922 2.135701569e-20)
(91.69401142 -4.65946107 1.847878122e-20)
(89.89281916 -5.904345216 7.355057413e-19)
(88.37336884 -4.85656321 8.375832005e-19)
(88.81526918 -5.585328944 -9.056412797e-22)
(88.02149224 -6.426897434 7.188633334e-19)
(87.05662459 -5.973174348 0)
(92.95474882 -5.825049748 1.374016187e-18)
(91.25232655 -6.996152265 -6.604275559e-19)
(90.07595992 -6.034801548 -7.227111416e-19)
(90.35422663 -6.600061251 0)
(89.37657736 -7.143798487 0)
(88.94584868 -6.784246572 -8.724883521e-19)
(91.42177264 -7.145387421 6.602401966e-19)
(91.8216055 -7.793708054 0)
(90.28134791 -8.442927875 0)
(89.86549467 -7.805335132 0)
(78.69990512 -5.179452185 0)
(83.57548509 -5.912920362 9.319777814e-19)
(71.74173869 4.804945879 0)
(77.68787996 -4.70825063 0)
(86.92617908 -5.895306657 1.910852659e-19)
(85.97679612 -5.52928351 0)
(86.9183284 -4.383703553 0)
(85.82586281 -5.693405637 0)
(86.79463554 -6.009342584 5.699502385e-19)
(83.98408398 -5.879145718 0)
(85.66737278 -5.682601004 8.245822147e-19)
(88.86105821 -6.740860719 1.39439722e-18)
(88.14706265 -6.47004133 -8.976532616e-19)
(89.03998766 -5.72208514 0)
(87.97564106 -6.556284655 5.468692256e-19)
(88.72247319 -6.80825261 0)
(86.85839428 -6.05582657 -1.712987615e-18)
(87.91290493 -6.531513643 0)
(89.83033159 -7.763533772 5.010869565e-19)
(89.40145891 -7.176996542 1.028849909e-18)
(90.51875086 -6.735353999 0)
(89.24939188 -7.195674378 0)
(89.60655485 -7.79271354 5.131469448e-19)
(88.76266358 -6.833837698 1.224319655e-21)
(89.2289369 -7.163526638 0)
(90.30846595 -8.494248792 4.853243955e-19)
(91.91507073 -7.879715814 0)
(89.93312238 -8.508099315 4.986422821e-19)
(89.64008892 -7.833782817 0)
(89.91826764 -8.459537696 -6.179340991e-19)
(89.25866573 -0.6623772806 0)
(85.35104655 -2.423093311 -1.003161155e-18)
(83.28560642 3.526943215 0)
(82.48729649 -0.1555854563 0)
(78.35326301 -3.736714532 0)
(73.77238889 4.767780821 0)
(86.56318876 -4.166046931 -9.431072237e-19)
(85.81035108 -5.506282753 -1.606158687e-18)
(84.01615406 -5.475324217 0)
(83.60300505 -5.44723411 0)
(79.20210859 -4.236105221 0)
(83.02060015 -1.084782861 0)
(81.60670968 -8.484366558 -1.964298995e-18)
(58.02564452 6.36049225 0)
(66.67364535 -8.36025304 7.435959148e-19)
(79.69629155 16.5956024 0)
(71.97164927 6.941911327 0)
(90.11708193 -8.113603783 0)
(90.96841182 -7.911213511 5.898972992e-19)
(91.22775629 -8.171970004 0)
(77.75861927 -10.40714252 0)
(81.21837245 -8.723152816 -2.006122957e-18)
(81.25291766 -5.84029691 1.062683963e-18)
(81.37335674 -8.436604142 2.620636972e-18)
(77.79862802 -9.527658547 9.488158716e-19)
(83.23451298 -7.171720785 8.164893311e-19)
(81.73507465 -8.241391521 1.749427421e-18)
(81.93814627 -5.900707276 -7.585393841e-19)
(73.37989108 -0.8051560782 0)
(67.66889631 -6.805054207 -1.39916983e-18)
(60.71665357 6.127326516 0)
(77.00414376 -9.522802095 1.306109231e-18)
(69.04523718 -7.674245297 2.04303294e-18)
(74.4173429 -2.195180729 0)
(68.31338909 -9.220325399 -1.183185068e-18)
(77.01154775 -10.3527347 0)
(86.31055481 -5.751035462 -8.9117391e-22)
(84.70970738 -6.053667439 2.619019234e-18)
(86.37216506 -5.778199664 -5.731828909e-19)
(84.87563113 -5.739511482 1.900206671e-18)
(84.19071722 -6.370647374 8.71116328e-19)
(83.34960971 -7.053229356 -5.552647293e-21)
(84.67771695 -6.053058716 -1.741498222e-18)
(84.26543405 -6.284349338 -8.671044554e-19)
(85.10410878 -5.708361163 -8.498644651e-19)
(88.3684221 -6.665489916 1.273859598e-21)
(88.41791094 -6.686676397 5.505675348e-19)
(87.35204016 -6.322169126 5.659073562e-19)
(87.42440212 -6.36089522 -5.679253626e-19)
(89.43076125 -7.465444796 0)
(89.45620984 -7.501555646 0)
(89.01697709 -6.972754188 -2.592705781e-19)
(89.0473016 -6.99578303 0)
(91.31879225 -8.262720772 -5.731309677e-19)
(89.84696007 -8.084340071 -1.23920574e-22)
(89.86629239 -8.12506603 1.104121805e-18)
(68.13608183 22.98585616 6.123768445e-19)
(58.24078931 9.23037921 -3.248534054e-18)
(89.17476458 -6.96740579 5.036672326e-19)
(89.71953619 -6.737154021 0)
(89.95023754 -6.919415071 0)
(89.38070607 -6.51815506 -6.328286971e-19)
(89.63868657 -6.680302685 6.277456871e-19)
(89.14165224 -6.945735837 0)
(90.64080326 -7.58404657 0)
(90.88571899 -7.827013629 3.906944745e-21)
(90.0913035 -8.070812066 -1.594954068e-21)
(88.58719182 -6.621841352 0)
(88.99793426 -6.310362115 -6.437092604e-19)
(89.28946864 -6.465364424 0)
(88.16933149 -6.898614028 0)
(88.07918028 -6.84118792 0)
(88.59979413 -6.753072693 -5.5060765e-19)
(89.6316607 -7.477586153 5.178145349e-19)
(90.32621278 -7.272858933 0)
(90.56055171 -7.504449593 -5.986787861e-19)
(90.02473435 -6.985748228 0)
(90.24974959 -7.198166927 0)
(89.60197388 -7.439501223 0)
(89.31584665 -7.308582074 0)
(88.25325695 -7.308762371 1.866828857e-18)
(88.25196669 -7.166202084 0)
(87.59876582 -7.729785894 0)
(87.57293272 -7.605497523 0)
(89.52001322 -7.658783607 0)
(88.88080525 -6.891784488 0)
(88.29420364 -6.983568841 0)
(88.20386135 -6.921223123 0)
(88.25603148 -7.137450115 0)
(88.24569173 -7.085995655 0)
(89.16133422 -7.083402889 1.048347347e-18)
(89.74311768 -7.945664389 0)
(87.77236371 -7.884891823 -1.331207787e-18)
(87.62543682 -7.784106684 1.332797785e-18)
(87.75843505 -8.240350779 -1.046723174e-18)
(89.92985153 -8.327441993 1.909874677e-21)
(82.38615263 -7.854778091 2.605564934e-19)
(82.6264198 -7.71280473 3.80910763e-18)
(60.22090532 -1.952795697 5.198378335e-18)
(61.6402023 -4.05961853 -1.679474607e-18)
(79.49878245 -9.662431529 4.030464507e-18)
(79.9767077 -9.384663828 1.013709981e-18)
(80.14234784 -8.983229002 0)
(80.10052442 -7.355998118 8.801720561e-19)
(81.43064184 -7.258202343 0)
(77.86405896 -7.185515582 0)
(79.5923358 -7.35651376 -1.773748176e-18)
(79.65110773 -9.168062796 8.758456498e-19)
(82.80078361 -7.581096347 -2.180199917e-18)
(82.96454451 -6.877060369 0)
(83.58140841 -6.63644006 0)
(81.80942136 -7.198370262 0)
(82.71998102 -6.960495097 0)
(82.5553393 -7.705963254 -4.492443726e-19)
(74.06776803 -9.388908839 2.283075111e-18)
(74.90676059 -6.434358343 0)
(77.17622095 -7.061425904 0)
(72.66530672 -10.57280385 0)
(73.96826478 -10.63449526 1.13454758e-18)
(84.95193382 -6.046971738 6.889567421e-19)
(85.69098124 -5.94291913 8.684418614e-19)
(85.79990843 -5.964770056 -6.297150102e-19)
(85.4351028 -5.936050167 -7.054715693e-19)
(85.6319446 -5.940143499 -7.068872018e-19)
(84.89218224 -6.071909419 -4.410739795e-19)
(85.98537819 -6.103031393 0)
(86.11571727 -6.24547948 -1.300293809e-18)
(85.82714359 -5.987684377 -7.764202783e-20)
(85.94532674 -6.068419954 0)
(83.88884511 -6.613891111 -2.609848997e-18)
(84.35036834 -6.29378142 0)
(84.69861254 -6.136844874 1.35072707e-18)
(83.75467617 -6.561912842 1.328943062e-18)
(84.21658443 -6.356004645 6.692078128e-19)
(83.77992585 -6.715744084 0)
(84.49811357 -6.162759975 -2.303353489e-21)
(85.14366999 -5.984260077 0)
(85.3682392 -5.940880398 1.399483158e-18)
(84.79886634 -6.093175244 6.791360663e-19)
(85.06140423 -6.003940733 -6.881096975e-19)
(84.41642894 -6.182624487 3.486190403e-18)
(87.38415443 -6.789491732 0)
(87.50920558 -6.828936839 6.250835803e-19)
(87.20364698 -6.813860776 0)
(87.35000442 -6.78792528 2.443030622e-18)
(87.69428842 -6.842235938 0)
(87.76481478 -6.90396708 -6.603649276e-19)
(87.55853916 -6.836216071 -6.305760923e-19)
(87.67216491 -6.83555547 -2.801139058e-22)
(86.4718528 -6.507610566 0)
(86.71177485 -6.615002662 -6.785390038e-19)
(86.17097078 -6.304979958 8.57918368e-23)
(86.39212967 -6.465343477 -6.650120323e-19)
(87.0900236 -6.747264352 -6.430509321e-19)
(87.1740321 -6.800410026 -5.944911873e-19)
(86.79131335 -6.64504937 -6.828131922e-19)
(87.02277039 -6.723848165 3.473439692e-19)
(88.36911714 -7.481973933 -6.485385909e-19)
(88.27619749 -7.367591569 6.300627448e-19)
(89.34257675 -7.349528544 -5.472992485e-19)
(87.32566282 -7.320540472 -1.063955337e-18)
(87.45031749 -7.420277048 1.083422311e-18)
(87.33503084 -7.0815979 0)
(87.29655973 -7.247545842 -1.065804121e-18)
(87.4326386 -7.44259627 3.76434147e-19)
(89.50559983 -7.613253057 0)
(87.69211443 -7.567201925 0)
(88.35238391 -7.514801613 -3.283836904e-19)
(88.17980896 -7.046841876 3.454078956e-20)
(88.31589629 -7.013339122 0)
(88.9168218 -6.916333981 -4.076083402e-19)
(87.88487744 -7.01680592 0)
(87.32000153 -7.0110738 0)
(87.7979344 -6.928974971 0)
(87.86592705 -6.993026698 0)
(87.35904433 -7.023171024 0)
(87.35147364 -7.056727721 0)
(87.31366221 -7.008980745 0)
(87.3508382 -7.01687064 0)
(89.1354058 -7.060453934 0)
(88.2347585 -7.07495864 0)
(88.18652348 -7.057723478 0)
(87.84572952 -7.951480963 -3.371653836e-19)
(87.80630843 -7.90090287 -1.333693941e-18)
(89.77397579 -7.979069056 5.33100134e-19)
(89.91710051 -8.271566986 -5.505461994e-19)
(87.75566852 -8.173217517 9.039717802e-19)
(87.83743059 -7.97640064 0)
(87.6134789 -6.265258618 -5.506304843e-19)
(88.06480133 -5.850220337 6.757414852e-19)
(88.44030219 -6.039358965 0)
(87.53870488 -5.561151934 -6.964494478e-19)
(87.9351465 -5.780622319 0)
(87.47215013 -6.199144325 7.470891964e-19)
(88.55954674 -6.096981143 0)
(88.89410501 -6.258270015 0)
(88.48584735 -6.584619399 0)
(88.15571842 -6.600702009 -5.455393239e-19)
(87.69533408 -6.76208895 -1.732253847e-18)
(87.52681166 -6.74816209 0)
(87.47581264 -6.732014039 4.336974442e-19)
(87.30836935 -6.679327188 5.995624078e-19)
(87.71146854 -6.472770405 -5.615492229e-19)
(81.92839478 -8.222767046 -1.978138126e-18)
(78.42652058 -10.23103625 0)
(77.43888072 -10.65816147 1.580362888e-17)
(80.81443959 -8.927739119 -2.027790114e-18)
(80.98890295 -8.615477989 2.63029321e-18)
(81.05759438 -8.193066927 -8.345220401e-19)
(81.43984075 -8.044076018 -1.663579012e-18)
(83.12442716 -7.314523202 6.069758661e-18)
(83.26936738 -7.12723622 1.432496129e-18)
(83.42729443 -7.018179146 -7.140903579e-19)
(81.79274183 -7.885450932 -1.641485077e-18)
(82.10959664 -7.726045429 8.39286646e-19)
(82.05094461 -8.037886257 1.744435488e-18)
(71.53151072 -4.380383666 0)
(74.09485756 -5.968737447 0)
(72.8949337 -9.206386944 0)
(69.84964186 -9.924897878 2.47224969e-20)
(69.49352589 -12.05908096 9.645764123e-18)
(67.58781899 -10.8238289 1.297785404e-18)
(76.81652023 -10.89615 -3.637681031e-19)
(76.00421595 -11.20764318 -4.800771755e-18)
(76.1383807 -10.46193657 0)
(84.82799896 -5.98525662 6.267578063e-18)
(85.18914415 -6.001511356 0)
(85.12415174 -6.012307872 6.921338046e-19)
(85.06702106 -6.042150432 7.789385089e-19)
(85.12368275 -6.044260465 -1.566459434e-18)
(84.75643615 -6.06208286 -8.764797315e-19)
(85.1888949 -6.202738513 -1.620992616e-18)
(85.20409535 -6.275493261 8.130675604e-19)
(85.09008841 -6.027646395 0)
(85.10168587 -6.041285872 -7.828485062e-19)
(84.08779488 -6.461697852 1.738401575e-18)
(84.34752127 -6.408826043 -2.228585526e-18)
(84.44835908 -6.336856286 4.98802856e-21)
(83.57779663 -6.922790038 7.213354889e-19)
(83.72907052 -6.833395461 0)
(83.49121247 -6.945945633 -8.725176905e-19)
(84.64376458 -6.075220046 -8.737969525e-19)
(84.96378927 -6.069627046 -1.540461492e-18)
(85.01689786 -6.048271738 7.750974659e-19)
(84.53392797 -6.267323722 1.494145906e-18)
(84.6032097 -6.213770756 0)
(84.31163854 -6.227179759 0)
(87.87990117 -6.8036026 0)
(87.74140667 -6.768564821 0)
(88.2110501 -6.621868455 0)
(88.55719524 -6.730808335 0)
(88.0485763 -6.830657415 -6.122040031e-19)
(87.92768259 -6.812603832 0)
(86.93139325 -6.545181783 1.29308838e-18)
(86.69831821 -6.436364868 1.273121632e-18)
(87.1338006 -6.219512677 -4.969913146e-22)
(85.74918276 -6.685445595 -8.09100406e-19)
(85.82856116 -6.714556401 1.614664145e-18)
(85.24021208 -6.372996811 1.635345941e-18)
(85.31334281 -6.462772873 -8.170068874e-19)
(86.02010676 -6.837260435 0)
(85.90646708 -6.740351579 8.057856387e-19)
(85.98236975 -6.762870458 0)
(87.64163649 -6.441480416 0)
(87.23785912 -6.656717161 3.252937725e-19)
(87.00923102 -6.576241331 6.489917722e-19)
(88.24581508 -7.251558444 -1.237780373e-18)
(88.76473446 -7.280235764 5.897515929e-19)
(88.77889407 -7.32804609 -1.792087054e-18)
(87.57867011 -7.686248591 0)
(88.66125943 -7.763416997 -5.494458098e-19)
(88.68486248 -7.800814485 -1.110816281e-18)
(88.64652228 -7.679357195 5.327467106e-19)
(88.64145482 -7.726084147 5.405622533e-19)
(87.55693738 -7.646576943 0)
(88.07721391 -8.405911032 -1.229096997e-18)
(88.08394847 -8.430087403 -6.259656812e-19)
(87.72433038 -7.864411233 0)
(88.78637712 -7.918457722 -1.140574537e-18)
(88.82381298 -7.944124476 1.151421943e-18)
(88.711444 -7.843180852 -5.60081841e-19)
(88.74604758 -7.884964028 0)
(87.66947125 -7.832805738 0)
(88.20954686 -8.375063333 1.07257023e-18)
(88.09615939 -8.387914909 0)
(88.8679497 -8.338619955 -7.466810666e-21)
(88.38521161 -8.352498995 7.544893282e-18)
(87.37803082 -8.269698928 -1.831357784e-17)
(82.17015927 -8.007848286 -2.486411345e-18)
(82.76494393 -7.502500934 1.688656001e-18)
(52.26656826 -1.446665561 7.301640615e-19)
(54.45493284 -4.712644914 3.039524714e-18)
(62.48644216 -12.01894695 0)
(64.76383653 -12.46818138 0)
(57.10525653 -7.489177643 2.051415302e-18)
(59.86238364 -10.79183693 2.172434146e-20)
(57.65276363 -11.74182642 0)
(78.98131546 -9.957479109 0)
(80.410059 -9.135405197 -1.028425838e-18)
(82.88521034 -7.35555517 -7.985629399e-19)
(83.0909703 -7.244789431 -7.4389539e-19)
(82.96341932 -7.459229825 -4.971027816e-18)
(82.31545201 -7.853730602 2.202909519e-18)
(82.38934485 -7.581943742 0)
(82.64346879 -7.458420782 8.236155151e-19)
(72.51432556 -12.22148764 1.281530455e-19)
(71.14115919 -12.33534828 -9.223768255e-18)
(71.27666567 -10.35358447 0)
(66.90217553 -12.63741141 -9.632928899e-18)
(68.72156413 -12.80557789 -4.112281036e-17)
(75.12886706 -10.58265008 -1.166325597e-18)
(75.01662224 -11.57825315 0)
(73.82670939 -11.9486083 0)
(85.30714813 -6.039475368 -2.0150245e-19)
(85.35126906 -6.025462335 0)
(84.98551205 -6.007279233 0)
(84.81815798 -6.073629101 -8.701975093e-22)
(85.1872934 -6.048516457 -7.892753484e-19)
(85.2543994 -6.048350099 0)
(85.16330965 -6.110172142 0)
(85.17677777 -6.148901242 0)
(85.12617726 -6.058042455 1.597467529e-18)
(85.14671411 -6.080851242 -8.050015312e-19)
(84.13384742 -6.555802251 2.213575746e-18)
(84.24215998 -6.47847749 7.388456903e-19)
(83.98469527 -6.534679975 -8.719475762e-19)
(83.64391841 -6.831904899 0)
(83.87782065 -6.740454188 0)
(84.0142471 -6.645073087 7.406462256e-19)
(84.81780424 -6.131914331 -4.310342015e-22)
(84.89683001 -6.102013068 3.060178958e-18)
(84.58317917 -6.120419386 -2.603483942e-18)
(84.35570779 -6.196774941 1.78790481e-21)
(84.66788953 -6.17831221 -7.576108627e-19)
(84.73875262 -6.154353326 -1.523794456e-18)
(87.41990111 -6.800282017 6.186935049e-19)
(86.7124786 -6.78675498 0)
(86.68970713 -6.774805221 -1.460811659e-18)
(86.80018818 -6.821012882 0)
(86.74947289 -6.806325028 -1.467223254e-18)
(87.46169221 -6.815435619 -6.243940641e-19)
(87.25545938 -6.810834183 0)
(86.59748244 -6.827983665 0)
(86.55395636 -6.854246069 1.358988214e-18)
(86.6728008 -6.776036188 -2.182626248e-18)
(86.64493788 -6.796018029 -7.235437914e-19)
(87.30850386 -6.797614531 1.208386947e-18)
(87.71450494 -6.857138659 0)
(86.98091351 -6.814461809 1.477853633e-18)
(86.97461149 -6.799803641 0)
(87.01404453 -6.869697365 3.705389231e-19)
(86.99231684 -6.838695219 0)
(87.73715648 -6.878451977 6.538515951e-19)
(87.60444083 -6.83772864 0)
(86.90677294 -6.818712095 0)
(86.85601946 -6.824105216 0)
(86.96632122 -6.796778883 1.468001484e-18)
(86.94484247 -6.806051903 0)
(87.64290949 -6.8359496 0)
(85.58645142 -6.615733938 8.124002877e-19)
(85.66813693 -6.653213939 0)
(86.55162349 -6.546632627 0)
(86.22244513 -6.610512521 7.06979845e-19)
(86.14038276 -6.572810563 -7.005594045e-19)
(86.3865431 -6.675126352 0)
(86.30482018 -6.644320951 -1.417696361e-18)
(86.63176114 -6.582366795 0)
(85.41022794 -6.524308549 -8.104756324e-19)
(85.50282099 -6.572142392 1.625058017e-18)
(86.17741625 -6.822597114 -4.242389058e-19)
(86.22669618 -6.828146017 0)
(87.15417009 -6.778828979 1.319749213e-18)
(86.82661036 -6.831408914 0)
(86.7561916 -6.803881431 0)
(86.56250118 -6.865523077 0)
(86.6085935 -6.853466036 0)
(87.15969144 -6.78520128 -2.985749016e-21)
(86.86996728 -6.672689729 6.871116607e-19)
(86.54668107 -6.729231464 0)
(86.46730886 -6.70343755 0)
(86.69884685 -6.778282195 -7.306497045e-19)
(86.6235952 -6.754107006 1.448791012e-18)
(86.94735981 -6.698674911 0)
(86.05469965 -6.785325745 -1.615360613e-18)
(86.12611434 -6.804559796 -1.224303064e-18)
(88.34531193 -7.451049977 -2.233049333e-21)
(88.85984948 -7.459704811 0)
(88.88405507 -7.495502373 0)
(88.80120606 -7.377229886 0)
(88.83034161 -7.421578687 0)
(88.31183898 -7.415185722 6.314920671e-19)
(87.37758836 -7.368572781 0)
(87.42320909 -7.398617814 0)
(87.31601256 -7.119202512 0)
(87.29794766 -7.172046811 2.119374876e-18)
(87.4058196 -7.451031198 0)
(87.00998557 -7.467680489 0)
(87.88369702 -7.537650148 0)
(88.79020899 -7.584037714 0)
(88.70173295 -7.623071111 -5.328930386e-19)
(88.88957819 -7.529672386 0)
(88.89054882 -7.57590183 1.180753123e-18)
(88.34537787 -7.54991977 -9.6985986e-19)
(87.52850418 -7.004803494 2.06199243e-18)
(86.79172488 -6.953836208 5.363350885e-18)
(87.10738164 -6.953173729 0)
(87.39954265 -7.011871813 0)
(87.83175939 -6.950742737 1.34178779e-18)
(87.08165838 -6.915421887 -1.490932485e-18)
(87.04691995 -6.896347052 -3.722558351e-19)
(87.10915608 -6.948125961 0)
(87.11081316 -6.930122087 0)
(87.86300814 -6.970529411 0)
(87.36355332 -7.030616698 0)
(87.36125269 -7.040678517 0)
(87.32900944 -7.008947039 -1.359058274e-18)
(87.34142671 -7.011867223 0)
(87.84173914 -7.933116977 3.353306935e-19)
(88.89104679 -8.01328309 1.179775991e-18)
(88.9002905 -8.041504554 0)
(88.85360422 -7.966378063 1.960253677e-21)
(88.87553481 -7.988762146 1.170930616e-18)
(87.82832949 -7.916512776 -2.676075585e-18)
(87.79065318 -8.080818468 1.387529681e-18)
(88.89226156 -8.182297781 -1.871252843e-18)
(88.86254949 -8.258795344 -6.354335877e-19)
(88.9028333 -8.076053724 0)
(88.89814566 -8.122161142 -1.226392548e-18)
(87.81610855 -8.019190071 1.364478991e-18)
(99.74449592 0.6227221167 -1.368060806e-20)
(99.67585133 0.8698150638 6.569341401e-21)
(99.88915069 0.5404350086 6.609112996e-21)
(99.64761918 0.9663207973 -1.969390158e-20)
(99.57867031 1.30167832 -6.192356349e-21)
(99.85885148 0.7970798355 -3.710016651e-22)
(99.5520661 1.428052314 -1.201860173e-20)
(99.5070545 1.851206886 -3.430458587e-19)
(99.83997675 1.113570882 4.950380313e-21)
(99.49275548 2.00428994 -5.984731635e-19)
(99.52283366 2.466490186 4.956871018e-19)
(99.85233533 1.45361946 -1.983317346e-21)
(99.5420389 2.613115713 -4.977957671e-19)
(99.41042252 0.8470102709 -1.442368065e-20)
(99.23850619 1.21208169 -1.417683231e-20)
(99.58230811 0.9673006505 0)
(99.1762174 1.357646418 5.23440538e-20)
(98.9834528 1.894529581 -1.012765502e-18)
(99.45476903 1.457132372 0)
(98.92163829 2.110022261 9.572759931e-20)
(98.78601644 2.849418674 1.416668785e-18)
(99.35634117 2.097353117 -6.886204719e-19)
(98.76158017 3.12504433 -1.293140963e-18)
(98.78984823 3.99848384 -2.182161878e-18)
(99.37629368 2.82254213 -8.296765906e-21)
(98.8487903 4.275691728 1.007987253e-18)
(98.96988845 0.9282978278 4.682347254e-19)
(98.63834011 1.398376255 2.260723456e-19)
(99.10330305 1.274514759 -4.254713453e-20)
(98.51093031 1.602139278 -2.184008451e-19)
(98.11074988 2.377094857 0)
(98.79119169 2.030905632 -4.839498887e-21)
(97.97490856 2.701987002 -2.07363428e-19)
(97.6208107 3.899856953 2.463999134e-20)
(98.54543038 3.108973843 1.441658763e-18)
(97.54853371 4.366837293 0)
(97.61929888 5.871978212 0)
(98.54231027 4.427560812 1.038756241e-19)
(97.76578979 6.370874852 -1.524848875e-19)
(98.47305091 0.8229256185 6.140925925e-20)
(97.91473347 1.357409205 -1.386744802e-18)
(98.4668534 1.411497864 4.440655968e-19)
(97.69874417 1.594060507 9.15645218e-19)
(96.92518892 2.57409142 4.304056416e-19)
(97.84396666 2.4659266 2.121625586e-18)
(96.63643419 3.01563463 0)
(95.77845763 4.754616762 -1.810483882e-18)
(97.23252811 4.153192843 -1.656486731e-18)
(95.54906943 5.479053092 2.661785485e-19)
(95.35424596 8.093947222 -4.245181293e-19)
(97.19092618 6.41448798 -1.482983205e-18)
(95.56612611 9.057777332 0)
(97.99197224 0.5089773822 -4.917851575e-19)
(97.18887001 0.9995077384 -1.912550421e-18)
(97.72820666 1.302264091 4.595913824e-19)
(96.84674347 1.230661198 4.746296102e-19)
(95.54068931 2.221274333 -2.553569454e-19)
(96.58601839 2.548348386 -1.594572047e-20)
(95.01159831 2.676504548 -1.374730803e-19)
(93.18069904 4.579898987 0)
(95.18892763 4.845812074 -6.359671037e-20)
(92.51801124 5.4631239 1.631190193e-19)
(90.69249645 9.309974332 1.751942701e-18)
(94.48048579 8.601585271 -5.192002421e-19)
(90.3441495 11.28909016 -6.537716356e-19)
(97.64066897 -0.02187782945 -3.708845603e-19)
(96.62309352 0.2929099935 -1.266733749e-19)
(97.02559995 0.8537970112 9.746080751e-19)
(96.17131127 0.4465846994 -3.811497371e-19)
(94.40107036 1.097681592 3.037237606e-19)
(95.21210264 2.01003784 0)
(93.65403073 1.387696216 1.324483478e-19)
(90.82207626 2.513730681 3.797159345e-19)
(92.4943547 4.25690358 1.429532709e-19)
(89.62783355 2.979442906 1.697923452e-18)
(83.54849888 4.70105329 1.06922528e-18)
(89.05487375 8.989450283 1.579486214e-18)
(85.56677474 9.413438904 0)
(83.20464455 14.65712871 0)
(88.6823285 14.65572536 0)
(97.51604175 -0.7048463073 8.781567728e-19)
(96.38707294 -0.6493093918 1.05907464e-18)
(96.53344976 0.07063435372 -9.796609799e-19)
(95.88670868 -0.6149578011 5.944596482e-19)
(93.96541612 -0.4900124607 0)
(94.21995755 0.7210684873 0)
(93.17512346 -0.4565547723 0)
(90.3445564 -0.5213263021 0)
(90.50178267 1.745378366 8.251179239e-19)
(89.10769151 1.078347103 8.773873501e-19)
(87.72777037 1.165181191 0)
(87.86053637 2.320789244 0)
(81.79372033 2.259529257 0)
(80.13179634 2.100513054 0)
(80.02751077 3.767610862 0)
(97.63415641 -1.436210268 4.888954517e-19)
(96.50986995 -1.63503988 -9.994886684e-19)
(96.38456473 -0.8986591659 1.112044525e-18)
(96.0203975 -1.711374474 0)
(94.2112465 -2.015589833 3.031984268e-19)
(93.97356077 -0.8906806315 6.926153993e-21)
(93.50503936 -2.158862692 -3.137872049e-19)
(91.1876547 -2.801026481 -7.779495923e-19)
(90.48843058 -1.180331974 0)
(89.76373134 -2.042995183 0)
(88.83049753 -2.380992096 -1.143675906e-18)
(88.44321091 -1.688842061 9.214365427e-19)
(85.73880166 -3.647020901 0)
(85.36640884 -4.185725228 0)
(84.82406199 -3.911859347 0)
(97.96890597 -2.129405878 0)
(96.91975053 -2.535711431 0)
(96.58822971 -1.871274019 1.018144436e-18)
(96.47068037 -2.695111251 3.845619415e-19)
(94.85889927 -3.274409333 2.898257722e-19)
(94.34470728 -2.356844251 6.039893415e-19)
(94.24995011 -3.507940706 1.909222892e-20)
(92.3266103 -4.340320276 1.464112379e-18)
(91.46296638 -3.239397089 -3.871408718e-21)
(91.05064719 -3.957846234 -8.121583429e-19)
(90.37890911 -4.314809288 6.069819363e-19)
(90.007706 -3.920704225 -4.302443668e-19)
(88.33870871 -5.287544619 0)
(88.0670169 -5.646116411 1.322923112e-18)
(87.67463527 -5.424967663 1.362925235e-18)
(98.47773092 -2.730956005 0)
(97.54356582 -3.292174006 -5.805944337e-20)
(97.05851781 -2.739761702 0)
(97.14651895 -3.509987717 0)
(95.73626782 -4.267872498 -2.639598727e-19)
(95.06073476 -3.546290729 0)
(95.20684647 -4.554983908 0)
(93.52317552 -5.49499871 -1.65268331e-20)
(92.62037827 -4.654700677 6.985417433e-19)
(92.32327675 -5.270087409 -7.168868156e-19)
(91.7390406 -5.599567308 7.501653136e-19)
(91.4137207 -5.306722657 2.112652444e-19)
(90.01480727 -6.343076045 0)