/*--------------------------------*- C++ -*----------------------------------*\
| =========                 |                                                 |
| \\      /  F ield         | OpenFOAM: The Open Source CFD Toolbox           |
|  \\    /   O peration     | Version:  v2012                                 |
|   \\  /    A nd           | Website:  www.openfoam.com                      |
|    \\/     M anipulation  |                                                 |
\*---------------------------------------------------------------------------*/
FoamFile
{
    version     2.0;
    format      ascii;
    class       surfaceScalarField;
    location    "0.48";
    object      meshPhi;
}
// * * * * * * * * * * * * * * * * * * * * * * * * * * * * * * * * * * * * * //

dimensions      [0 3 -1 0 0 0 0];
oriented        oriented;


internalField   nonuniform List<scalar> 
5975
(
3.802875669e-07
0.0001664960363
-6.75054726e-07
-0.0003330492561
0.000166847987
0.000667038828
-5.071177062e-05
0.0001072478642
-0.001339245155
0.000671828133
-5.615789964e-05
-0.0001848375168
0.00127177698
0.0001800509838
-0.001200095514
-0.0001744081656
0.0008866532704
0.0001677549841
-0.0007574959354
-8.696647327e-05
0.0003669787687
8.140058732e-05
-0.0002537542738
2.873123978e-05
-5.975025348e-06
4.674241372e-06
-2.826748443e-06
0
0
0
0
0
0
0
0
0
0
0
0
0
0
0
0
0
-6.575333823e-06
0.0003545023537
6.575329152e-06
-0.0007105941789
0.0003560918298
0.001425892518
-0.0001101036494
0.0001098098435
-0.001422483173
-0.0001692194524
0.001260335836
0.0001656835602
-0.001166045499
-0.0001457766741
0.0007883597608
0.000138956891
-0.0006538593709
-5.965765326e-05
0.000265817184
5.237564336e-05
-0.0001691501008
4.073943577e-06
-8.967211998e-07
4.058144675e-07
0
0
0
0
0
0
0
0
0
0
0
0
0
0
0
0
0
0
-1.885814394e-05
0.001506820205
1.885814392e-05
-0.001506820205
-0.0001069224266
0.001481288671
0.0001043906384
-0.001441302597
-0.000149347135
0.001193623106
0.0001420824199
-0.001073618045
-0.0001113741249
0.0006543994764
0.0001028769812
-0.0005123211206
-3.186459348e-05
0.0001564210852
2.588217969e-05
-8.186145319e-05
0
0
0
0
0
0
0
0
0
0
0
0
0
0
0
0
0
0
0
0
0
-1.743170661e-05
0.001488341904
1.609934563e-05
-0.001466281362
-9.000894132e-05
0.001326492044
8.296585314e-05
-0.001251306164
-0.0001123686272
0.0009428290995
0.0001002985655
-0.0008190042182
-7.121049162e-05
0.0004339734995
5.95190924e-05
-0.0003161001975
-1.05602947e-05
5.751951298e-05
6.254140625e-06
-1.570527423e-05
0
0
0
0
0
0
0
0
0
0
0
0
0
0
0
0
0
0
0
0
0
-1.054430874e-05
0.001090136496
8.553716984e-06
-0.001058410684
-5.721115598e-05
0.0008896116522
4.793397435e-05
-0.0008112320888
-6.122937565e-05
0.0005320818875
4.842507009e-05
-0.0004329062113
-2.607161238e-05
0.000163461879
1.684822706e-05
-9.519388753e-05
-8.785136693e-08
4.025474004e-07
0
0
0
0
0
0
0
0
0
0
0
0
0
0
0
0
0
0
0
0
0
0
0
-3.542566125e-06
0.0004940816779
2.368522759e-06
-0.0004701472917
-2.206364194e-05
0.0003505586426
1.500626816e-05
-0.0002992967824
-1.611442599e-05
0.0001389218824
8.640107143e-06
-9.152664796e-05
-8.169388196e-07
5.213304579e-06
2.270913371e-09
-5.604270148e-08
0
0
0
0
0
0
0
0
0
0
0
0
0
0
0
0
0
0
0
0
0
0
0
0
0
-3.603886528e-07
5.950249632e-05
1.017443442e-07
-5.193301152e-05
-1.556167988e-06
2.064409083e-05
1.294159936e-07
-1.136820693e-05
0
0
0
0
0
0
0
0
0
0
0
0
0
0
0
0
0
0
0
0
0
0
0
0
0
0
0
0
0
0
0
0
0
0
0
0
0
0
0
0
0
0
0
0
0
0
0
0
0
0
0
0
0
0
0
0
0
0
0
0
0
0
0
0
0
0
0
0
0
0
0
0
0
0
0
0
0
0
0
0
0
0
0
0
0
0
0
0
0
0
0
0
0
0
0
0
0
0
0
0
0
0
0
0
0
0
0
0
0
0
0
0
0
0
0
0
0
0
0
0
0
0
0
0
0
0
0
0
0
0
0
0
0
0
0
0
0
0
0
0
0
0
0
0
0
0
0
0
0
0
0
0
0
0
0
0
0
0
0
0
0
0
0
0
0
0
0
0
0
0
0
0
0
0
0
0
0
0
0
0
0
0
0
0
0
0
0
0
0
0
0
0
0
0
0
0
0
0
0
0
0
0
0
0
0
0
0
0
0
0
0
0
0
0
0
0
0
0
0
0
0
0
0
0
0
0
0
0
0
0
0
0
0
0
0
0
0
0
0
0
0
0
0
0
0
0
0
0
0
0
0
0
0
0
0
0
0
0
0
0
0
0
0
0
0
0
0
0
0
0
0
0
0
0
0
0
0
0
0
0
0
0
0
0
0
0
0
0
0
0
0
0
0
0
0
0
0
0
0
0
0
0
0
0
0
0
0
0
0
0
0
0
0
0
0
0
0
0
0
0
0
0
0
0
0
0
0
0
0
0
0
0
0
0
0
0
0
0
0
0
0
0
0
0
0
0
0
0
0
0
0
0
0
0
0
0
0
0
0
0
0
0
0
0
0
0
0
0
0
0
0
0
0
0
0
0
0
0
0
0
0
0
0
0
0
0
0
0
0
0
0
0
0
0
0
0
0
0
0
0
0
0
0
0
0
0
0
0
0
0
0
0
0
0
0
0
0
0
0
0
0
0
0
0
0
0
0
0
0
0
0
0
0
0
0
0
0
0
0
0
0
0
0
0
0
0
0
0
0
0
0
0
0
0
0
0
0
0
0
0
0
0
0
0
0
0
0
0
0
0
0
0
0
0
0
0
0
0
0
0
0
0
0
0
0
0
0
0
0
0
0
0
0
0
0
0
0
0
0
0
0
0
0
0
0
0
0
0
0
0
0
0
0
0
0
0
0
0
0
0
0
0
0
0
0
0
0
0
0
0
0
0
0
0
0
0
0
0
0
0
0
0
0
0
0
0
0
0
0
0
0
0
0
0
0
0
0
0
0
0
0
0
0
0
0
0
0
0
0
0
0
0
0
0
0
0
0
0
0
0
0
0
0
0
0
0
0
0
0
0
0
0
0
0
0
0
0
0
0
0
0
0
0
0
0
0
0
0
0
0
0
0
0
0
0
0
0
0
0
0
0
0
0
0
0
0
0
0
0
0
0
0
0
0
0
0
0
0
0
0
0
0
0
0
0
0
0
0
0
0
0
0
0
0
0
0
0
0
0
0
0
0
0
0
0
0
0
0
0
0
0
0
0
0
0
0
0
0
0
0
0
0
0
0
0
0
0
0
0
0
0
0
0
0
0
0
0
0
0
0
0
0
0
0
0
0
0
0
0
0
0
0
0
0
0
0
0
0
0
0
0
0
0
0
0
0
-0.0001664696505
-6.274552994e-07
5.854673895e-07
0.0001665116384
0.0001661552857
-0.0003322429588
-1.68978448e-09
4.454053359e-05
-0.0006628305378
-4.455395166e-05
0.0006628439559
-0.000353571808
1.1473322e-06
-1.147331118e-06
0.0003535718069
0.0001666665682
-7.979872118e-07
-0.0007055564609
0.0003239589152
1.410788068e-05
7.342523199e-06
7.469074112e-05
-0.001389245936
0.0007037222045
0.0006947202134
-3.950799093e-05
-4.437923222e-05
0.0006670443369
4.45350247e-05
-0.0007458535253
8.677754504e-07
-8.677754541e-07
0.0007458535253
0.0003545023544
1.147331522e-06
2.121615803e-05
-0.0006626812237
-2.114684726e-05
0.0003317250453
0.0003308868676
4.217978288e-06
-0.0003403144893
0.0003405474725
-4.450961546e-06
-0.000339337484
3.792318612e-06
0.0003397631436
-1.694639986e-06
-0.0003391101455
1.467301501e-06
2.401792487e-05
-0.0006802395176
-2.272599546e-05
0.0006789475882
-0.0006670179937
2.134004063e-05
0.0003339282074
0.0003329659037
-9.902422823e-07
-0.0001648394915
0.000165372372
4.573617171e-07
-3.135266414e-06
-0.0003359681776
3.016360806e-06
0.000168010408
0.0001680766753
-0.0001644948203
-1.397130787e-06
0.0001649017088
6.211382926e-07
-0.0001642399661
-8.759924675e-07
4.904625456e-06
-0.000327795432
-5.055234038e-06
0.0003279460406
-0.0003371453439
0.000337232041
-3.221963555e-06
-0.001486326417
0.0007404728913
-6.575328479e-06
-1.228281545e-05
-0.001478266616
8.664873351e-05
-8.722161285e-05
0.00148614155
8.734788468e-05
0.0007152983393
0.0006979370353
4.611412631e-06
-0.000331666253
-4.710652109e-06
0.0003317654925
-0.0003286807324
0.0003287438613
4.841496601e-06
3.03566508e-07
-0.0001645219197
2.369796264e-05
-0.0006927480668
-2.057293179e-05
0.000689623036
-0.0006849797219
0.0006828659979
2.613164887e-05
-1.931033184e-06
-0.0003400780961
-0.0007257049931
8.677754327e-07
-8.677753995e-07
0.0007257049931
-2.2713871e-05
-0.0002074245604
0.0002301384314
7.322852905e-07
-0.0001635957999
-9.859664624e-07
0.0001638494811
-9.981009522e-06
-0.0003450925201
1.136207815e-05
-7.495674195e-06
-0.0003432050905
6.104921236e-06
0.0003445958434
0.0001647637408
2.767573195e-06
-1.29620863e-06
-0.0001662351054
0.0001642019919
-6.581270401e-07
-0.0001649640898
1.420224893e-06
-1.246367034e-07
-0.0001650391553
1.493897143e-07
0.0001650144023
-2.229047086e-06
4.689317935e-06
0.0001617417211
2.126763137e-05
6.584107796e-06
0.0001369120016
-6.623241445e-07
-0.0001678013772
4.193368376e-07
0.0001680443645
-0.000163370694
0.0001606677787
4.738682311e-07
3.529649542e-05
-0.0001679771837
-4.890699771e-06
-2.067612924e-06
-0.0001681340707
1.87412392e-06
0.0001683275597
-0.000167684479
0.0001677768221
-7.546672247e-07
-1.735193143e-06
-0.000167972468
1.629870013e-06
0.0001680777912
-0.0001682924581
0.0001684262469
-2.201401806e-06
-6.843412762e-06
-0.0001686890652
-0.0002096640564
0.0002309316877
-0.0001636640533
0.0001634551692
9.411693415e-07
-3.000769976e-06
-0.0001605974847
0.0001408843837
-0.0001671411531
-3.975533009e-05
-0.0006629008859
-5.064142257e-05
-0.001268593151
0.0001718403597
-0.0001730317167
0.001306590987
-0.0001650973198
0.0001653245182
-3.518351858e-07
6.880590461e-07
-0.0001647168801
-2.787184595e-07
-0.0001672424446
-2.802140722e-07
-0.0001608502554
0.0001585361598
8.776661545e-07
-0.0001618327783
9.569243862e-07
9.5440348e-07
-0.0001634660849
-1.084118466e-06
1.138911689e-06
-0.0001629868861
-1.204980816e-06
0.0001630529552
2.231692491e-05
5.926355089e-06
-0.0001663298404
0.0001380865604
-0.0002113362467
0.0002336531716
-0.0002119711077
-2.316287409e-05
-3.694486881e-05
-5.453625283e-06
-0.0001695726136
-0.0001674106331
0.0001363921194
-0.0001694680698
-2.914620993e-06
2.8709162e-06
0.0001695117746
-0.0001687242584
0.0001693015314
-2.312466127e-06
1.136381234e-05
0.0001445861066
-3.904618444e-05
-3.36126604e-06
-0.0001650171099
-0.0001628252087
0.0001351428366
0.0002082814788
-3.727606378e-05
-0.0001663160971
-2.378815797e-05
0.0002320696368
-3.809420066e-06
0.0001417629831
-0.0001652933987
0.0001346014427
0.00016889306
-8.050099447e-07
-0.0001676687132
-3.587295205e-06
-3.885589154e-05
-1.872771128e-06
1.045589679e-05
0.0001464024618
-0.0001653226802
0.0001369226855
-0.0001656538219
3.747193464e-06
-3.513854869e-06
-0.0001682105222
0.0001669867641
-0.0001686931959
-0.0001662221215
-3.646257096e-06
3.67539462e-06
-2.485064903e-06
-0.0001674124512
-0.0001685275254
-0.000159065211
1.148464645e-05
0.0001445797945
1.203098012e-06
1.566146505e-06
-0.0001618344555
-0.0001627556527
-1.80816124e-06
-0.0001656427095
3.097176223e-07
0.0001636300391
-0.0001638720538
0.0001353593555
-0.001206076934
-0.0001874259189
-0.0009009425447
0.0001869324105
-0.0001909652718
0.001018599499
-0.0007770696665
-0.000180869316
-0.0003877821419
0.0001127758948
-0.0001210612383
0.0005138337515
-0.0002727835035
-9.493636894e-05
1.89626922e-05
-3.691534644e-05
-2.373962803e-05
9.353869809e-05
-8.460721576e-07
-0.0003360451078
9.230023183e-07
4.356304615e-06
-0.0003359735139
-4.565723865e-06
0.0003361829332
-0.0003330270583
0.0003330331346
4.60533632e-06
-0.001389944896
-0.0001089005181
-0.001268800293
0.0001604449511
-0.0001679597159
0.001342408067
0.001317551296
0.0001706752332
-0.001180356969
-0.0001727103638
-0.000815318363
0.0001579677232
-0.0001664105819
0.0009496514675
0.00100683226
0.0001807348221
-0.0006829102941
-0.0001531514006
-0.0002920539546
8.285635604e-05
-8.899480103e-05
0.0004129956065
0.0004923025082
0.0001063973733
-0.0001869698421
-6.49310971e-05
6.544324219e-06
-9.177445364e-06
-1.002453449e-05
4.467621872e-05
8.088302625e-05
1.634256805e-05
6.575328496e-06
-0.0007257049931
-6.575328552e-06
2.369796263e-05
-0.0007257049931
-2.369796264e-05
0.0007257049931
-0.0007105941789
0.0007105941789
2.369796264e-05
-0.001449770963
-0.000108516049
-0.001224288261
0.0001460321153
-0.0001509832034
0.001321858466
0.001332039174
0.0001587034639
-0.001107846228
-0.0001551931037
-0.000689577001
0.0001276445036
-0.0001348304218
0.0008353280499
0.0009256742383
0.0001519894211
-0.0005507415012
-0.0001199932569
-0.0001859020587
5.012716258e-05
-6.005511281e-05
0.0002924727143
0.0003841354291
7.353813642e-05
-0.0001038202056
-4.041594323e-05
7.405496906e-07
0
-1.582755715e-06
7.980859427e-06
3.297965548e-05
4.672721377e-06
-0.001526569591
-4.208362211e-06
4.034805387e-06
-3.971968553e-06
4.839743999e-06
-0.001510597559
-1.834815049e-05
-0.001393139458
7.515831869e-05
-7.962208274e-05
0.00144618201
0.001501158287
8.531625484e-05
-0.001324184963
-9.597019336e-05
-0.001024065767
0.0001130642575
-0.0001231991083
0.001138347783
0.001296605232
0.0001397532655
-0.000898980497
-0.0001234799996
-0.0004985284017
8.611198207e-05
-9.800582224e-05
0.0006316791547
0.0007989932005
0.0001189988432
-0.0003722550442
-8.253983199e-05
-8.252419065e-05
2.294688919e-05
-3.005132103e-05
0.0001598194567
0.0002581138198
4.394542182e-05
-2.940521308e-05
-1.549634696e-05
0
0
0
0
2.828718588e-06
7.105106128e-08
-0.001220553972
-5.08846786e-06
4.963974168e-06
-4.458958451e-06
-0.001189287934
-1.254353372e-05
-0.001019202376
4.884225405e-05
-5.631276128e-05
0.001088411593
0.001386825966
6.968286728e-05
-0.0009383790208
-6.632986969e-05
-0.0006423327411
6.47620407e-05
-7.743105168e-05
0.000747752844
0.001057929963
0.0001018914559
-0.0005340277536
-7.439577201e-05
-0.0002278468571
3.663623597e-05
-4.853378602e-05
0.0003229248738
0.0005602017037
7.36651507e-05
-0.0001449877214
-3.65439744e-05
-4.923165513e-06
2.002303138e-06
-5.327816816e-06
3.045545099e-05
0.0001237536014
1.619965835e-05
0
-9.970958354e-07
0
0
0
0
0
0
-0.0006429124224
-3.764166867e-06
4.382199867e-06
-5.051442933e-06
-0.0006158500737
-4.985991005e-06
-0.0004785036424
1.958253094e-05
-2.63098168e-05
0.0005325192641
0.0009576031236
4.118131572e-05
-0.0004183115331
-3.007628829e-05
-0.0002220142612
1.967338042e-05
-2.936155677e-05
0.0002876241576
0.0006301378299
5.227759973e-05
-0.0001599035957
-2.54782094e-05
-2.408870734e-05
3.346671458e-06
-8.701351179e-06
5.80038405e-05
0.0002449364317
2.574960715e-05
-5.16502627e-06
-3.828714319e-06
0
0
0
0
1.143121833e-05
4.117771869e-07
0
0
0
0
0
0
0
0
-0.0001334808036
-7.466730584e-07
1.420021252e-06
-3.014480958e-06
-0.0001215327402
-8.031113605e-07
-6.701378487e-05
1.819163371e-06
-4.603940271e-06
8.713217502e-05
0.0003971857822
1.361236721e-05
-4.692599091e-05
-4.588425982e-06
-4.914883534e-06
8.519613085e-08
-1.615187739e-06
1.398858702e-05
0.0001910976534
1.162822096e-05
-5.040899033e-07
-5.451975319e-07
0
0
0
0
2.202110117e-05
5.81466726e-07
0
0
0
0
0
0
0
0
0
0
0
0
0
0
0
0
0
0
0
-2.614774084e-07
0
0
0
0
0
0
3.141155682e-05
2.980961876e-07
0
0
0
0
0
0
9.918064214e-07
0
0
0
0
0
0
0
0
0
0
0
0
0
0
0
0
0
0
0
0
0
0
0
0
0
0
0
0
0
0
0
0
0
0
0
0
0
0
0
0
0
0
0
0
0
0
0
0
0
0
0
0
0
0
0
0
0
0
0
0
0
0
0
0
0
0
0
0
0
0
0
0
0
0
0
0
0
0
0
0
0
0
0
0
0
0
0
0
0
0
0
0
0
0
0
0
0
0
0
0
0
0
0
0
0
0
0
0
0
0
0
0
0
0
0
0
0
0
0
0
0
0
0
0
0
0
0
0
0
0
0
0
0
0
0
0
0
0
0
0
0
0
0
0
0
0
0
0
0
0
0
0
0
0
0
0
0
0
0
0
0
0
0
0
0
0
0
0
0
0
0
0
0
0
0
0
0
0
0
0
0
0
0
0
0
0
0
0
0
0
0
0
0
0
0
0
0
0
0
0
0
0
0
0
0
0
0
0
0
0
0
0
0
0
0
0
0
0
0
0
0
0
0
0
0
0
0
0
0
0
0
0
0
0
0
0
0
0
0
0
0
0
0
0
0
0
0
0
0
0
0
0
0
0
0
0
0
0
0
0
0
0
0
0
0
0
0
0
0
0
0
0
0
0
0
0
0
0
0
0
0
0
0
0
0
0
0
0
0
0
0
0
0
0
0
0
0
0
0
0
0
0
0
0
0
0
0
0
0
0
0
0
0
0
0
0
0
0
0
0
0
0
0
0
0
0
0
0
0
0
0
0
0
0
0
0
0
0
0
0
0
0
0
0
0
0
0
0
0
0
0
0
0
0
0
0
0
0
0
0
0
0
0
0
0
0
0
0
0
0
0
0
0
0
0
0
0
0
0
0
0
0
0
0
0
0
0
0
0
0
0
0
0
0
0
0
0
0
0
0
0
0
0
0
0
0
0
0
0
0
0
0
0
0
0
0
0
0
0
0
0
0
0
0
0
0
0
0
0
0
0
0
0
0
0
0
0
0
0
0
0
0
0
0
0
0
0
0
0
0
0
0
0
0
0
0
0
0
0
0
0
0
0
0
0
0
0
0
0
0
0
0
0
0
0
0
0
0
0
0
0
0
0
0
0
0
0
0
0
0
0
0
0
0
0
0
0
0
0
0
0
0
0
0
0
0
0
0
0
0
0
0
0
0
0
0
0
0
0
0
0
0
0
0
0
0
0
0
0
0
0
0
0
0
0
0
0
0
0
0
0
0
0
0
0
0
0
0
0
0
0
0
0
0
0
0
0
0
0
0
0
0
0
0
0
0
0
0
0
0
0
0
0
0
0
0
0
0
0
0
0
0
0
0
0
0
0
0
0
0
0
0
0
0
0
0
0
0
0
0
0
0
0
0
0
0
0
0
0
0
0
0
0
0
0
0
0
0
0
0
0
0
0
0
0
0
0
0
0
0
0
0
0
0
0
0
0
0
0
0
0
0
0
0
0
0
0
0
0
0
0
0
0
0
0
0
0
0
0
0
0
0
0
0
0
0
0
0
0
0
0
0
0
0
0
0
0
0
0
0
0
0
0
0
0
0
0
0
0
0
0
0
0
0
0
0
0
0
0
0
0
0
0
0
0
0
0
0
0
0
0
0
0
0
0
0
0
0
0
0
0
0
0
0
0
0
0
0
0
0
0
0
0
0
0
0
0
0
0
0
0
0
0
0
0
0
0
0
0
0
0
0
0
0
0
0
0
0
0
0
0
0
0
0
0
0
0
0.0001663219043
4.188487661e-07
-4.226633836e-07
1.346062418e-07
0.0001666099614
0.000166707256
-6.1828094e-07
-1.445609801e-06
-0.0003319870494
1.189700367e-06
0.0003307193871
-0.0003306795096
-1.485487297e-06
-1.96592473e-07
0.0001658169701
-0.0006488611288
0.0006488494192
4.487648044e-05
0.0003249967769
2.728526661e-05
-0.0006488473342
2.788047339e-05
-0.0006628057486
-2.77559485e-05
-0.0003447883972
0.0003473544781
-1.006175503e-05
-0.0003603146044
-6.539392049e-07
-0.0001673092583
-1.982722845e-06
-0.0001678758701
1.72452221e-06
-2.590395726e-06
-0.0003342107128
1.17024578e-06
7.759148441e-07
0.0001676463755
0.0001672085724
-1.228281546e-05
-0.0007055564609
1.228281546e-05
-0.0006841999552
-1.087607436e-05
0.0003409722973
0.0003418209168
4.319970445e-06
-6.183400002e-06
-0.0003429249677
-4.426213232e-05
-0.000684740611
0.0006848142263
4.418851696e-05
-2.886687097e-05
2.786735726e-05
-0.0006839802082
2.940495259e-05
-0.0006939458914
-2.8207128e-05
2.802845319e-05
-0.0006671659735
-0.0006801185002
-2.898788836e-05
-0.0006805840869
-4.43379262e-05
0.0006806598808
-0.0007307427111
0.0007307427111
8.677754583e-07
8.677752837e-07
-0.0007152983398
2.795582892e-07
-1.14733308e-06
0.0003582782996
0.0003570200397
-1.154708993e-05
-0.0006583613101
0.0003296192046
0.00032870925
-9.566901816e-06
-6.372654096e-06
6.345967586e-06
-0.0003286540459
6.370205105e-06
-0.0003316932831
-6.343174989e-06
-0.0003275518003
-6.616285788e-06
-0.000327410119
-1.141168732e-05
0.0003272747164
-0.000162170399
1.056147927e-06
1.058436099e-06
-0.0001621979187
-6.741718589e-06
6.285691385e-06
0.0003410034997
-0.000341550834
0.0003424944465
-7.685331085e-06
-5.273756639e-06
-0.0003407280389
0.0003391058118
3.535372344e-06
-0.0003388488655
-5.673971696e-06
5.579402097e-06
0.0001694929395
0.0001697074419
0.0003403748633
-0.0003394044823
4.454652287e-06
-4.448437888e-06
0.0003393982679
-0.0003368623883
0.0003367745763
4.444116558e-06
-1.159648164e-06
-0.0003368317679
0.0006750795816
-2.162770367e-05
-0.0006761778734
1.496352682e-05
-1.444322927e-05
0.0003376968958
1.57372213e-05
0.0003387694114
6.306351886e-06
-0.0003329632051
-0.0006712691662
0.0003353493341
-6.221156358e-06
-8.275754774e-06
-0.0006715568292
5.43100361e-07
-1.101410938e-06
0.0001659306826
-0.0001654097304
0.0001656917916
2.61039138e-07
1.395066938e-07
-0.0001650918754
7.728516302e-07
-5.383704084e-07
-0.0001679324258
0.0001650100612
-0.0001667222745
-0.0003355172053
0.0001680492819
0.0001678938885
-2.243975031e-06
-0.0001680312059
-2.091838861e-06
-0.0001679286511
2.048021957e-06
0.0001640243375
-1.430876375e-06
-0.0001639905919
1.842411572e-06
-1.690127934e-06
-1.598271124e-06
-0.0003281075145
1.623417575e-06
0.0001641063615
0.0001639760065
-0.0003268441991
-7.100278484e-07
0.000163691379
0.0001634034885
8.556565425e-07
-0.0001635653064
0.0003267310118
-5.109802454e-06
-0.0003266764434
3.479328546e-06
-3.592515824e-06
3.31785469e-06
-0.0003254007866
0.000162528346
-0.0003251799006
-4.88659828e-06
0.0001694143751
1.888166865e-06
-0.000338154312
0.000169379046
-0.0003378409032
1.131623851e-06
-1.53783048e-06
-0.0001701563132
-0.0001697159016
-7.950877804e-06
0.0001706082191
0.0001704581273
3.808167767e-06
3.451226962e-06
0.0001698544643
-3.27614583e-06
-4.168837229e-05
-0.001486326417
4.168837228e-05
-0.00146652314
-1.799040961e-05
0.0007357804292
0.0007307427111
6.575328479e-06
-0.0007307427111
0.00146652314
-8.734788467e-05
-0.001465284712
6.451841868e-05
-6.451841868e-05
6.450416486e-05
2.940495259e-05
-0.0007105941789
-0.001446372268
0.0007206672751
-2.940495259e-05
-3.511346608e-05
-0.001446372268
0.0003307145514
-4.615210551e-06
-0.000330809993
3.191958138e-06
-3.156916318e-06
2.970401189e-06
3.35452258e-06
0.0003287071934
-0.0003298604733
0.0003300580796
-0.0003296341873
-0.0003298175162
0.0001648794763
-1.253530751e-08
-2.851726615e-07
-1.244923894e-06
0.0001646348457
0.0001644508413
0.0006976743709
-2.660698975e-05
-0.0006916403129
3.392383452e-05
-2.044941877e-05
1.799040961e-05
1.729168175e-05
0.0006813115375
-0.0006878105573
0.0006846528202
-0.0006882858981
-0.0003418294455
2.94432544e-06
-8.734867256e-06
0.000341410029
0.0003411015842
0.0003404133012
0.0003399772469
-3.359225578e-06
0.0007206672751
-0.0007206672752
-4.839743992e-06
1.70643409e-06
-4.839744e-06
0.000162789086
-0.000162818128
8.415433935e-07
-3.260854041e-07
8.748347673e-06
-9.461070639e-06
0.0001717272872
0.0001714798823
0.000171387794
0.0001704131756
1.020913631e-05
-0.0003462929324
-9.008724057e-06
0.0003443174846
-0.000343569419
5.272453829e-06
0.0003425829356
-0.000341751771
-8.671814419e-06
-1.036890338e-05
-0.0001656918393
-8.977680069e-07
-5.29487602e-09
5.247137952e-09
3.054938543e-07
-0.0001651137596
-1.558239832e-07
0.0001657936402
-0.0001654828993
0.0001651683727
-5.348736852e-08
-1.528446965e-07
0.0001685684769
1.405133588e-06
-0.0001680994865
-2.552349969e-06
2.42763091e-06
-2.435312495e-06
-1.506582103e-06
-0.0001686515648
-0.0001680010985
0.0001674868431
2.11960557e-06
-0.0001679765786
-1.318330884e-06
2.082899496e-06
-1.172965474e-06
-2.536591003e-06
-0.0001678661427
-0.0001679479389
3.734311241e-07
-0.0001631511523
-0.0001636408593
-0.0001304112254
-0.001320767824
0.000130248603
0.0006629331417
0.0006581646735
-0.001301786421
0.0006530673377
0.0006486704834
5.101238655e-05
-0.0006487962532
0.001293621157
-0.001261928002
0.0001529968144
0.0001521654032
-6.573114787e-08
0.0001652374047
-0.0001658839836
0.0001659528587
-0.0001659269955
9.612325677e-07
-3.647006562e-07
3.905639362e-07
-1.283065823e-08
-5.223579977e-07
0.0001669876947
-9.623989671e-07
-0.0001633057596
8.020735991e-07
0.0001628460986
-0.0001627500615
0.000162624335
-1.300969813e-06
9.628322254e-07
-1.088558692e-06
-0.0001620995101
1.821750015e-06
-0.0001699918247
-2.421654624e-06
-0.000169900226
0.0001697365555
2.513406708e-06
-2.29200366e-06
2.12833313e-06
-2.772053761e-06
-1.587335643e-06
-0.0001696153157
-5.951209804e-06
-8.732839847e-06
0
0
0
1.622021287e-08
0
0
0
0
0
-0.000334231495
-6.54272431e-07
-1.182997958e-06
1.106760566e-06
-0.0003341552577
-0.0003330425537
-0.001357259659
0.0001075166524
0.0006764067842
-0.0001303471119
0.0001303873126
-0.001353329765
-0.001338083105
-0.001195768016
0.001274810972
0.0001768081891
-0.0001849543458
0.0001816525466
-0.001101505871
-0.0001899462844
-0.001112830703
-0.0007289886347
0.0008624447616
0.0001581912078
-0.0001514578857
0.0001425524648
-0.0006003017868
-0.0001580814294
-0.0006242821913
-0.000236172904
0.0003465194925
7.449880392e-05
-5.6845765e-05
5.099673167e-05
-0.0001428602739
-6.160198289e-05
-0.0001570085881
0
-2.073890379e-06
0
0
0
0
0
0
0
0
0
0
0
0
0
0
-0.0007152983393
6.575328659e-06
-1.228281546e-05
1.228281545e-05
-0.0007152983393
-0.0007105941789
-0.001437508642
0.0001093873169
-0.0001298980609
0.0001287789062
-0.001401988875
-0.0001312565441
-0.001396133368
-0.001153571133
0.001258381889
0.0001596309617
-0.00017611065
0.0001600453798
-0.001027552515
-0.000174403762
-0.001057914799
-0.0006232765836
0.0007617484589
0.0001343960262
-0.0001197151512
0.000110381295
-0.0004834314294
-0.0001292536156
-0.000514979161
-0.0001467934817
0.0002392520371
4.596548733e-05
-3.285780153e-05
2.645583865e-05
-7.201074483e-05
-3.788440282e-05
-8.883703669e-05
0
0
0
0
0
0
0
0
0
0
0
0
0
0
0
0
-0.001524604048
0.001526454764
1.88004852e-05
-4.167339329e-05
4.125809547e-05
-0.001518613794
-0.001506534171
-0.001418368149
0.001469334418
0.0001007665325
-0.0001203582538
0.0001153379196
-0.001347739078
-0.0001241862758
-0.001379696854
-0.001026981653
0.001149840857
0.0001334336564
-0.0001392337134
0.0001298290783
-0.0008929182453
-0.0001472448335
-0.0009404999387
-0.0004717578845
0.0006100406822
9.318970141e-05
-8.407793203e-05
7.500957961e-05
-0.0003428167761
-9.210945882e-05
-0.0003784091328
-6.171132674e-05
0.0001333816195
2.071231821e-05
-1.156291534e-05
8.272995582e-06
-1.663011316e-05
-1.679971523e-05
-2.852259051e-05
0
0
0
0
0
0
0
0
0
0
0
0
0
0
0
0
-0.001396121266
0.001422663933
1.443464555e-05
-3.567073054e-05
3.252332458e-05
-0.001357453189
-3.823801136e-05
-0.001432986823
-0.001161036275
0.001240285094
7.500189486e-05
-9.302745654e-05
8.353092496e-05
-0.001068576034
-0.000101603456
-0.001161425668
-0.0007297487234
0.0008503682688
8.753817864e-05
-9.478277159e-05
8.161803658e-05
-0.0006060024465
-0.0001073938172
-0.0006900674057
-0.000257901823
0.0003656635628
4.783358448e-05
-4.434337474e-05
3.410134948e-05
-0.0001642569749
-5.482203237e-05
-0.0002112357415
-5.691420184e-06
3.497967678e-05
2.951919052e-06
-1.150081176e-06
2.158736594e-07
0
-2.763517131e-06
-4.302245118e-07
0
0
0
0
0
0
0
0
0
0
0
0
0
0
0
0
-0.0009159223552
0.0009470227553
6.673785652e-06
-2.110054038e-05
1.718583326e-05
-0.0008727878354
-2.50709654e-05
-0.001014103056
-0.0006793155805
0.0007533269837
3.879029216e-05
-5.210719106e-05
4.168670473e-05
-0.0005980098834
-6.276887564e-05
-0.0007240467753
-0.0003344646676
0.000422773196
3.637399455e-05
-4.233950145e-05
3.064318927e-05
-0.0002499595642
-5.500480555e-05
-0.0003359871569
-5.35181897e-05
0.0001060953114
9.296494126e-06
-8.89069093e-06
3.733665826e-06
-1.799676667e-05
-1.594910484e-05
-4.35227884e-05
0
0
0
0
0
0
0
0
0
0
0
0
0
0
0
0
0
0
0
0
0
0
0
0
-0.0003355984753
0.0003558781845
1.462046298e-06
-7.112924897e-06
4.619344847e-06
-0.0003081227933
-1.008557631e-05
-0.0004375016647
-0.0001947794398
0.0002361856362
9.119375987e-06
-1.507238969e-05
8.696566522e-06
-0.0001522572383
-2.286989303e-05
-0.00024538828
-4.068222911e-05
7.278411083e-05
3.363509276e-06
-5.383091829e-06
1.421252628e-06
-1.700432168e-05
-1.178966265e-05
-5.165336684e-05
0
1.4766641e-08
0
0
0
0
-9.456730997e-09
0
0
0
0
0
0
0
0
0
0
0
0
0
0
0
0
0
0
0
0
0
0
0
0
0
-1.248697601e-05
1.572069458e-05
1.981600268e-09
-3.30893234e-07
3.876945665e-09
-8.82944499e-06
-1.21293768e-06
-4.224579319e-05
-3.347626862e-07
2.289612865e-06
0
-2.014293668e-08
0
0
-1.032432791e-06
-4.943331137e-06
0
0
0
0
0
0
0
0
0
0
0
0
0
0
0
0
0
0
0
0
0
0
0
0
0
0
0
0
0
0
0
0
0
0
0
0
0
0
0
0
0
0
0
0
0
0
0
0
0
0
0
0
0
0
0
0
0
0
0
0
0
0
0
0
0
0
0
0
0
0
0
0
0
0
0
0
0
0
0
0
0
0
0
0
0
0
0
0
0
0
0
0
0
0
0
0
0
0
0
0
0
0
0
0
0
0
0
0
0
0
0
0
0
0
0
0
0
0
0
0
0
0
0
0
0
0
0
0
0
0
0
0
0
0
0
0
0
0
0
0
0
0
0
0
0
0
0
0
0
0
0
0
0
0
0
0
0
0
0
0
0
0
0
0
0
0
0
0
0
0
0
0
0
0
0
0
0
0
0
0
0
0
0
0
0
0
0
0
0
0
0
0
0
0
0
0
0
0
0
0
0
0
0
0
0
0
0
0
0
0
0
0
0
0
0
0
0
0
0
0
0
0
0
0
0
0
0
0
0
0
0
0
0
0
0
0
0
0
0
0
0
0
0
0
0
0
0
0
0
0
0
0
0
0
0
0
0
0
0
0
0
0
0
0
0
0
0
0
0
0
0
0
0
0
0
0
0
0
0
0
0
0
0
0
0
0
0
0
0
0
0
0
0
0
0
0
0
0
0
0
0
0
0
0
0
0
0
0
0
0
0
0
0
0
0
0
0
0
0
0
0
0
0
0
0
0
0
0
0
0
0
0
0
0
0
0
0
0
0
0
0
0
0
0
0
0
0
0
0
0
0
0
0
0
0
0
0
0
0
0
0
0
0
0
0
0
0
0
0
0
0
0
0
0
0
0
0
0
0
0
0
0
0
0
0
0
0
0
0
0
0
0
0
0
0
0
0
0
0
0
0
0
0
0
0
0
0
0
0
0
0
0
0
0
0
0
0
0
0
0
0
0
0
0
0
0
0
0
0
0
0
0
0
0
0
0
0
0
0
0
0
0
0
0
0
0
0
0
0
0
0
0
0
0
0
0
0
0
0
0
0
0
0
0
0
0
0
0
0
0
0
0
0
0
0
0
0
0
0
0
0
0
0
0
0
0
0
0
0
0
0
0
0
0
0
0
0
0
0
0
0
0
0
0
0
0
0
0
0
0
0
0
0
0
0
0
0
0
0
0
0
0
0
0
0
0
0
0
0
0
0
0
0
0
0
0
0
0
0
0
0
0
0
0
0
0
0
0
0
0
0
0
0
0
0
0
0
0
0
0
0
0
0
0
0
0
0
0
0
0
0
0
0
0
0
0
0
0
0
0
0
0
0
0
0
0
0
0
0
0
0
0
0
0
0
0
0
0
0
0
0
0
0
0
0
0
0
0
0
0
0
0
0
0
0
0
0
0
0
0
0
0
0
0
0
0
0
0
0
0
0
0
0
0
0
0
0
0
0
0
0
0
0
0
0
0
0
0
0
0
0
0
0
0
0
0
0
0
0
0
0
0
0
0
0
0
0
0
0
0
0
0
0
0
0
0
0
0
0
0
0
0
0
0
0
0
0
0
0
0
0
0
0
0
0
0
0
0
0
0
0
0
0
0
0
0
0
0
0
0
0
0
0
0
0
0
0
0
0
0
0
0
0
0
0
0
0
0
0
0
0
0
0
0
0
0
0
0
0
0
0
0
0
0
0
0
0
0
0
0
0
0
0
0
0
0
0
0
0
0
0
0
0
0
0
0
0
0
0
0
0
0
0
0
0
0
0
0
0
0
0
0
0
0
0
0
0
0
0
0
0
0
0
0
0
0
0
0
0
0
0
0
0
0
0
0
0
0
0
0
0
0
0
0
0
0
0
0
0
0
0
0
0
0
0
0
0
0
0
0
0
0
0
0
0
0
0
0
0
0
0
0
0
0
0
0
0
0
0
0
0
0
0
0
0
0
0
0
0
0
0
0
0
0
0
0
0
0
0
0
0
0
0
0
0
0
0
0
0
0
0
0
0
0
0
0
0
0
0
0
0
0
0
0
0
0
0
0
0
0
0
0
0
0
0
0
0
0
0
0
0
0
0
0
0
0
0
0
0
0
0
0
0
0
0
0
0
0
0
0
0
0
0
0
0
0
0
0
0
0
0
0
0
0
0
0
0
0
0
0
0
0
0
0
0
0
0
0
0
0
0
0
0
0
0
0
0
0
0
0
0
0
0
0
0
0
0
0
0
0
0
0
0
0
0
0
0
0
0
0.0006588227966
-4.478589916e-05
-0.0006585908491
3.864282501e-05
-3.874303884e-05
0.0006589230105
3.877236093e-05
0.00066271442
0.0003054942916
1.731729249e-05
-2.796909898e-07
-4.621057495e-05
0.0003519845575
0.00035357173
-2.796140726e-07
-9.422744617e-07
0.0001669905617
-0.0001668259146
0.0001670538859
3.881460364e-05
0.0006670020942
-0.0006718189455
0.0006716714542
3.896209493e-05
4.454421217e-05
-0.0003250113063
0.0003249586958
9.869979222e-06
1.141320203e-05
-8.870687828e-07
9.921113114e-07
-0.000339215188
0.0003385621644
-0.0003385050997
-9.441334858e-07
1.180600372e-06
-6.558540619e-07
5.222494328e-07
0.0001639227649
-6.026124813e-07
-9.438194441e-07
3.766736304e-06
-3.904651157e-06
3.411184288e-06
-0.0001648008442
-4.511710866e-07
-0.0003403548137
-2.304258399e-06
-8.912621659e-07
9.497495986e-07
4.518867246e-06
-4.660052951e-06
-0.0001936885794
-0.001121473349
0.001205643313
-0.001126113625
0.001027625788
-0.000913421501
0.0001955887366
0.0001918384199
-0.000165375813
-0.0006454118815
0.0007930715994
-0.000663307144
0.0005326907009
-0.0004064271423
0.0001451821891
0.000137309809
-6.894633417e-05
-0.0001733063481
0.0002901651169
-0.0001884199004
0.0001054945346
-4.793936707e-05
4.452288652e-05
3.823887175e-05
-9.970435793e-07
-0.0003361269738
1.078909598e-06
0.0003352484754
-0.0003351387584
0.000335159039
-4.37542874e-06
2.905666555e-06
-2.885385988e-06
2.961625905e-06
2.960982097e-06
-0.0003340796615
-0.000333849754
-0.0001305124714
-0.001375104715
0.001375657766
-0.001366967738
0.0006895332893
0.0013340337
-0.0001709978672
-0.001272534048
0.0001536094493
-0.0001527743868
0.0001625838056
0.0001522771357
-0.001326931158
-0.0001775327826
-0.001071671441
0.001190532679
-0.001087208644
0.0009721941865
-0.0001725015962
-0.0008405125238
0.0001774858374
-0.000181314345
0.0001704722974
0.000186498502
-0.0009888850178
-0.0001356401696
-0.0005455258551
0.0007035905745
-0.000571878024
0.0004400159532
-9.858912072e-05
-0.0003180513963
0.0001133464282
-0.0001225536155
0.0001061804531
0.000130862585
-0.0004694695561
-4.342452624e-05
-0.000106048983
0.0002103484138
-0.0001254654416
5.84605993e-05
-1.327880318e-05
-1.613914573e-05
2.481320341e-05
-2.993630153e-05
1.939763757e-05
3.447782853e-05
-7.063512452e-05
-2.274155578e-05
-1.228281546e-05
-0.0007257049931
1.228281546e-05
0.0007206672751
-0.0007206672751
1.799040962e-05
-0.0007152983393
1.799040962e-05
2.369796264e-05
-0.0007152983393
-0.0001269370863
-0.001397579161
0.001447837797
-0.001404615361
0.001335958526
-0.0001546679722
-0.00124371256
0.0001413750541
-0.0001441774211
0.0001374772093
0.0001465077996
-0.001341994589
-0.0001537808168
-0.0009765704235
0.001131001457
-0.001006989034
0.0008705576863
-0.0001447678867
-0.0007279427
0.000146850202
-0.0001550673459
0.0001398608961
0.0001612207004
-0.0008990288144
-0.0001019674924
-0.0004157641523
0.0005860482646
-0.0004519052757
0.0003267989972
-6.731028208e-05
-0.0002162298677
8.139791741e-05
-8.956907246e-05
7.117189488e-05
9.660995703e-05
-0.0003544117389
-2.156988811e-05
-4.276393446e-05
0.000124751714
-5.605627712e-05
1.405143689e-05
-2.569115114e-06
-6.07840978e-08
8.389115891e-06
-1.123545502e-05
5.635266988e-06
1.575308254e-05
-2.291106086e-05
-1.340607739e-06
3.972537392e-06
-0.001538043783