/*--------------------------------*- C++ -*----------------------------------*\
| =========                 |                                                 |
| \\      /  F ield         | OpenFOAM: The Open Source CFD Toolbox           |
|  \\    /   O peration     | Version:  v2012                                 |
|   \\  /    A nd           | Website:  www.openfoam.com                      |
|    \\/     M anipulation  |                                                 |
\*---------------------------------------------------------------------------*/
FoamFile
{
    version     2.0;
    format      ascii;
    class       volVectorField;
    location    "1.21";
    object      U;
}
// * * * * * * * * * * * * * * * * * * * * * * * * * * * * * * * * * * * * * //

dimensions      [0 1 -1 0 0 0 0];


internalField   nonuniform List<vector> 
3019
(
(103.3892379 -30.21879823 3.222301438e-19)
(107.490311 -19.76887442 -4.468630589e-19)
(107.3413999 -14.07310425 -3.195112133e-19)
(106.2009835 -10.32335616 -7.109998932e-19)
(104.8939745 -7.669572765 3.36869855e-19)
(103.5097206 -5.657535915 7.276918138e-20)
(101.8981918 -4.043697604 -6.954238875e-20)
(101.0038127 -2.976904277 0)
(100.0583895 -2.032218715 0)
(99.64418825 -1.372879456 1.227476908e-20)
(99.37641902 -0.7993583323 2.267529567e-21)
(99.23785838 -0.2632540098 -7.335258969e-21)
(96.79385288 -19.67480773 -1.277056282e-19)
(102.4656296 -16.22438886 -2.773543556e-19)
(103.561401 -12.80019491 6.204040552e-19)
(103.3848449 -10.03293078 4.857202811e-19)
(102.7646901 -7.800000099 -1.346003085e-20)
(101.8705655 -5.9308502 -1.209989497e-19)
(100.7355932 -4.319278761 -9.541709203e-20)
(100.0942136 -3.229234125 -3.601776692e-20)
(99.3630202 -2.200022256 -1.994948405e-20)
(99.0384128 -1.493371895 1.958891235e-20)
(98.82181197 -0.8725598301 0)
(98.70817971 -0.2874111747 1.961203927e-20)
(98.34800203 -12.90037706 0)
(100.4396793 -12.52103524 -2.080212775e-19)
(101.1960549 -10.90159709 -9.789170521e-20)
(101.2675654 -9.111262973 1.71695259e-20)
(100.9676689 -7.404218318 6.950179455e-19)
(100.3970786 -5.833511468 -2.501140621e-20)
(99.61391942 -4.351890658 0)
(99.18795891 -3.315868247 0)
(98.64576332 -2.266717677 -3.68188145e-20)
(98.4012044 -1.55139143 1.816666055e-20)
(98.23343882 -0.9098649543 7.629799495e-22)
(98.14388814 -0.2998114552 -1.34865255e-20)
(99.24796525 -9.933332754 0)
(99.75736896 -9.904220207 1.265984779e-19)
(99.89213946 -9.129077076 2.297567068e-20)
(99.80422762 -8.010850703 -2.445438663e-19)
(99.55856621 -6.746133234 3.772975297e-20)
(99.15563196 -5.490943716 0)
(98.60386749 -4.206877397 -3.044173884e-20)
(98.33668194 -3.272939522 4.675244738e-20)
(97.93962585 -2.251647388 1.139622124e-20)
(97.76147769 -1.556123295 1.948578047e-20)
(97.63544654 -0.915641526 -2.212456406e-20)
(97.56668492 -0.3017949725 0)
(99.77827108 -8.062948151 7.899507528e-20)
(99.52545679 -8.094951722 -2.338858033e-20)
(99.16297679 -7.674116138 1.051574582e-19)
(98.8267657 -6.937301176 -9.000987329e-20)
(98.48985365 -6.008297551 0)
(98.14691712 -5.034455106 0)
(97.73318027 -3.957443849 0)
(97.56391461 -3.139207071 0)
(97.26856354 -2.175491035 3.919505061e-20)
(97.14119631 -1.518714923 -3.665503067e-20)
(97.04740625 -0.8956809764 -2.487040441e-21)
(96.99485783 -0.2956527471 2.495377883e-21)
(100.1013325 -6.74637826 3.043959053e-20)
(99.42298506 -6.776076671 -1.963430369e-21)
(98.70613967 -6.504352646 -7.535051305e-21)
(98.13853201 -5.980598697 1.324840958e-20)
(97.69180092 -5.291209367 0)
(97.34386017 -4.539806528 0)
(96.99195735 -3.649303985 0)
(96.87278531 -2.940816091 0)
(96.64522439 -2.055360392 0)
(96.55360191 -1.448189988 0)
(96.48354584 -0.8571485947 0)
(96.44278693 -0.2840828186 0)
(100.2891432 -5.75789806 -8.092309864e-22)
(99.33251409 -5.761900133 -3.732736218e-23)
(98.37530384 -5.553322766 0)
(97.63341119 -5.163417349 0)
(97.08793537 -4.64470861 0)
(96.70290697 -4.054234115 0)
(96.36851683 -3.316785859 0)
(96.26639062 -2.71014454 0)
(96.07682219 -1.910469662 0)
(96.0071927 -1.35700449 0)
(95.95218665 -0.8054473509 0)
(95.92025905 -0.2676141379 0)
(100.3842347 -4.980229428 0)
(99.24047429 -4.953339452 0)
(98.12128622 -4.781536851 0)
(97.25180055 -4.480079538 0)
(96.61886528 -4.076286195 0)
(96.18510769 -3.603321485 0)
(95.84384519 -2.987969062 0)
(95.7380128 -2.469553343 0)
(95.56513277 -1.754767008 0)
(95.50637213 -1.254993703 0)
(95.4593348 -0.7466905553 0)
(95.43268213 -0.2485975418 0)
(100.425293 -4.34406788 -5.695244028e-35)
(99.15052782 -4.298020339 0)
(97.9170611 -4.149784479 0)
(96.95162304 -3.906313868 0)
(96.24501681 -3.582154387 0)
(95.76229147 -3.196664757 0)
(95.39918018 -2.678418411 0)
(95.27828581 -2.233332762 0)
(95.10778406 -1.597936414 0)
(95.05159069 -1.149500501 0)
(95.00718555 -0.6852979708 0)
(94.98321748 -0.2286173002 0)
(100.4320356 -3.814205741 0)
(99.062707 -3.757040682 0)
(97.74578109 -3.625179196 0)
(96.70729959 -3.421766691 0)
(95.93983678 -3.154536447 0)
(95.41161446 -2.834450484 0)
(95.02017845 -2.394131141 0)
(94.8777851 -2.009876531 0)
(94.70043845 -1.446507247 0)
(94.64110978 -1.045655287 0)
(94.59561293 -0.6244042996 0)
(94.57238955 -0.2087228617 0)
(100.4162105 -3.368017401 -7.459991384e-35)
(98.97716625 -3.304539846 0)
(97.59772409 -3.184882076 0)
(96.50284268 -3.010446165 0)
(95.68538781 -2.785183823 0)
(95.11637982 -2.514913715 0)
(94.69486603 -2.137447891 0)
(94.52785633 -1.803733065 0)
(94.33811999 -1.304545723 0)
(94.27200477 -0.9468043506 0)
(94.22297384 -0.5661043024 0)
(94.19912043 -0.189610189 0)
(100.3854087 -2.989343816 0)
(98.89403402 -2.922518355 0)
(97.46688574 -2.812466692 0)
(96.32786834 -2.659850764 0)
(95.46934129 -2.466433115 0)
(94.86442352 -2.234877967 0)
(94.41337845 -1.908517127 0)
(94.22090519 -1.616902782 0)
(94.01579675 -1.174284168 0)
(93.94074258 -0.8549744966 0)
(93.8866832 -0.5117107093 0)
(93.86127202 -0.1717190351 0)
(100.3446348 -2.666379818 2.524836116e-35)
(98.81343388 -2.598012876 0)
(97.34938434 -2.495857538 0)
(96.17543414 -2.360242436 0)
(95.28306933 -2.191616168 0)
(94.64684332 -1.990705526 0)
(94.16789622 -1.706249891 0)
(93.95043638 -1.449818188 0)
(93.72864048 -1.056704613 0)
(93.64354994 -0.7712534247 0)
(93.58365453 -0.4619652545 0)
(93.55609696 -0.1553034363 0)
(100.2971636 -2.390257876 0)
(98.73543093 -2.321383266 0)
(97.24256518 -2.225911876 0)
(96.04070127 -2.103908932 0)
(95.12033609 -1.955004456 0)
(94.45693274 -1.778730866 0)
(93.95216428 -1.528921381 0)
(93.71091683 -1.301979124 0)
(93.47217068 -0.9519809435 0)
(93.37665722 -0.6960777442 0)
(93.31059658 -0.4172031354 0)
(93.28055219 -0.1404849809 0)
(100.2451785 -2.154153422 0)
(98.66002114 -2.085347866 0)
(97.14453062 -1.995627622 0)
(95.92019043 -1.884742464 0)
(94.97653835 -1.751789178 0)
(94.28956564 -1.595560961 0)
(93.761178 -1.374592556 0)
(93.49768281 -1.172411493 0)
(93.24230199 -0.8597996934 0)
(93.13643033 -0.6294563904 0)
(93.06418599 -0.3774837932 0)
(93.03148625 -0.1272943725 0)
(100.1902044 -1.95265665 0)
(98.58711949 -1.884230764 0)
(97.0538318 -1.799499265 0)
(95.8112759 -1.697816354 0)
(94.848146 -1.577913291 0)
(94.14069798 -1.43812853 0)
(93.59081348 -1.241275304 0)
(93.30671792 -1.059888632 0)
(93.03533037 -0.7795657059 0)
(92.9194309 -0.5711336661 0)
(92.84116906 -0.3426929928 0)
(92.80575724 -0.1157042414 0)
(100.1333201 -1.78147855 0)
(98.51658934 -1.713586947 0)
(96.96932624 -1.633185259 0)
(95.71192133 -1.539171436 0)
(94.73239478 -1.430009321 0)
(94.00709409 -1.303760845 0)
(93.43765892 -1.127100327 0)
(93.13457717 -0.9631329478 0)
(92.84793931 -0.7105713541 0)
(92.72247936 -0.5207162629 0)
(92.63846368 -0.3126224112 0)
(92.60035274 -0.1056551876 0)
(100.0752896 -1.637136292 0)
(98.44824147 -1.569857385 0)
(96.89005761 -1.493196857 0)
(95.62047339 -1.405582025 0)
(94.62703336 -1.305269396 0)
(93.88606379 -1.19013586 0)
(93.29883823 -1.030374885 0)
(92.97825931 -0.8809177009 0)
(92.67708753 -0.6520681657 0)
(92.54259003 -0.4777497324 0)
(92.45311873 -0.2870169383 0)
(92.41235475 -0.0970703906 0)
(100.0166625 -1.51679955 -3.992747477e-36)
(98.38186504 -1.450181852 0)
(96.81520517 -1.376729404 0)
(95.53555893 -1.294431252 0)
(94.53020081 -1.201393176 0)
(93.77528991 -1.095446449 0)
(93.17187455 -0.9497043802 0)
(92.83511464 -0.8121086323 0)
(92.520196 -0.6033926297 0)
(92.377179 -0.4417737142 0)
(92.28255451 -0.2656213671 0)
(92.23921318 -0.08987411256 0)
(99.95784549 -1.418205837 0)
(98.3172469 -1.352282588 0)
(96.74404915 -1.281540773 0)
(95.45601209 -1.203603363 0)
(94.44036366 -1.116481851 0)
(93.67313154 -1.01826473 0)
(93.05440014 -0.884001233 0)
(92.70277669 -0.7557541238 0)
(92.37427807 -0.5637772354 0)
(92.22322479 -0.4123559713 0)
(92.1236852 -0.2481684005 0)
(92.07778828 -0.08397726704 0)
(99.89914208 -1.339578289 0)
(98.25415324 -1.274356276 0)
(96.67591966 -1.205840673 0)
(95.38078246 -1.131384861 0)
(94.35612782 -1.048922007 0)
(93.5779222 -0.9565469514 0)
(92.94452643 -0.8318212182 0)
(92.57899625 -0.7107160393 0)
(92.23902527 -0.533201816 0)
(92.08042068 -0.3891295347 0)
(91.97624396 -0.2345244346 0)
(91.92796974 -0.07936185077 0)
(99.84077868 -1.279588775 0)
(98.19233102 -1.21502762 0)
(96.61018777 -1.148250428 0)
(95.30891221 -1.076454347 0)
(94.27618477 -0.9975115899 0)
(93.48766931 -0.9093992191 0)
(92.84080492 -0.7921663856 0)
(92.46199194 -0.6771754534 0)
(92.105457 -0.5089033211 0)
(91.93874724 -0.3716661545 0)
(91.8298126 -0.2242575966 0)
(91.77875532 -0.07581279069 0)
(99.78289329 -1.237271111 0)
(98.13148598 -1.173271548 0)
(96.54623724 -1.107734309 0)
(95.23951394 -1.03782064 0)
(94.19939724 -0.9613686345 0)
(93.40120942 -0.8762377239 0)
(92.74167963 -0.7645729411 0)
(92.35043223 -0.6540694839 0)
(91.99944909 -0.4967458208 0)
(91.82773851 -0.3608670815 0)
(91.71522155 -0.2182096382 0)
(91.66256709 -0.07386020683 0)
(99.72564651 -1.211966566 0)
(98.07137744 -1.148379714 0)
(96.48352203 -1.083567133 0)
(95.17180689 -1.014780495 0)
(94.12476811 -0.9398504421 0)
(93.31728013 -0.8566997349 0)
(92.64996662 -0.7488946 0)
(92.24832642 -0.6411512688 0)
(91.80539423 -0.4808094189 0)
(91.61970174 -0.3518069989 0)
(91.50027918 -0.2126994283 0)
(91.44398383 -0.07160576593 0)
(103.1439905 -31.00003647 1.364024993e-18)
(104.0856519 -30.63209244 -1.296514325e-18)
(108.5677437 -21.73372703 -5.861613993e-19)
(95.46565669 -20.76781078 -1.756225738e-20)
(102.8058013 -30.85102517 -6.434960466e-19)
(96.944714 -21.03194868 1.215467899e-19)
(102.7210003 -18.37346875 4.12232313e-19)
(107.609482 -21.46205513 1.673652166e-18)
(97.1973047 -13.30506672 0)
(95.46472911 -20.01862257 -3.585750576e-19)
(107.4465833 -26.35836346 2.859993333e-19)
(97.57604237 -26.16368951 4.254787234e-21)
(98.07274491 -26.87573839 0)
(99.05263723 -26.39108488 1.066892186e-19)
(103.1142101 -23.52789155 3.878560618e-19)
(106.2454638 -25.75549223 4.748059166e-19)
(105.0885968 -32.1150187 -4.906823763e-19)
(100.3992462 -29.37884185 -1.141324613e-19)
(105.2454701 -32.21592761 4.888678711e-19)
(106.3302681 -32.01667994 -5.003282388e-19)
(108.6501455 -29.72934902 0)
(99.77408811 -28.81494109 -4.014829376e-19)
(98.05241306 -13.94665317 3.368499949e-20)
(100.2866238 -13.72173515 8.360371858e-20)
(101.7806359 -17.12770769 -2.182994538e-19)
(105.8787769 -28.55880865 -1.394833294e-18)
(107.935117 -29.47518947 1.980668164e-20)
(106.0493292 -31.89286537 -4.812610869e-19)
(100.371075 -19.87486498 0)
(102.2686777 -22.64918075 -2.816011543e-19)
(98.55479892 -25.73050944 9.852984605e-20)
(95.98576392 -16.13689989 0)
(91.89472366 -29.67172959 -1.016498369e-17)
(105.4378824 -32.32106199 0)
(91.27095505 -24.3448404 0)
(96.37878088 -23.90373662 2.098203981e-19)
(94.93950374 -30.62469318 -5.108178153e-19)
(97.44774238 -31.25367404 0)
(104.3596017 -31.7249705 2.131155836e-20)
(92.09523527 -30.01654713 -1.41012192e-18)
(89.58613158 -29.41947335 0)
(95.01586091 -30.72372819 3.23264627e-19)
(92.70116173 -30.21618028 8.918485486e-19)
(80.4513006 -27.24707851 -5.042112036e-19)
(96.7788175 -30.72378375 2.586251176e-19)
(95.66601354 -30.85296707 3.042399827e-19)
(96.83592204 -29.98772536 -1.234200576e-19)
(96.91045587 -30.59573361 0)
(81.79037641 -27.39764694 8.0556582e-19)
(88.68474695 -29.20808885 8.314403293e-18)
(105.5223981 -32.33966923 -5.728461897e-19)
(92.49668351 -29.8752736 -3.471480008e-18)
(93.30870694 -30.18964287 1.346616217e-19)
(108.7257298 -20.78295597 6.035207566e-19)
(108.82654 -15.46972353 2.939259164e-18)
(104.065032 -31.6134914 -3.918378463e-19)
(97.89331249 -31.38832191 -1.228131607e-18)
(98.86272996 -31.33912571 -1.235574268e-20)
(100.7861928 -31.36139016 -7.00307125e-19)
(105.104926 -32.23590429 -6.452580591e-19)
(107.3260304 -32.34425468 5.75460932e-19)
(109.1756699 -31.41178599 -5.780155062e-19)
(83.62595183 -28.10309355 -1.81873425e-18)
(82.73787422 -27.9471959 0)
(79.93078983 -27.16595527 -1.10640466e-18)
(84.82475804 -28.26246976 1.186042092e-19)
(83.38041828 -28.04271968 1.294667541e-18)
(96.25676531 -28.80829644 -2.993552712e-20)
(96.70526333 -29.77826048 4.006121213e-19)
(95.38899214 -30.1051036 1.535470899e-18)
(96.32815698 -30.5092186 4.03486739e-18)
(94.98672274 -30.18474099 -2.558816803e-18)
(90.68664583 -29.64610065 3.196500785e-18)
(86.11861336 -28.64378301 -9.375307539e-18)
(86.71653894 -28.79259269 -2.828681461e-19)
(89.35326311 -29.41998232 -1.489713531e-18)
(94.12881328 -30.54218076 0)
(87.61328617 -29.00180979 0)
(89.34521498 -29.42348586 0)
(86.61697264 -28.74185439 2.531799915e-19)
(86.12468974 -28.71781194 0)
(93.27311016 -30.43101716 1.151876046e-18)
(87.60558306 -28.97813651 4.983365627e-19)
(86.53283128 -28.66148099 -5.626849494e-19)
(80.7460619 -27.31962381 1.457589343e-18)
(83.20969635 -27.67442641 -7.646999375e-19)
(89.33579231 -29.15760219 -3.996890878e-19)
(88.53279304 -29.05316338 1.300584403e-20)
(92.36668569 -29.87875842 2.720296908e-18)
(98.13007 -31.17167645 -5.813863848e-19)
(97.63359734 -30.93678942 -1.904857665e-18)
(99.33608142 -31.53631062 0)
(98.59832866 -31.4107442 -1.596100017e-18)
(91.8725159 -29.89018279 -3.095601816e-18)
(108.4911631 -14.16963518 -9.56835515e-21)
(107.3732605 -11.07678354 1.99869686e-19)
(106.9892613 -10.23760899 7.623255687e-19)
(105.8409396 -8.127209272 1.471148711e-18)
(105.4602928 -7.527510623 0)
(104.3114763 -5.962714109 -9.85241268e-19)
(101.3670762 -28.80643725 1.924238916e-19)
(103.3727121 -26.92023327 -3.445382794e-19)
(105.2227844 -28.19134166 8.389559689e-19)
(103.3989656 -17.22366927 6.323799997e-19)
(104.328404 -14.11675205 -8.575545752e-19)
(107.5537013 -15.28399256 -1.380066084e-18)
(104.3664901 -13.21170789 9.741556674e-19)
(104.1623178 -10.86721234 -8.406597658e-19)
(106.5119565 -11.13362103 1.70096838e-19)
(104.0253387 -10.18474538 1.098632717e-18)
(103.4887542 -8.370003351 5.248288761e-19)
(105.2264149 -8.261697979 -4.103563312e-20)
(103.2794196 -7.831855576 0)
(102.5400765 -6.348736961 1.373217046e-19)
(103.8647527 -6.109840377 0)
(97.07938664 -16.37312521 0)
(99.2349244 -16.44008956 -1.780087179e-20)
(99.97402552 -18.94086354 0)
(100.7591046 -13.34659324 2.648170283e-19)
(101.5599325 -11.89904022 2.741347282e-19)
(103.4795243 -13.60129883 -8.075945332e-19)
(101.6700529 -11.37961025 -1.304554916e-19)
(101.762467 -9.863320284 1.905056719e-20)
(103.4822572 -10.66654078 -2.589627737e-19)
(101.7315719 -9.375125129 2.550759175e-20)
(101.4987644 -7.983243641 3.876730872e-19)
(102.9473135 -8.318674907 -1.575034239e-20)
(101.3796797 -7.537243451 -4.075955412e-19)
(100.922295 -6.278534278 2.519189617e-20)
(102.1160795 -6.366739376 2.396701659e-19)
(98.48321943 -10.05053373 2.909775513e-19)
(97.29801941 -12.21301692 0)
(99.05945195 -10.53873136 -1.11353278e-19)
(99.7148952 -10.58213295 0)
(100.0593237 -12.79896242 -6.789920778e-20)
(99.86550141 -10.46752845 0)
(100.1209796 -9.821797833 2.145934674e-19)
(101.1009621 -11.34649106 -2.429100165e-19)
(100.1481425 -9.544625455 -1.768138994e-19)
(100.1427467 -8.61864412 5.147598859e-19)
(101.2903789 -9.554591748 3.46986625e-19)
(100.1172787 -8.28682378 -2.663845692e-19)
(99.9567327 -7.265747281 -1.96430791e-20)
(101.0713686 -7.822256903 -5.962424493e-19)
(99.87559278 -6.922588947 1.640088526e-19)
(99.55679831 -5.908642159 0)
(100.5551173 -6.205617828 -4.623906986e-20)
(99.22431892 -8.160764129 0)
(98.73852189 -9.501577398 -1.127781229e-20)
(99.66866733 -8.46595898 5.302469311e-21)
(99.61376047 -8.526656872 -2.478278695e-20)
(99.66710518 -9.989436137 1.302801297e-20)
(99.56360038 -8.491176771 2.794555936e-20)
(99.3809488 -8.167612989 1.119944284e-19)
(99.8897314 -9.368393489 4.089707745e-19)
(99.31108996 -8.008395051 -1.151690753e-19)
(99.10648282 -7.421287412 0)
(99.83990578 -8.30954605 3.59568936e-19)
(99.03796777 -7.196116147 0)
(98.81291642 -6.4575322 4.014079219e-20)
(99.63760998 -7.067492178 -2.993466077e-19)
(98.72822018 -6.195166718 1.645587663e-20)
(98.4634076 -5.407128259 0)
(99.25926707 -5.790168231 0)
(99.64794161 -6.866060033 -9.015036828e-20)
(99.34099407 -7.795180673 0)
(100.0349164 -7.038611124 -3.045098191e-20)
(99.614611 -7.087587933 1.348427136e-20)
(99.61101684 -8.122861257 -2.227867175e-21)
(99.44500004 -7.071368162 1.970777857e-21)
(98.95586661 -6.876888251 0)
(99.25507252 -7.815116864 -1.021084119e-19)
(98.80496396 -6.773943635 -1.52775773e-21)
(98.40788289 -6.370039576 -3.331890842e-20)
(98.90756144 -7.143771158 -8.103315694e-20)
(98.29083229 -6.20762354 -9.118563923e-21)
(97.96862765 -5.65975924 0)
(98.57749203 -6.252227995 -4.997149916e-20)
(97.87018708 -5.464540705 0)
(97.60470983 -4.863344403 0)
(98.22882393 -5.272388856 0)
(100.015124 -5.889326383 -3.782927322e-21)
(99.74495442 -6.599614861 1.838616357e-20)
(100.2526445 -5.981662277 0)
(99.60135833 -6.008009895 2.694222224e-22)
(99.61552033 -6.790475457 -5.977375516e-21)
(99.35567832 -5.993664296 -3.120357201e-22)
(98.65975055 -5.849008642 9.202911589e-22)
(98.87386724 -6.598643209 1.089503151e-20)
(98.44968519 -5.773225907 -4.907961159e-22)
(97.90257506 -5.474323106 0)
(98.2667565 -6.13140334 3.640226025e-20)
(97.74600065 -5.354195544 0)
(97.34035417 -4.946932051 0)
(97.79435022 -5.472854831 0)
(97.2243551 -4.799052723 0)
(96.93034547 -4.332618667 0)
(97.42089176 -4.727640064 0)
(100.2669263 -5.098041059 0)
(100.0924393 -5.67635532 2.820416782e-21)
(100.3667282 -5.159517858 0)
(99.55932976 -5.156794208 0)
(99.59276667 -5.777103556 7.255717235e-23)
(99.26327996 -5.139230342 0)
(98.42979683 -5.018894727 0)
(98.59692334 -5.624305336 -4.25933719e-22)
(98.17923139 -4.959781878 0)
(97.52512418 -4.731355483 0)
(97.79825529 -5.275193322 0)
(97.3382753 -4.639746261 0)
(96.8600672 -4.326390777 0)
(97.20853935 -4.783278143 0)
(96.7259285 -4.211168959 0)
(96.39339035 -3.841788748 0)
(96.78480246 -4.205082317 0)
(100.398201 -4.449033091 0)
(100.307922 -4.92381148 0)
(100.4188323 -4.492050993 0)
(99.5038179 -4.469056111 0)
(99.54641893 -4.971449008 0)
(99.17282035 -4.449879593 0)
(98.24388631 -4.345120503 0)
(98.37995215 -4.837554436 0)
(97.96452905 -4.296597302 0)
(97.23114785 -4.113461233 0)
(97.44512904 -4.566264485 0)
(97.02063577 -4.040673424 0)
(96.48185299 -3.791341888 0)
(96.75733073 -4.185002682 0)
(96.33117738 -3.699124507 0)
(95.95923599 -3.400575941 0)
(96.27634396 -3.726262063 0)
(100.4660088 -3.910127179 4.844862588e-35)
(100.4197367 -4.305085428 5.707632669e-35)
(100.4328382 -3.938073607 -4.834641923e-35)
(99.44064969 -3.902960168 0)
(99.48858618 -4.317418687 0)
(99.08445348 -3.883142951 0)
(98.08658801 -3.789054205 0)
(98.20230021 -4.196274054 0)
(97.78612436 -3.747662804 0)
(96.99311096 -3.595280016 0)
(97.16718609 -3.975414203 0)
(96.76413531 -3.535477845 0)
(96.17580954 -3.331290664 0)
(96.39948789 -3.669721937 0)
(96.01078826 -3.255659871 0)
(95.60231899 -3.009407153 0)
(95.86361818 -3.297725831 0)
(100.4966562 -3.457160999 0)
(100.4765008 -3.789594451 0)
(100.4218133 -3.472690011 0)
(99.37318074 -3.430481013 0)
(99.42408751 -3.776939193 0)
(98.99833043 -3.410456271 0)
(97.94925165 -3.324313213 0)
(98.05062888 -3.665140063 0)
(97.63293439 -3.288037506 0)
(96.7943222 -3.157619995 0)
(96.94022799 -3.478955151 0)
(96.55085869 -3.107147435 0)
(95.92221446 -2.935849391 0)
(96.10810172 -3.226757768 0)
(95.74499324 -2.872494575 0)
(95.30397982 -2.665671376 0)
(95.52285356 -2.918793886 0)
(100.5031736 -3.072882657 -6.438504707e-35)
(100.5001971 -3.355217201 7.475195126e-35)
(100.3942049 -3.078384992 6.425634629e-35)
(99.30350727 -3.03218086 0)
(99.3559062 -3.32457498 0)
(98.91458347 -3.012189598 0)
(97.82667169 -2.932340387 0)
(97.91737754 -3.220096206 0)
(97.49821862 -2.899923226 0)
(96.62420305 -2.785893686 0)
(96.74942485 -3.058994245 0)
(96.36927029 -2.742376304 0)
(95.70777937 -2.595787029 0)
(95.86534944 -2.845971882 0)
(95.52027193 -2.541756581 0)
(95.05079707 -2.365300712 0)
(95.23689159 -2.586353211 0)
(100.4929296 -2.744648124 0)
(100.5019666 -2.985981448 0)
(100.3555604 -2.742423573 0)
(99.23301182 -2.694110576 0)
(99.28591798 -2.942473012 0)
(98.83334165 -2.674320574 0)
(97.71554739 -2.599701862 0)
(97.79791788 -2.84406027 0)
(97.37767009 -2.570319433 0)
(96.47581908 -2.46897704 0)
(96.58528495 -2.701901818 0)
(96.21172176 -2.430816368 0)
(95.5233727 -2.303310976 0)
(95.65915327 -2.518483305 0)
(95.32721947 -2.25653119 0)
(94.83308444 -2.103928894 0)
(94.99336659 -2.29618297 0)
(100.4706667 -2.463183309 -2.196934446e-35)
(100.4883423 -2.670202868 -2.529776286e-35)
(100.3095263 -2.455295864 2.192692243e-35)
(99.16261106 -2.405951188 0)
(99.21537541 -2.617732148 0)
(98.75468647 -2.386480745 0)
(97.61365851 -2.316350146 0)
(97.68927977 -2.524577322 0)
(97.26838104 -2.289434381 0)
(96.34441681 -2.198212286 0)
(96.44152771 -2.397252798 0)
(96.07293201 -2.164290609 0)
(95.36250848 -2.051877806 0)
(95.48115932 -2.236835037 0)
(95.15908512 -2.010851395 0)
(94.64366991 -1.877308824 0)
(94.7833202 -2.043922202 0)
(100.4397253 -2.221514852 0)
(100.4636352 -2.399270924 0)
(100.2585055 -2.209745091 0)
(99.09289252 -2.159959292 0)
(99.14510072 -2.340760513 0)
(98.678634 -2.140884835 0)
(97.51943569 -2.074668549 0)
(97.58943621 -2.252280399 0)
(97.16830098 -2.049803545 0)
(96.22662522 -1.96683415 0)
(96.31380336 -2.13690724 0)
(95.94914006 -1.936337069 0)
(95.22047273 -1.836083632 0)
(95.32539026 -1.99477859 0)
(95.01092062 -1.799696432 0)
(94.47715688 -1.681590202 0)
(94.60008063 -1.825404084 0)
(100.402603 -2.014244403 0)
(100.430942 -2.166653087 0)
(100.2041641 -2.000040826 0)
(99.0242042 -1.950136841 0)
(99.07561425 -2.104315364 0)
(98.60511785 -1.931501099 0)
(97.43168297 -1.868722645 0)
(97.49693149 -2.020032934 0)
(97.07588711 -1.845587321 0)
(96.11993125 -1.769449765 0)
(96.19899512 -1.914485887 0)
(95.83753888 -1.741759819 0)
(95.09370406 -1.651432945 0)
(95.18746859 -1.787158338 0)
(94.8789641 -1.618830072 0)
(94.32935185 -1.51334693 0)
(94.43859758 -1.636885753 0)
(100.3611347 -1.83718875 0)
(100.3925831 -1.967285826 0)
(100.1476742 -1.821633353 0)
(98.95672618 -1.77178391 0)
(99.0072156 -1.902753862 0)
(98.53400939 -1.753598925 0)
(97.34944489 -1.693838591 0)
(97.41063784 -1.82224466 0)
(96.98992705 -1.672172483 0)
(96.02239201 -1.601738588 0)
(96.09475208 -1.724884553 0)
(95.73595972 -1.576369227 0)
(94.9794334 -1.494208841 0)
(95.06405644 -1.609681467 0)
(94.7602781 -1.464713413 0)
(94.1969259 -1.369606138 0)
(94.29491798 -1.475051224 0)
(100.3166485 -1.687028574 0)
(100.3502537 -1.797242982 0)
(100.0898715 -1.670870606 0)
(98.89052051 -1.621178104 0)
(98.94005547 -1.731660158 0)
(98.46513508 -1.603433305 0)
(97.27192615 -1.546306856 0)
(97.32965176 -1.654519808 0)
(96.90943047 -1.525889374 0)
(95.93245493 -1.460228264 0)
(95.99924972 -1.564025556 0)
(95.64267307 -1.436782563 0)
(94.87544735 -1.361356562 0)
(94.95255033 -1.45881827 0)
(94.65250725 -1.334416502 0)
(94.07717172 -1.247835277 0)
(94.16589787 -1.337051083 0)
(100.2700918 -1.561047669 0)
(100.3051733 -1.653360976 0)
(100.0313506 -1.544765109 0)
(98.82556714 -1.495308105 0)
(98.87416674 -1.587495709 0)
(98.39828538 -1.477978298 0)
(97.19842691 -1.423132522 0)
(97.25320018 -1.513333139 0)
(96.83354436 -1.403771473 0)
(95.84882309 -1.342092289 0)
(95.91100203 -1.428600881 0)
(95.55624091 -1.320237708 0)
(94.77991283 -1.250355833 0)
(94.85083595 -1.331645476 0)
(94.55369692 -1.225514184 0)
(93.96778786 -1.145922437 0)
(94.04893821 -1.220443275 0)
(100.2221562 -1.457044269 0)
(100.2582145 -1.533063098 4.000119461e-36)
(99.9725495 -1.44092105 0)
(98.76181556 -1.39177033 0)
(98.80951953 -1.467412807 0)
(98.333249 -1.374822183 0)
(97.12833167 -1.321925698 0)
(97.18060718 -1.395853919 0)
(96.76152892 -1.303448291 0)
(95.77040012 -1.245056613 0)
(95.82876908 -1.315934341 0)
(95.47545454 -1.224505536 0)
(94.6913148 -1.159151964 0)
(94.7571673 -1.225771836 0)
(94.46224416 -1.136025487 0)
(93.86698545 -1.062183396 0)
(93.94184587 -1.123260103 0)
(100.173369 -1.37325346 0)
(100.2100213 -1.434261066 0)
(99.91379305 -1.357442187 0)
(98.69917833 -1.308655763 0)
(98.74605613 -1.369141553 0)
(98.26979659 -1.29204652 0)
(97.06106354 -1.240775304 0)
(97.11127169 -1.299822827 0)
(96.69270263 -1.22301983 0)
(95.69620532 -1.167280696 0)
(95.75149162 -1.223870054 0)
(95.39923838 -1.147772856 0)
(94.60831515 -1.086024594 0)
(94.67009054 -1.139235265 0)
(94.37673554 -1.064258552 0)
(93.77321335 -0.9949495433 0)
(93.84294933 -1.043843853 0)
(100.1241621 -1.308337647 1.540364604e-35)
(100.1610921 -1.355299587 0)
(99.85532881 -1.292897126 -1.537574648e-35)
(98.63753611 -1.244502827 0)
(98.68368053 -1.290888869 0)
(98.20768293 -1.228177858 0)
(96.99607586 -1.178201996 0)
(97.04462431 -1.223440235 0)
(96.6264299 -1.161012382 0)
(95.62534571 -1.107330443 0)
(95.67821157 -1.150670253 0)
(95.32661451 -1.088625625 0)
(94.52967237 -1.029634916 0)
(94.58829241 -1.070401498 0)
(94.29583215 -1.008902075 0)
(93.68469897 -0.943001183 0)
(93.750654 -0.9805054439 0)
(100.0748778 -1.261300269 -5.079405183e-36)
(100.1118375 -1.294934476 0)
(99.79731399 -1.246233329 5.070265577e-36)
(98.57671194 -1.198213827 0)
(98.62226141 -1.231291564 0)
(98.14662238 -1.182106119 0)
(96.93282309 -1.133083431 0)
(96.98012143 -1.16532257 0)
(96.56209028 -1.116306672 0)
(95.55698574 -1.06411766 0)
(95.60805294 -1.09499369 0)
(95.25667701 -1.045993806 0)
(94.4542739 -0.9889967069 0)
(94.51055947 -1.018031416 0)
(94.21835594 -0.969011878 0)
(93.6001231 -0.9055926913 0)
(93.66323532 -0.9322817782 0)
(100.0257438 -1.231456192 0)
(100.0625799 -1.252249054 0)
(99.73980372 -1.216721154 0)
(98.51646998 -1.169016115 0)
(98.56160923 -1.189336793 0)
(98.08628614 -1.153049774 0)
(96.87075415 -1.104623663 0)
(96.91721836 -1.124431777 0)
(96.49907123 -1.088106167 0)
(95.49033856 -1.036861892 0)
(95.54019483 -1.055832535 0)
(95.18858238 -1.01910816 0)
(94.38111099 -0.9633889169 0)
(94.43581277 -0.9812086902 0)
(94.14324463 -0.9438866307 0)
(93.51825587 -0.882074837 0)
(93.5794452 -0.8983917804 0)
(99.97113343 -1.217146846 -3.251685314e-37)
(100.0136266 -1.226646026 0)
(99.6761654 -1.202992548 3.247534727e-37)
(98.4494197 -1.155905616 0)
(98.50158496 -1.164322781 0)
(98.01915605 -1.140012499 0)
(96.8019643 -1.091785538 0)
(96.85543361 -1.1000444 0)
(96.42932666 -1.075366552 0)
(95.41685526 -1.024536958 0)
(95.47391327 -1.0324738 0)
(95.1135815 -1.006957659 0)
(94.30072314 -0.9518355681 0)
(94.36310739 -0.9592721416 0)
(94.06076671 -0.932541867 0)
(93.42847329 -0.871199523 0)
(93.49811152 -0.8783019757 0)
(103.4501943 -31.24919805 -3.612252178e-19)
(102.6113043 -31.5076929 -3.511271618e-19)
(102.3607052 -31.31548839 -3.185766095e-19)
(104.8144178 -29.95773882 8.823969911e-19)
(105.5270707 -30.32308676 -9.932323007e-19)
(104.787041 -31.00940809 2.464949558e-19)
(111.6778673 -22.5325015 -1.654556234e-18)
(111.5635924 -26.31462059 0)
(107.8805941 -25.15910403 0)
(96.09403591 -23.09853253 -2.694192804e-19)
(91.41883029 -23.33326478 -2.572951481e-19)
(99.0428306 -31.28177547 -6.483427514e-19)
(99.01762915 -30.84886263 2.603084809e-19)
(101.7010191 -30.41172863 -1.581196826e-19)
(98.33862646 -20.75053323 2.157579127e-20)
(98.7975115 -21.97852863 -3.440270274e-20)
(97.05946729 -22.91561518 4.247883036e-20)
(104.4317726 -19.52769865 3.312884831e-19)
(102.9949477 -21.81641581 2.398772652e-19)
(101.0973606 -19.3820769 0)
(106.7511006 -24.62318627 9.893563829e-19)
(103.8098661 -22.59553719 -5.844142926e-19)
(105.1615938 -19.96383784 -8.365805868e-19)
(96.31306666 -15.28259552 0)
(95.28623176 -18.27582645 1.690664936e-19)
(108.6996256 -26.88603101 0)
(108.3081242 -28.77090824 -1.738805136e-18)
(106.3138179 -27.89497076 9.103319484e-19)
(108.9986089 -28.99559537 5.998025897e-19)
(109.7618958 -26.8476119 -6.461577554e-19)
(107.6120691 -32.42812427 6.274571472e-19)
(108.8609585 -32.2752075 -6.164508334e-19)
(96.35768452 -26.56520087 -6.934376574e-20)
(95.9225751 -25.78429395 -3.706526063e-20)
(97.12412472 -25.43783207 7.276631931e-20)
(98.60900482 -27.55918188 1.057803785e-19)
(97.32755667 -28.0282923 -1.706668184e-20)
(96.82981576 -27.31080333 5.017121413e-20)
(101.1764369 -24.9299908 -3.502784664e-19)
(102.7880492 -26.51730134 2.260435527e-19)
(100.7424827 -28.25112542 -2.303685734e-20)
(104.0617435 -24.35105207 -1.664828262e-18)
(103.2626056 -25.39317324 9.204602384e-19)
(102.2479093 -24.47287621 2.531749588e-20)
(105.6941562 -27.56193251 -1.683335157e-18)
(104.3891347 -26.24577055 9.748849527e-19)
(105.108862 -25.09543793 -7.948879088e-19)
(103.3319514 -32.14025446 0)
(103.3851675 -32.10690874 -3.956240198e-22)
(104.8854414 -32.00765545 1.378950524e-18)
(90.33613019 -29.18783041 -2.640581436e-19)
(89.87330487 -29.22585978 3.472742092e-19)
(83.78079953 -27.76475872 -5.12177516e-19)
(101.0483798 -29.91706317 -2.606667707e-19)
(98.8983918 -30.66488092 2.457143743e-19)
(98.2929023 -29.94807223 1.920334629e-19)
(105.3859404 -32.30475089 0)
(102.9602448 -32.18779725 1.037289195e-18)
(103.1628195 -32.15971845 -5.091519006e-19)
(107.7077323 -31.22293427 0)
(108.4423718 -31.45883208 -4.209332173e-21)
(107.1308401 -32.29409566 -5.752235843e-19)
(109.3784729 -29.95979075 0)
(108.9866526 -30.72303536 4.652959201e-20)
(108.2465753 -30.48378872 6.529112776e-19)
(109.7291969 -30.93460598 7.687625213e-19)
(110.1123978 -30.1646321 -1.453767155e-18)
(98.39114099 -29.34871324 0)
(97.85297363 -28.71623425 4.83299068e-20)
(99.17619356 -28.21050533 4.350861063e-19)
(91.38754768 -28.96950975 0)