/*--------------------------------*- C++ -*----------------------------------*\
| =========                 |                                                 |
| \\      /  F ield         | OpenFOAM: The Open Source CFD Toolbox           |
|  \\    /   O peration     | Version:  v2012                                 |
|   \\  /    A nd           | Website:  www.openfoam.com                      |
|    \\/     M anipulation  |                                                 |
\*---------------------------------------------------------------------------*/
FoamFile
{
    version     2.0;
    format      ascii;
    class       volScalarField;
    location    "3.01";
    object      p;
}
// * * * * * * * * * * * * * * * * * * * * * * * * * * * * * * * * * * * * * //

dimensions      [0 2 -2 0 0 0 0];


internalField   nonuniform List<scalar> 
3259
(
664.437082
667.9165513
675.1253164
685.3791856
709.1976366
729.5726383
755.0615366
796.81215
846.4575561
903.1469329
964.937945
1063.636837
626.2746384
628.6550278
633.7583829
640.6975857
660.4474323
673.8488968
688.841852
718.216007
746.4742412
772.3716189
790.7266916
840.8616493
585.6196214
586.8213668
589.4989322
592.856367
608.6672063
614.3761115
619.2922264
634.3803707
641.0660929
636.2181014
604.7653444
511.8988719
543.4656741
543.5643228
543.8862277
543.8530227
555.7849836
554.7868922
550.9814739
553.0482985
541.9711152
515.012149
456.9700573
346.3628695
500.7972132
499.9606679
498.2724868
495.3589916
503.6176766
497.1096982
486.3980088
478.6673894
453.8716521
413.99352
349.3269439
253.0469915
458.5043892
456.9192737
453.6223994
448.4391273
453.4753281
442.8359269
427.1549366
413.3190344
380.763724
334.9484467
272.1802341
191.0251487
417.301487
415.1502561
410.635544
403.7868078
406.2608729
392.8133426
374.0519394
356.6447668
321.7475894
275.24187
216.9612143
147.6963596
377.7295297
375.1900176
369.8367851
361.8858098
362.452522
347.3518108
326.9194892
308.0272328
273.2453791
229.3803298
177.0755398
117.6688509
340.1723699
337.4072452
331.5632988
322.9956475
322.2549241
306.4145572
285.4464844
266.4042605
233.1381459
192.8851417
146.6843993
95.81960124
304.8731108
302.0178332
295.978102
287.1991164
285.6081185
269.7392242
249.1063263
230.6936753
199.7008627
163.3831442
122.7573349
79.07525938
271.9485446
269.1086087
263.1037524
254.4334968
252.3482033
236.9640406
217.274946
199.9162985
171.5585467
139.1602521
103.5269916
65.92312158
241.4122526
238.6666986
232.866243
224.5388724
222.2397197
207.6835671
189.3597661
173.252217
147.6434759
118.9682763
87.7852791
55.37341475
213.2022424
210.6082419
205.1316922
197.3080909
195.0076523
181.4964406
164.7055501
150.0277787
127.1338591
101.9036935
74.68875595
46.75133444
187.2040433
184.8008364
179.7287304
172.5129503
170.3673814
158.0252132
142.8463909
129.6661973
109.3824938
87.30393022
63.63439953
39.5889158
163.2648391
161.0773448
156.460304
149.9140758
148.038881
136.9223844
123.3683909
111.6924807
93.87812981
74.6732775
54.1883674
33.54518053
141.2054971
139.2477635
135.1139428
129.2685157
127.747201
117.8695231
105.9129683
95.70963118
80.21004546
63.62889607
46.01625969
28.36724143
120.8321001
119.1105226
115.4720936
110.3373372
109.232818
100.5795531
90.18052548
81.38272794
68.04747905
53.86965352
38.85869169
23.8684904
101.9441417
100.4598355
97.3181445
92.8897853
92.24946786
84.78903794
75.92358082
68.43204397
57.12001982
45.15310476
32.51213127
19.90604699
84.33253349
83.08433235
80.43477777
76.6969449
76.57348498
70.25704875
62.86856617
56.62935663
47.20476682
37.28087245
26.81369294
16.36693951
67.81395279
66.79699579
64.63185831
61.56687067
61.97827564
56.76382418
50.74596662
45.78120209
38.11092573
30.08504119
21.62710342
13.15966359
52.10810888
51.32655926
49.64505839
47.22478987
48.30735145
44.10817013
39.35139224
35.68293289
29.66420823
23.41709527
16.83338181
10.20716465
37.31141102
36.74073553
35.53019639
33.7965624
35.12728145
32.10153758
28.58247091
26.15719755
21.70940346
17.14435177
12.3303988
7.440795868
22.17530042
21.90028111
21.18065026
20.13523087
22.54838459
20.58438374
18.25282718
17.05344136
14.10834567
11.14154778
8.016636952
4.796348118
11.08816322
10.82194532
10.44258233
9.844803528
10.25788937
9.256131296
8.13384472
8.238450854
6.741311423
5.277480012
3.78647599
2.214270781
1075.138211
869.4807691
1004.14986
1068.299774
835.5391902
865.6952991
1047.065954
982.359939
1047.592832
1131.419404
579.0877849
1136.735159
1141.792476
1045.18865
1041.945549
968.6089514
1048.014375
939.0010962
1136.505522
1052.660623
-301.9284687
1088.969891
1053.760905
1017.001535
1097.920202
1065.196052
1093.955283
1167.965744
1138.541994
1108.239919
1148.488103
1174.050195
1178.165843
1171.602041
1003.382511
961.0250187
949.3614775
968.4985925
487.1311527
187.9604438
1099.936798
-290.5205012
144.078917
-205.3606943
1095.623973
-238.5216822
111.0734315
648.7916865
607.0546381
831.0278309
720.067198
738.30982
981.6123495
1065.178879
1049.792166
1030.358568
883.146571
647.9486933
1201.383683
1147.189003
828.7780827
947.778903
909.6934027
1023.407999
999.2859827
1017.111469
154.4690727
1025.913531
451.2816016
705.9666894
523.4630706
610.6496511
1116.17244
1071.464368
1073.168456
1056.062249
1067.901956
1106.883135
1094.675819
1079.140317
1196.859312
1154.158012
1004.518158
990.0929088
965.3668439
643.8211439
550.3104727
1015.563694
270.9885493
427.3177969
321.7044474
1109.082639
-444.1263092
-9.183014779
215.1055811
-54.481667
1067.207069
1116.095749
1100.542729
1113.087125
1146.355023
1135.419549
1121.55931
1146.554939
1152.845271
1146.179146
1042.27737
1131.305429
1137.781438
1141.700436
1055.181069
1155.734777
1140.739655
1151.271589
1191.18917
1176.122979
1161.378535
1181.999486
1190.086422
1185.003607
1165.539652
1168.920674
1174.86416
956.681021
964.1079912
952.570853
706.9502709
966.1689109
363.7637183
495.3106983
618.2381032
1105.870172
1106.6449
1102.748894
-354.6423191
-197.978144
-175.0489913
-190.3572017
1089.311733
1095.8606
1102.297585
-88.77113359
1214.496656
1213.018071
1149.494226
1147.010842
1153.735151
1145.102955
955.180155
998.2482873
1127.357105
1027.035564
1019.336846
1009.482004
1035.511612
394.2640386
378.4371598
1102.082985
979.4838855
747.5949304
1117.591223
1129.59155
1124.571348
1063.102066
1194.925648
1184.93578
1210.481132
1204.510109
1158.769418
1163.09014
1159.51229
1165.68606
1161.568333
1177.062822
1171.148712
997.5224342
984.5020804
990.5118859
600.7589858
618.3632236
681.3636785
557.1550205
564.7869502
546.8328577
1003.962788
367.612448
314.8958247
247.4297548
1105.112077
1106.645058
1109.023289
-421.8443291
82.84416044
23.41444573
197.1233011
184.3590253
197.4651776
4.320720853
-129.7867964
-110.6606498
-8.340135328
1078.361674
1090.30366
1083.491594
815.6188944
855.7543615
870.5162099
917.7199225
934.2020587
985.7322546
737.7315015
762.516259
833.1625807
771.148973
796.7114198
888.5497836
804.8447672
828.4930081
948.8077776
923.7875748
934.5740816
999.9433447
1031.184333
1056.185295
1089.164993
655.1624395
664.4764034
739.3440253
666.9510921
669.9149781
766.489614
669.0052927
657.1361151
787.2810079
742.8295345
741.9887895
810.9103792
800.4517412
797.8433151
873.556532
572.840269
568.4540698
640.0533427
565.8080005
551.1702905
638.9969119
543.3681321
507.1895159
616.4524608
489.7475436
417.0158355
544.7874419
378.1941049
496.4228677
481.0441611
545.6870806
474.5673014
448.7022467
523.9757453
437.2567747
391.9599739
475.3419819
372.9504954
301.4870381
382.6043464
272.5697523
428.8194592
406.4808576
461.0966291
397.5946498
365.5727678
425.9526886
352.7589235
306.9057075
368.1323651
289.1464611
226.0444799
279.7864539
204.5447342
370.014117
345.1309246
390.0294659
335.4188233
301.5196428
347.8803851
288.5775175
245.0610245
289.5118135
229.0464865
174.02533
211.214879
157.0222113
319.4705506
294.126088
331.4863595
284.5089823
251.9464063
288.0313513
239.8583472
200.3256952
232.547953
186.0118136
138.7851176
163.7907927
124.2530654
276.2019865
251.6138528
282.7693174
242.4782341
212.2433207
241.2014936
201.2733836
166.1619545
190.9558158
153.5919846
113.7026245
131.8245384
100.733631
239.1096341
215.974241
242.1173565
207.51554
180.0058584
203.5628922
170.205747
139.2361465
158.8437393
128.2413658
94.20594529
108.3626861
82.87670653
207.183588
185.8606676
207.974428
178.1608385
153.4667542
172.8945375
144.795951
117.564278
133.3866251
107.9674894
78.78902986
90.02061864
68.93490384
179.559028
160.1975786
179.0641462
153.2741228
131.3240415
147.5617161
123.6925284
99.80739361
112.8004092
91.44477079
66.33670837
75.43240091
57.80789458
155.5345195
138.1459983
154.3749401
131.9799634
112.6106892
126.3561472
105.9162009
85.02676152
95.86320501
77.75196567
56.10081415
63.5935161
48.75472405
134.5062893
119.0370239
133.115868
113.5915233
96.60254401
108.3789504
90.75206777
72.54684739
81.71272169
66.23228007
47.55012549
53.82209493
41.26297625
115.9766794
102.3383372
114.6548613
97.5675118
82.75634888
92.95650891
77.66885147
61.87626234
69.72583736
56.41876372
40.31165364
45.62948664
34.96636917
99.53084627
87.61903992
98.48789557
83.47443851
70.65398147
79.58139688
66.25912822
52.6428501
59.44563885
47.95532543
34.11102208
38.67332466
29.59178773
84.81920096
74.52754823
84.20550592
70.96271683
59.96650501
67.86045767
56.2031278
44.55855258
50.52356731
40.56492408
28.73807729
32.69717533
24.93794409
71.54842139
62.7764231
71.47416497
59.74891709
50.43090124
57.48375154
47.24594655
37.39819882
42.6895607
34.0322815
24.0266161
27.5040025
20.85297803
59.47945558
52.12843441
60.0194119
49.59943376
41.83148292
48.20086132
39.17929604
30.98044048
35.730429
28.18502962
19.84063105
22.93557244
17.21728995
48.41130088
42.3830518
49.61480703
40.31713676
33.98741592
39.80620757
31.82900645
25.15408477
29.47391087
22.88259873
16.06836689
18.86281047
13.9347455
38.1446734
33.35662339
40.06605051
31.72400835
26.73904765
32.12533317
25.04198743
19.78843116
23.77416331
18.00086112
12.61272397
15.17821637
10.9252367
28.49059103
24.88241968
31.19229297
23.65980368
19.94438394
25.00311541
18.68240983
14.76834375
18.50557321
13.43429146
9.389483085
11.78826019
8.118529633
19.29518618
16.81470354
22.83270895
15.98230656
13.47253141
18.30110338
12.62375127
9.985314295
13.55438202
9.082848668
6.321954968
8.610992583
5.449302005
10.42222998
9.028672483
14.84602828
8.568126471
7.197944671
11.89027944
6.739844828
5.325711669
8.813866057
4.840775322
3.334697275
5.570438286
2.858143721
2.193614029
1.782116355
7.111958338
1.64675655
1.198188211
5.64257558
1.029467692
0.5040622473
4.164856405
0.4126129866
0.6965486417
2.583777931
0.4660992895
1099.615353
1130.035681
1104.797264
895.5994418
937.6042406
911.255687
615.9013098
1020.294498
1077.319951
1041.570451
1127.362313
1088.866562
1031.265589
837.5923744
911.1326697
879.8379638
950.9643885
919.4708948
843.0447387
1010.536999
943.6233737
976.9939308
1007.451518
1044.616913
1018.66917
1052.768314
1048.228472
1041.782229
1126.021953
1120.575226
1125.797904
450.6395786
648.1478197
680.2709107
599.099927
420.5964187
596.0134169
569.0053739
1140.797022
1135.508865
1131.151019
1181.357579
1195.897945
1115.559492
1139.902992
972.9916401
983.1897493
938.154841
1035.147479
1027.76529
1035.058601
928.2475367
951.7651561
994.1069319
919.3569417
913.7018856
1049.369936
1083.37891
1077.425148
1082.686512
1041.893446
1051.597932
1063.258988
1025.194137
1046.017347
1029.599328
1087.286131
1096.287773
1106.858405
1074.469965
1085.41914
1076.349253
1098.064587
1093.411069
1088.642607
1164.101364
1158.539731
1162.118355
1128.475243
1136.896034
1147.060844
1116.996654
1126.896507
1118.384468
1167.60265
1176.610584
1157.203372
1167.072987
1158.189945
1180.167819
1175.45241
1169.790828
989.2650817
995.23406
1018.30054
966.0097093
986.9740552
974.9380322
441.9227284
488.3842293
526.688217
219.8467123
272.5788488
234.3493454
94.71292119
133.3700596
176.3334369
-199.1681999
-37.14277112
637.9059446
689.2120707
695.0238926
683.4013986
682.4502255
624.5020151
814.6200151
728.3537637
719.6178877
711.9225292
753.428479
759.8222825
817.1776044
750.6841923
689.9645459
887.8076198
812.5850852
727.8476541
1059.915601
1054.578041
1059.766428
1043.228646
1048.838287
1054.667855
1035.895871
1042.550689
1036.872404
684.5201693
651.6266739
682.1943083
583.8439368
614.8820522
684.6736466
1207.339673
1210.558919
1205.521958
936.9575318
966.4654501
741.4158587
944.4553607
965.7645551
958.3811714
920.167885
948.5857679
930.4474422
1015.953201
1021.456901
1028.948642
1003.844025
1013.144973
1007.930539
278.7974323
732.3757812
852.5953423
798.0106513
662.4516612
890.882553
666.2495365
783.570102
720.578949
1067.888284
1072.50747
1078.285838
1060.541775
1066.570987
1061.540713
1076.133775
1071.312385
1065.1483
1103.319412
1098.13416
1102.020648
1089.743735
1093.927326
1099.227466
1083.703553
1088.821182
1084.000728
1191.420992
1197.687799
1203.396442
980.8391638
982.4317763
993.3835168
961.4782435
969.6432591
971.3665092
397.0548393
355.1301404
377.5129627
279.6369179
318.9649356
361.2141214
7.19876956
61.55409142
37.80188559
1111.314267
1115.755957
1121.025875
1104.762453
1110.319553
1105.554165
1119.722618
1114.935129
1109.065106
1143.352798
1139.227348
1143.243116
1131.073298
1135.055466
1139.604856
1126.058358
1130.664378
1125.923781
1150.919108
1154.718212
1160.065709
1144.445114
1149.474768
1145.367088
1156.441072
1153.15183
1148.110557
1185.982214
1180.89038
1185.96233
1171.650129
1176.060657
1181.031581
1165.483555
1170.841909
1166.148784
406.5631225
450.9172742
410.281253
522.8724736
488.5122061
449.0464966
568.0712656
534.3679803
574.4491123
-148.7808937
963.5877865
965.7876621
949.4740888
1028.975969
1014.225552
985.7704255
1384.240505
1117.568881
1071.550626
1055.348296
1063.863365
1170.572684
958.1159976
1078.232805
1048.696231
774.7549728
806.0837021
735.4993865
733.8623147
743.2148368
755.8502928
770.2279124
786.5919592
803.8658068
686.2695436
692.8410622
718.6411034
701.8288191
711.4533961
741.6054735
721.6647286
730.294581
786.2103679
777.6282877
787.9912528
808.2812162
821.9278422
833.9648255
860.1557768
871.2496226
883.9716608
918.0021962
1053.694217
1061.414085
1072.214254
635.1564579
639.2887462
666.7790957
644.3715419
649.5238646
681.3277441
654.2897385
651.9352349
711.6583695
697.2238988
702.8872349
725.1013621
719.9551378
725.2126607
753.4517443
737.8368245
740.4315154
777.6766774
582.2391197
583.3343402
611.5647288
584.410024
584.9991542
617.1355037
584.7704073
573.653481
632.3485751
613.6781727
614.7360384
636.4679154
615.1327153
613.9539488
641.2803468
604.1885796
597.5850971
631.7135131
563.4051194
545.7921742
589.8515093
458.3332858
435.4837149
489.3655524
529.364917
527.8408829
555.6677676
525.5860134
522.3318408
553.3383073
518.1201717
500.5575528
554.9329133
533.6796378
530.7224323
550.9970817
518.7328533
513.0629189
537.236991
487.9434248
476.0626215
504.1265123
426.6208243
405.0475581
435.5755439
318.7335952
285.6014124
312.3624736
478.0933186
474.3396967
500.997147
469.4574558
463.2261295
492.2223301
456.0330528
434.8796935
483.5799184
461.4837103
455.5827982
473.3574271
434.1451936
425.3795273
445.7173155
392.2175296
378.4125901
400.4376759
327.5894727
307.3943912
328.6601568
235.3759593
205.4937976
222.0364757
429.3459985
423.9716778
448.9414813
417.2440541
408.9987265
435.4600674
399.8284762
377.0167741
419.8156228
398.3401836
391.0624674
406.27003
364.8592355
354.5364015
370.703807
318.3505086
304.3747472
320.9201416
256.5696024
238.4345061
253.5317488
178.6339253
154.8718162
165.569649
383.8056804
377.3702503
400.3955591
369.4885404
360.0568486
383.8620134
349.7661886
326.8202343
363.9001097
343.7623282
335.9462836
348.8946575
308.7282126
298.3074436
311.275223
262.7349086
249.4596748
261.6935064
205.8769232
189.8082779
200.3502822
139.2486564
121.1255983
128.4847584
341.8000169
334.7725085
355.7716403
326.3124784
316.3720343
337.5666739
305.5006077
283.4618292
315.519223
296.9968816
289.1515523
300.1391073
262.5048759
252.5531358
263.144971
219.4837789
207.4670371
217.0362959
168.7396225
154.6408254
162.4887006
111.6236169
96.78843933
102.1899169
303.3766401
296.1422374
315.1632495
287.5474629
277.6225377
296.4104799
266.6752764
246.0254622
273.7513181
256.9491177
249.3947246
258.7416906
224.2121927
214.9818097
223.7132579
184.9297676
174.2364756
181.8637723
140.1767854
127.9062603
133.9723255
91.22474033
78.84037087
82.86392299
268.437555
261.2875961
278.4412408
252.8728209
243.3024384
259.9395675
232.6635298
213.6150393
237.6689442
222.5591269
215.4791636
223.4692084
192.2154527
183.8106595
191.0851198
156.8881255
147.4508755
153.6422523
117.5639024
106.9349237
111.7378369
75.49590061
65.06301405
68.19936912
236.7800953
229.9188005
245.3570893
221.8978621
212.8969742
227.6419439
202.8762325
185.4443143
206.3878666
192.8798916
186.3713956
193.2456962
165.2192502
157.663967
163.7913923
133.7748313
125.4734426
130.5867003
99.30267084
90.11036873
93.99359857
63.07244205
54.16224905
56.66572745
208.1433257
201.7044487
215.5960962
194.213659
185.8827256
198.9935563
176.6553743
160.8622718
179.1572041
167.1372452
161.2345539
167.1847708
142.2247555
135.499749
140.7142404
114.4382811
107.1528021
111.4391634
84.2902503
76.34790273
79.5467205
53.05839523
45.36214634
47.3966463
182.2441103
176.3076505
188.8202728
169.4312717
161.8295941
173.5104196
153.4541537
139.2778652
155.3581399
144.6794662
139.3839702
144.5706252
122.4595256
116.5218378
121.0041662
98.0444869
91.67134761
95.3114051
71.75267867
64.89833153
67.57513769
44.83888523
38.14297039
39.8217178
158.7974472
153.4069829
164.6991659
147.1869944
140.3416315
150.787227
132.833729
120.207674
134.428598
124.9569064
120.251707
124.8058433
105.3133326
100.1083058
103.9997058
83.97826573
78.42731248
81.55524864
61.13662716
55.23530966
57.50685685
37.98432162
32.13456731
33.53914717
137.5234932
132.6974922
142.921125
127.1477009
121.0600706
130.4448974
114.4083643
103.2449141
115.9061109
107.5163744
103.3751161
107.4042617
90.30313168
85.77325476
89.18474082
71.77647464
66.96880872
69.68660353
52.03724217
46.96725027
48.92082521
32.17776382
27.06983249
28.25936573
118.1540424
113.8945902
123.1900685
109.0113008
103.6681991
112.1452596
97.84709345
88.04216153
99.40055405
91.9778051
88.36997771
91.96352369
77.03980154
73.13066956
76.15053692
61.07899052
56.94582272
59.33305348
44.1404979
39.80283906
41.50341269
27.18509108
22.74890034
23.76845149
100.4359834
96.73478289
105.2326071
92.50356678
87.88533167
95.59177012
82.88594963
74.30736443
84.57638916
78.01950283
74.91556605
78.14861421
65.20919502
61.87184901
64.57145569
51.60114273
48.08270778
50.20265194
37.2031515
33.52145367
35.01929505
22.83243073
19.01689679
19.90192245
84.13265189
80.97255302
88.79437439
77.37124449
73.44220921
80.51101817
69.26124282
61.80634526
71.15153818
65.3769983
62.74712543
65.68079039
54.55394273
51.74485043
54.18266309
43.11266902
40.15767953
42.0616153
31.03212374
27.94665627
29.28256675
18.98534287
15.74966228
16.52879152
69.01853662
66.37849901
73.63921784
63.38543941
60.10463761
66.64843668
56.71261278
50.33936085
58.90367504
53.83157999
51.64617378
54.33144757
44.86133238
42.54169571
44.76614613
35.42460519
32.98947323
34.71946869
25.47416249
22.93170177
24.13995965
15.53718721
12.84727338
13.54344048
54.89717849
52.74444612
59.54531616
50.33610369
47.67056101
53.78312986
44.95815299
39.6853006
47.64930604
43.19135775
41.41946535
43.90453414
35.94506292
34.08110189
36.13585131
28.37399027
26.42203158
28.01535737
20.39618677
18.3576048
19.46543202
12.40043937
10.22684929
10.85959875
41.48073301
39.83724022
46.30777866
38.02541854
35.9814948
41.74521227
33.90168233
29.65498177
37.1641896
33.25100511
31.87248301
34.2044608
27.63505169
26.19961172
28.12386996
21.81685207
20.31828686
21.8076217
15.68414175
14.12120386
15.15382402
9.500694473
7.817058233
8.40327656
28.68590981
27.57528119
33.70934782
26.29617319
24.84855105
30.35304527
23.37840452
20.09996362
27.26459743
23.84460677
22.84161284
25.05859416
19.78104603
18.75186141
20.58055583
15.62323015
14.5540044
15.96976424
11.23823884
10.12888752
11.10964925
6.770627651
5.555388362
6.110114057
16.55091076
15.74378457
21.67947856
14.99717423
14.1490504
19.42854867
13.26901001
10.87680879
17.80239877
14.82368386
14.18349175
16.31984866
12.2489639
11.60604245
13.37075695
9.66835641
9.008397044
10.38110697
6.955355668
6.28192203
7.23542219
4.147278729
3.385795664
3.922339868
5.806891013
5.299225826
9.769342145
4.900055941
4.558378199
8.705124172
4.188518327
2.343522969
8.636577187
6.072314611
5.790907589
7.860362426
4.93901119
4.658728706
6.373285435
3.823671414
3.544890833
4.910015715
2.717862894
2.482230072
3.432812453
1.585780428
1.268212908
1.79334603
1082.804342
1093.147127
1084.607686
873.9018657
893.8525169
885.4907488
1088.708543
1075.196976
1054.857589
894.7323306
883.7604272
856.420384
1033.698731
1011.637584
1024.872266
990.0403448
1002.849498
994.3311561
1134.665791
1142.078155
955.8831224
963.3214554
976.9298194
60.74495277
824.1650136
790.0954233
794.4548289
899.4724099
864.4314473
891.633699
826.0712624
835.1760251
882.9795468
199.7030293
574.7923936
554.5523256
573.8738214
828.257356
847.513189
833.7028578
877.5725974
862.146774
841.6406949
885.808065
910.6116264
893.7582631
945.9386233
928.0375253
901.5695094
951.007162
982.8640937
964.2316604
1021.150821
1001.807479
968.1668227
745.7217871
766.8553723
757.6627848
786.3601019
776.4323202
754.0006916
820.3688183
798.8448084
810.1847683
779.7899759
806.8950692
796.5490549
827.7345577
817.3172183
788.3406158
874.2093172
846.2288498
858.650337
812.7043698
848.459404
838.1170151
869.7584633
858.9584233
820.5243413
933.1943333
896.9612599
910.3658851
1038.931408
1050.303924
1041.703947
1067.449069
1058.743637
1047.410248
1080.580865
1069.812819
1078.457402
658.3747608
680.46671
676.0819811
689.2226663
684.9242476
661.5442828
732.178187
708.66347
714.3970702
668.8759374
696.7639702
693.2106827
701.7933145
699.7061455
670.0824875
760.1576112
730.0238628
734.2476029
666.8794103
702.9472461
703.2448233
699.5529684
702.0161487
662.9635379
782.6111444
742.3449365
743.4387482
863.8540661
844.0196096
850.3902427
571.7561612
593.0151744
593.1696165
591.5971658
592.5355488
570.3444604
638.3851018
615.4284429
615.6657802
562.1944309
587.8247366
590.0474553
579.5678307
584.4046949
557.3680109
640.4661835
612.1139578
608.9594983
533.658727
564.8310675
573.1344537
541.2791759
554.3349126
521.7179774
625.1937776
588.8843082
577.737043
469.0857222
505.7216757
525.1149982
455.0256466
483.6887469
445.6984256
571.5158895
525.1374937
496.0769548
343.438375
383.198035
415.2869422
335.9770906
301.7148909
418.7146574
376.4668518
491.8345441
510.9715716
514.795676
501.8310299
506.6976375
486.7506381
548.6083527
527.3442858
523.4127496
467.149192
489.6540453
496.2168336
472.7684705
481.9129473
458.593683
531.3057626
506.1920038
497.900916
424.0721245
449.3467316
461.9855136
417.7511352
434.648533
409.0053012
490.9840475
462.0000506
445.5652656
351.8744695
377.2520584
398.6535532
325.5225731
352.9972517
328.0492692
411.2885378
380.5550235
352.318916
240.6675169
261.7741981
294.3233196
229.5429333
211.1848882
273.8579871
250.2712554
422.0803457
438.5013566
444.8884127
423.8021022
431.4779758
414.6359787
467.5452345
449.1136244
442.0102122
387.8881289
406.1091582
415.3868557
384.4544621
395.8404151
377.2499976
436.4673508
415.5669413
404.5613796
338.7324768
357.8749771
371.8319169
325.7376511
342.5176835
323.4489176
385.1740608
363.0579084
346.1074113
269.9784513
287.887838
307.5758105
242.295148
265.843555
248.5804732
305.3701049
284.7114625
260.1373219
177.4605012
190.708535
219.2793541
167.2924272
155.365183
194.9191511
180.3969927
362.3895605
376.4368989
383.922612
359.4146699
368.2871164
354.1073632
398.5263533
383.0871498
374.3680492
324.9325384
339.3242223
349.7741285
315.9054575
328.0363042
313.6397907
359.7726849
343.380687
331.3390125
274.8286573
289.031612
302.9109815
258.6731157
274.2735657
260.3092377
305.7700286
289.4031481
273.4627824
211.9228606
224.5910806
242.2202915
185.3007022
205.1100216
193.0596959
232.7807294
218.3240953
197.6698104
136.4661185
145.2161559
167.3146288
125.2556304
116.838384
144.4540613
134.4435256
311.5887478
323.5153424
331.39081
306.0126591
315.0678093
303.1459224
340.5238617
327.519626
318.4567685
274.2784285
285.9874086
296.3260421
263.3028564
274.9814488
263.4242768
300.0419367
287.1731348
275.3144923
227.1937649
237.9839326
250.9604436
210.3320603
224.4301551
214.0109728
247.4430829
235.5431373
221.0343514
170.9518495
180.0770039
195.6016831
146.4384172
163.3533727
154.9477937
182.1105333
172.2670058
154.6187894
107.9735826
114.2051656
131.4818232
96.00166616
90.69899089
109.1588466
102.2055961
268.4720456
278.6005652
286.4103688
261.5386242
270.3162135
260.2760032
291.7285995
280.7933371
271.9154666
232.8668628
242.4705541
252.2583645
221.3871556
232.1764277
222.783877
252.4622664
242.0581652
231.0278964
189.9208532
198.4425245
210.1276894
173.925204
186.3808397
178.226891
204.2270439
195.0323952
182.1733262
140.4298471
147.3088488
160.9311117
119.3880405
133.2929244
126.969137
147.1930062
140.0179473
125.4149814
87.1657328
91.78919751
105.9946423
76.60029857
72.5469717
85.73273491
80.99910786
231.7758791
240.4107673
247.8737506
224.3181335
232.5619149
224.0612446
250.650428
241.4184403
233.0252051
198.6911284
206.6493572
215.6790982
187.471018
197.2396604
189.5135407
213.8493182
205.3428729
195.3142493
160.1538024
167.0097449
177.3794879
145.4107363
156.3720639
149.8501658
170.5302443
163.2553023
151.9365394
116.8180559
122.1987943
134.0392313
98.6426584
110.2380595
105.3113618
121.0355298
115.4690723
103.3521743
71.52870164
75.06912487
86.91938365
61.98512495
58.91153471
68.78465698
65.27069484
200.3812515
207.7865931
214.744233
192.9343591
200.5179094
193.26935
215.8981382
208.0558156
200.3001062
170.1810757
176.8486299
185.0411839
159.6450529
168.3738614
161.9399764
182.1413421
175.1014311
166.1145182
135.9424361
141.557678
150.6990881
122.5710059
132.1993098
126.881316
143.6630301
137.7866178
127.838628
98.08162911
102.3894094
112.6404294
82.32967413
92.12934256
88.20187502
100.6647067
96.27739061
86.06812729
59.30935744
62.10430349
72.12109803
50.79341706
48.40569902
56.03264486
53.33149749
173.3516313
179.7417414
186.1129455
166.2451665
173.1193994
166.8932242
186.2956478
179.583518
172.5302504
146.1382283
151.7836407
159.1283502
136.5050076
144.2329142
138.8123544
155.7825494
149.8854139
141.913178
115.9130841
120.5865952
128.6233569
103.9361083
112.3689233
107.9614746
121.8145517
116.9823186
108.2628157
82.89913873
86.4164953
95.27950018
69.21691144
77.58939513
74.39722304
84.47893963
80.94616637
72.24560674
49.53631035
51.78865684
60.37067374
42.03271712
40.13968508
46.15660229
44.03556385
149.9366675
155.4870437
161.2486572
143.3595077
149.5235665
144.1355872
160.8923271
155.1059841
148.7657469
125.6549468
130.4834882
137.0070226
117.0106475
123.8109417
119.1922308
133.6098833
128.6132558
121.5888882
99.09893575
103.0428368
110.0911046
88.48348009
95.84738615
92.14214539
103.7464526
99.7120757
92.09215277
70.370207
73.29185883
80.94941482
58.48358305
65.70031151
63.06331829
71.35884484
68.4632043
60.97836442
41.58076851
43.42560558
50.85485308
35.04183512
33.51390986
38.34839795
36.65135691
129.5088018
134.3649903
139.5211927
123.5699328
129.0467204
124.3472046
138.9324945
133.9057405
128.2599645
108.0273655
112.1991469
117.948315
100.3835184
106.3401455
102.3609182
114.7470283
110.4659501
104.3061366
84.80056448
88.17044612
94.33005944
75.4806325
81.89181031
78.73605692
88.58681706
85.17274442
78.53330065
59.87048627
62.33238067
68.93642189
49.55256899
55.82820683
53.61676997
60.54471322
58.13546445
51.64131687
35.00599895
36.53932273
43.01142299
29.36398776
28.10940422
32.06177295
30.67999511
111.5571091
115.8365712
120.4073321
106.3121979
111.1365091
107.0058042
119.8005889
115.3993437
110.4154723
92.70714161
96.34629294
101.3772036
86.03987335
91.23183728
87.76841798
98.52147518
94.81404725
89.43783142
72.4987297
75.41045411
80.7686112
64.39634549
69.95521669
67.2362284
75.69919043
72.77428273
67.01099345
50.94708136
53.0503951
58.73323201
42.01441427
47.50011699
45.61617083
51.49553408
49.45835203
43.78565689
29.4979531
30.78864057
36.44482474
24.67688254
23.63138026
26.91255412
25.7695439
95.66016465
99.46127089
103.4745341
91.13370537
95.34581852
91.68466148
103.0009241
99.1161823
94.75482454
79.26140092
82.46721507
86.8370143
73.53531342
78.03241073
74.9871894
84.41779006
81.17424134
76.50945744
61.79671744
64.34040737
68.97336999
54.83339193
59.62775054
57.25843144
64.61199524
62.07743051
57.09955022
43.26225064
45.08229671
49.96091059
35.57627716
40.36721012
38.73928517
43.80199946
42.05356006
37.09596135
24.82699318
25.92658507
30.86097027
20.74878234
19.86393851
22.63002219
21.67001887
81.46687628
84.87172801
88.35829332
77.66445606
81.30542379
78.03194885
88.12701764
84.66903979
80.88894548
67.3452323
70.1969669
73.95879802
62.52098098
66.38404238
63.67960807
72.0334373
69.1672887
65.15097295
52.3842366
54.63078377
58.60501569
46.48504704
50.59107972
48.50303532
54.96496012
52.74386312
48.47223192
36.56365005
38.15723215
42.32452047
30.01334593
34.17427236
32.74919876
37.16637743
35.64579865
31.33224648
20.81766837
21.76600513
26.04275822
17.40598345
16.64571217
19.01314558
18.19451437
68.68518879
71.7613667
74.75021351
65.60225437
68.7106675
65.75759959
74.84419438
71.73844671
68.5002877
56.68082469
59.24278229
62.44418354
52.7192911
56.00117351
53.57490064
61.05008317
58.49178527
55.06915597
44.01513965
46.02120992
49.39428681
39.11226385
42.5945032
40.73334363
46.47635227
44.50786829
40.87512927
30.65541794
32.06762756
35.59523712
25.15031581
28.72637616
27.46215187
31.36784974
30.02758571
26.3087652
17.33195591
18.16080063
21.8278544
14.51785574
13.85453012
15.91198674
15.20320477
57.07563606
59.87899894
62.39987945
54.69837687
57.31082429
54.62246955
62.87541672
60.06080047
57.3275593
47.03962551
49.36491524
52.04819256
43.90384495
46.65037079
44.4505846
51.20974827
48.90237931
46.02595826
36.48922403
38.30113988
41.12237026
32.5237922
35.43615302
33.757585
38.92165394
37.15662794
34.10628506