/*--------------------------------*- C++ -*----------------------------------*\
| =========                 |                                                 |
| \\      /  F ield         | OpenFOAM: The Open Source CFD Toolbox           |
|  \\    /   O peration     | Version:  v2012                                 |
|   \\  /    A nd           | Website:  www.openfoam.com                      |
|    \\/     M anipulation  |                                                 |
\*---------------------------------------------------------------------------*/
FoamFile
{
    version     2.0;
    format      ascii;
    class       volVectorField;
    location    "2.61";
    object      U;
}
// * * * * * * * * * * * * * * * * * * * * * * * * * * * * * * * * * * * * * //

dimensions      [0 1 -1 0 0 0 0];


internalField   nonuniform List<vector> 
3019
(
(99.99952579 0.001208470961 -3.749070818e-21)
(99.99917121 0.004514133528 -2.692495738e-25)
(99.99835256 0.01082942598 -3.749351596e-21)
(99.99683133 0.02246931122 -3.736871963e-21)
(99.99968103 0.0189016714 3.622924741e-21)
(99.99830002 0.03308318418 0)
(99.99729714 0.05602843495 0)
(99.99688401 0.08880946053 -6.583004731e-21)
(99.99577037 0.1341113559 7.804640031e-22)
(99.99474674 0.1929551331 -5.327176072e-21)
(99.99429946 0.2616688939 5.527882061e-22)
(99.99519242 0.3295467229 0)
(99.99569466 0.002847711713 1.499449548e-20)
(99.992086 0.01119082612 3.751942208e-21)
(99.98440291 0.02784149646 2.625654731e-20)
(99.9711706 0.06016330833 -1.124743019e-20)
(99.97145822 0.08817233504 3.6463782e-21)
(99.95011254 0.1567799338 -2.968003733e-23)
(99.92138298 0.2661375237 0)
(99.90452711 0.3706612876 -6.540572948e-21)
(99.86736317 0.5667161094 -6.175499858e-21)
(99.83048466 0.826421197 -1.111292629e-20)
(99.80616659 1.138979786 -4.79026843e-21)
(99.81611692 1.461393353 -6.805821474e-21)
(99.98937671 0.002283602503 -1.496110637e-20)
(99.97931222 0.01101184019 -3.000782645e-20)
(99.95802121 0.0323929378 -6.751048627e-20)
(99.92290913 0.07489564106 8.988728407e-20)
(99.89965519 0.1324013735 -7.430111008e-21)
(99.83782274 0.247618431 -7.298689317e-21)
(99.749997 0.4310971143 -1.270023797e-20)
(99.69340707 0.6417625195 0)
(99.5747961 1.00491961 2.547031202e-20)
(99.45384658 1.500351622 -1.15035345e-20)
(99.3715398 2.140736046 -3.912746869e-20)
(99.42084991 2.834076749 -3.61889739e-21)
(99.98555352 -0.00188049737 -7.522344384e-21)
(99.96639274 -0.0005652866664 5.271093165e-20)
(99.92598765 0.01696058092 -1.507562691e-20)
(99.85976523 0.05807829421 0)
(99.80364715 0.1360824721 0)
(99.68022162 0.2804069774 -5.863703588e-20)
(99.505411 0.5173946102 -1.175630284e-19)
(99.35256643 0.8205478396 2.792548967e-20)
(99.08694152 1.334025147 4.248200237e-19)
(98.78332422 2.122608937 -6.654550036e-19)
(98.57548201 3.214154759 0)
(98.64855179 4.479933587 -2.315072797e-21)
(99.99260958 -0.01050277948 0)
(99.96291493 -0.02630577529 0)
(99.90096438 -0.02438010477 7.559817917e-21)
(99.79799767 0.004001968658 1.146579704e-20)
(99.69985502 0.08872717961 1.899243675e-20)
(99.49880339 0.2358886274 0)
(99.21404884 0.4840980738 0)
(98.9249711 0.8495749843 0)
(98.42022908 1.510678074 0)
(97.79798226 2.625424491 0)
(97.25475755 4.367693318 -1.522064019e-18)
(97.41720374 6.57484237 1.607394084e-19)
(100.0201363 -0.0238671284 0)
(99.97972159 -0.06680636656 0)
(99.89654811 -0.09289377984 -1.517326984e-20)
(99.75654137 -0.09305557979 3.077149084e-20)
(99.60538288 -0.01751327448 0)
(99.32516196 0.1025345633 0)
(98.91666031 0.3243430127 2.407464656e-20)
(98.45994399 0.7010357157 0)
(97.63372032 1.422609036 0)
(96.45003497 2.768159621 0)
(95.11236581 5.216537055 8.629972795e-19)
(94.78711193 9.110211459 0)
(100.0773973 -0.04167049641 3.695335188e-21)
(100.0273192 -0.1210633695 -3.720849129e-21)
(99.92544949 -0.1868358056 7.583213016e-21)
(99.75265137 -0.2303802261 -2.778894607e-20)
(99.54947982 -0.1831214087 7.736414293e-23)
(99.19489547 -0.1200536021 2.361610516e-20)
(98.67373585 0.03069500494 -4.875766701e-20)
(98.03199577 0.3541078721 9.466493398e-19)
(96.86603112 0.9704360804 0)
(94.93995839 2.213370489 3.962361072e-19)
(92.12195393 4.62572874 -3.516571448e-19)
(88.64563543 10.15061204 1.808623391e-19)
(100.1723664 -0.06305572161 -3.695727424e-21)
(100.1148076 -0.1864109596 3.72219093e-21)
(99.99898984 -0.301033516 -4.715931225e-21)
(99.80189888 -0.3998096189 -3.16109711e-21)
(99.55257909 -0.3979920548 1.345311093e-20)
(99.14155258 -0.4164195724 7.977188218e-21)
(98.53544364 -0.3784994869 2.925114528e-20)
(97.75004153 -0.1847507683 2.190119729e-21)
(96.32876488 0.1475771013 4.693900912e-19)
(93.87349572 0.7971854728 -7.378840623e-20)
(89.96920232 1.715776265 4.191548138e-19)
(82.98031152 2.946954976 0)
(100.3109453 -0.08670440793 -1.778737168e-21)
(100.2489408 -0.2587394162 -1.336016416e-21)
(100.1255687 -0.4278130115 -4.574907228e-22)
(99.91539538 -0.5888769734 1.381617798e-21)
(99.63164578 -0.6447219999 -2.503648623e-23)
(99.18915512 -0.7595036832 0)
(98.53915508 -0.856426753 3.302920667e-20)
(97.68581677 -0.8394351356 4.780837293e-19)
(96.17252052 -0.8669074036 0)
(93.67310041 -0.9238724379 -1.891451257e-19)
(90.25504598 -1.422628867 0)
(86.51325463 -3.256425581 0)
(100.496187 -0.1110137158 3.505334422e-21)
(100.4331582 -0.3330905036 5.282021799e-23)
(100.3093034 -0.5580086393 0)
(100.0984838 -0.7836270094 1.807875754e-22)
(99.79431765 -0.9036253548 -1.84425564e-21)
(99.34757231 -1.117809753 1.95325956e-21)
(98.69752815 -1.351410655 -6.078226809e-20)
(97.84654834 -1.515904152 -9.114072478e-19)
(96.38462253 -1.866677955 0)
(94.10775906 -2.410028352 -1.287155962e-19)
(91.39389223 -3.361471601 -7.928587698e-19)
(89.03025694 -4.754540779 1.575214873e-18)
(100.7279709 -0.1344193375 -1.726447959e-21)
(100.667198 -0.4045231952 1.740394209e-21)
(100.5493873 -0.6824666189 1.697608172e-21)
(100.3510553 -0.9703917047 -1.582129379e-21)
(100.0388633 -1.154931137 -1.818178178e-21)
(99.61304227 -1.460563704 0)
(99.00015381 -1.818423089 6.007132422e-21)
(98.19935475 -2.145289547 2.797793907e-20)
(96.861064 -2.747014443 2.935684847e-20)
(94.84373582 -3.582967382 2.861145818e-19)
(92.53521606 -4.65733572 0)
(90.53672553 -5.739703246 -7.05965362e-19)
(101.0030544 -0.1554948316 6.350389533e-21)
(100.9475351 -0.4684792038 0)
(100.8408619 -0.7915676993 -1.694300529e-21)
(100.6641387 -1.141398005 0)
(100.3527695 -1.381827462 0)
(99.9724228 -1.762409231 -5.406574546e-21)
(99.42472957 -2.223324399 -1.806388409e-21)
(98.70414958 -2.683792612 3.765782014e-19)
(97.52817047 -3.470997133 1.375443806e-20)
(95.75277925 -4.510987501 0)
(93.65846726 -5.716437734 3.157045628e-19)
(91.68772189 -6.804295216 -8.182404235e-20)
(86.02668692 -2.93245382 4.833209107e-19)
(88.80491088 -4.610201908 -1.195062166e-18)
(90.37766815 -5.625256622 3.521116507e-19)
(91.5415696 -6.654478411 -6.600310419e-19)
(83.18508004 4.295919967 0)
(91.09845216 -2.96017732 1.603595626e-18)
(89.0608622 -4.361765125 8.106829714e-19)
(86.95603074 -2.818109266 -9.220191828e-19)
(92.25656852 -4.366285747 7.395868068e-19)
(90.59887104 -5.459296699 3.527377917e-19)
(89.284378 -4.520138633 0)
(89.65816163 -5.158559048 -7.531612014e-19)
(88.90361747 -5.887219042 -6.88079948e-19)
(88.07289791 -5.474645894 -3.611294013e-19)
(93.37010409 -5.462806491 -6.617310692e-19)
(91.76793644 -6.503116236 -6.380386602e-19)
(90.75636047 -5.580387107 -3.451020111e-19)
(90.97841997 -6.100884663 0)
(90.01384272 -6.5582167 0)
(89.68383813 -6.214345547 -6.652290136e-19)
(91.91548977 -6.649580848 -3.073682155e-19)
(92.25058086 -7.276748241 2.505295292e-19)
(90.71365526 -7.841395476 0)
(90.39463696 -7.210020569 -4.873255862e-19)
(80.65779827 -5.373511247 0)
(85.18640245 -5.663763413 -3.196072724e-19)
(73.53702379 3.512373326 0)
(79.68334321 -5.010608077 0)
(87.96438859 -5.403909288 7.149797215e-19)
(87.19839993 -5.108083718 7.483720413e-19)
(88.01594663 -4.126859239 0)
(87.06058659 -5.238054248 -2.881903872e-19)
(87.83242657 -5.49993915 0)
(85.53880235 -5.590566936 0)
(86.93461511 -5.240095311 6.738853513e-19)
(89.61380941 -6.173452545 0)
(89.01182806 -5.925904163 -1.952315596e-22)
(89.85232936 -5.280743473 3.665073115e-19)
(88.84726157 -6.000493343 -2.58356273e-19)
(89.47252382 -6.230715758 0)
(87.88518848 -5.542216069 2.666449124e-19)
(88.79323659 -5.978717665 0)
(90.36568166 -7.168703872 0)
(90.03213841 -6.590758415 4.94155726e-19)
(91.11830537 -6.231323263 8.483322542e-20)
(89.87941976 -6.603550759 0)
(90.13921799 -7.192530522 4.959992048e-19)
(89.50534202 -6.254379678 0)
(89.86564381 -6.5719075 0)
(90.73392698 -7.892479521 4.74063174e-19)
(92.33272654 -7.361765884 0)
(90.34917175 -7.901312197 4.857437764e-19)
(90.16637006 -7.233208241 -1.003054123e-18)
(90.34179563 -7.853030499 1.514138267e-20)
(90.03426038 -0.7600276643 0)
(86.54931775 -2.455947045 -4.824285787e-19)
(84.38010278 2.894078867 5.276439782e-19)
(83.82505162 -0.5359453998 4.411884208e-21)
(80.23191205 -4.07222397 0)
(75.44838315 3.594487179 0)
(87.69964185 -3.947898716 0)
(87.06262723 -5.100039738 -3.682839415e-19)
(85.54318053 -5.244456896 -1.406504667e-20)
(85.17186452 -5.252608356 2.162872017e-18)
(81.05332907 -4.477153906 0)
(84.36406982 -1.356551174 -1.596879001e-20)
(83.57165399 -8.122504862 -4.269279296e-19)
(60.50893721 4.205603948 0)
(69.55311808 -9.182975953 0)
(80.43905515 14.9904916 0)
(73.63204223 5.534481318 0)
(90.59567511 -7.515411751 -5.101952212e-19)
(91.4452304 -7.348876445 5.706660165e-19)
(91.66864723 -7.607730161 -2.804818609e-19)
(80.14711875 -10.3010463 1.161154341e-17)
(83.22896053 -8.383686835 0)
(83.065765 -5.786436011 4.924801566e-19)
(83.34933632 -8.143613895 0)
(80.13148931 -9.512154528 0)
(84.9220096 -6.705649221 1.498559194e-18)
(83.66591497 -7.922875098 -1.586408871e-18)
(83.69950014 -5.78717852 -9.375761226e-19)
(75.40931371 -1.656725268 0)
(70.38855841 -7.654862907 -6.496575396e-19)
(63.08555843 4.135166004 0)
(79.38758353 -9.573089564 -4.787746756e-19)
(71.74453219 -8.384782439 3.270455154e-19)
(76.46712812 -2.888015692 0)
(71.15230089 -9.889476212 1.60818337e-19)
(79.45939831 -10.34050057 -2.582744052e-19)
(87.44800495 -5.27077082 5.342134188e-19)
(85.98698755 -5.501890115 -4.081257978e-19)
(87.49609666 -5.292789951 0)
(86.28994062 -5.366514809 1.957635961e-19)
(85.65749663 -5.852042471 0)
(85.0067318 -6.579345098 3.930696597e-19)
(85.97425394 -5.503813845 8.143909625e-19)
(85.70840787 -5.760355268 0)
(86.47843437 -5.315361515 1.947976412e-19)
(89.18090535 -6.098325528 0)
(89.22241116 -6.117187213 2.60045574e-19)
(88.30650517 -5.788826485 0)
(88.369259 -5.823976908 0)
(90.01527856 -6.86970604 0)
(90.03423994 -6.905169609 -2.619419067e-19)
(89.70824046 -6.386518458 0)
(89.73183782 -6.408715924 -4.947862592e-19)
(91.74745288 -7.698040176 5.60747654e-19)
(90.32761085 -7.481594732 -5.309752037e-19)
(90.34039152 -7.522141261 5.357200887e-19)
(69.24613159 20.43767481 1.227914001e-18)
(60.52145999 6.968309896 0)
(89.85995447 -6.386696749 -4.81532981e-19)
(90.39266298 -6.199639288 -9.306112817e-23)
(90.58420483 -6.374833102 0)
(90.10928193 -5.992309177 0)
(90.3253375 -6.145450406 2.985530836e-19)
(89.83392878 -6.365752563 0)
(91.16511562 -7.025377454 2.899613521e-19)
(91.37440132 -7.265439795 0)
(90.57622707 -7.472937713 1.637772055e-21)
(89.38597986 -6.062951303 -8.413920503e-20)
(89.7855159 -5.799068954 -6.141161049e-19)
(90.03246381 -5.94281657 3.025557634e-19)
(88.91699788 -6.302275972 6.056706516e-19)
(88.85084784 -6.246927336 0)
(89.37272676 -6.178222955 -5.253817067e-19)
(90.21110894 -6.886526226 0)
(90.89840743 -6.719329807 -8.787097083e-19)
(91.09675929 -6.946904402 -2.893275529e-19)
(90.64606532 -6.439130197 0)
(90.83407652 -6.64617942 2.92688386e-19)
(90.18775905 -6.849126079 0)
(89.92618524 -6.714975404 0)
(88.8414076 -6.70128444 1.509924948e-18)
(88.86182272 -6.558998879 0)
(88.06728083 -7.120289773 0)
(88.06503344 -6.995881965 -1.79379304e-18)
(90.07164003 -7.059765434 0)
(89.60134508 -6.30983884 0)
(89.01052213 -6.384191611 -6.151336407e-19)
(88.94365629 -6.324194064 0)
(88.87327275 -6.530225118 5.810832019e-19)
(88.88587569 -6.479338406 0)
(89.81837207 -6.493495907 5.03652821e-19)
(90.24999443 -7.34391998 5.121156008e-19)
(88.21218996 -7.274756885 0)
(88.08684503 -7.174565238 1.290698541e-18)
(88.12918414 -7.62987034 -8.115979758e-19)
(90.37719237 -7.723120862 1.301873952e-19)
(84.2200168 -7.435772199 1.169983611e-19)
(84.4260837 -7.283096203 -3.349733046e-18)
(63.04381819 -3.536744507 -3.288656462e-18)
(64.52639081 -5.472896442 2.676087285e-20)
(81.72164818 -9.425104845 4.5884955e-19)
(82.1403081 -9.117301552 -2.322963735e-18)
(82.26392119 -8.776092394 1.589725835e-18)
(82.11664483 -7.289473299 0)
(83.33701917 -7.088618261 0)
(80.02134677 -7.307505336 4.578441032e-19)
(81.64514312 -7.331181205 8.243115324e-19)
(81.82604848 -8.99734054 -7.826672104e-19)
(84.57892408 -7.181347339 3.206342875e-18)
(84.69186491 -6.572242394 0)
(85.2205183 -6.274789346 1.914442597e-19)
(83.67864094 -6.997223009 0)
(84.47941962 -6.67903574 0)
(84.37010054 -7.327474065 0)
(76.61027413 -9.663178345 0)
(77.19975874 -6.824610987 0)
(79.38594373 -7.240330651 -4.714113074e-19)
(75.38167029 -10.8795799 1.06725777e-18)
(76.61334626 -10.85324215 0)
(86.15932029 -5.485857299 -5.387149733e-19)
(86.88647452 -5.418354563 0)
(86.95216697 -5.42783166 8.848800437e-19)
(86.69558091 -5.428556851 3.273739241e-19)
(86.84313532 -5.420054281 0)
(86.11680001 -5.513339121 4.137687256e-19)
(87.06997256 -5.552814437 5.989763527e-19)
(87.16362633 -5.689937462 -6.138743155e-19)
(86.96526418 -5.447180066 -8.855184381e-22)
(87.04285208 -5.520183446 -1.186665773e-18)
(85.4322395 -6.112451762 4.013503446e-19)
(85.85719154 -5.868286986 -1.232638272e-18)
(86.13515188 -5.683891565 0)
(85.36593436 -6.184814337 0)
(85.74839952 -5.940929573 0)
(85.35041542 -6.221506241 0)
(85.85394547 -5.623642795 1.622684528e-18)
(86.47653175 -5.497146095 0)
(86.64607705 -5.438000369 6.514798113e-19)
(86.21329473 -5.632431366 -6.279345569e-19)
(86.41370995 -5.522741629 -6.38533328e-19)
(85.79271383 -5.646923173 -1.623069791e-18)
(88.22025896 -6.195700792 -5.868264736e-19)
(88.31862945 -6.232522138 1.195867487e-18)
(88.07764824 -6.225779659 1.402185791e-19)
(88.19534593 -6.195131775 -5.831196629e-19)
(88.46016808 -6.24225114 1.234455325e-18)
(88.50563034 -6.302402295 0)
(88.35920204 -6.238918704 -1.202995352e-18)
(88.44681842 -6.236139462 0)
(87.46446173 -5.942987513 6.30079756e-19)
(87.67324603 -6.044994896 3.226114257e-19)
(87.20737082 -5.747720599 0)
(87.39542857 -5.902573341 6.266627151e-19)
(88.00246147 -6.168310392 3.272949104e-19)
(88.05720973 -6.214158878 -1.128914923e-18)
(87.74270197 -6.073302238 0)
(87.9447973 -6.146877392 5.907778164e-22)
(88.92894167 -6.873743845 -3.136953844e-19)
(88.85760288 -6.760134883 0)
(89.94644979 -6.755440092 0)
(87.87474562 -6.712899447 0)
(87.97646217 -6.811734472 6.982615462e-19)
(87.91366192 -6.473638737 0)
(87.85225639 -6.639845742 -1.371870291e-18)
(87.94996957 -6.834177077 0)
(90.06382367 -7.014546764 0)
(88.1955625 -6.957476556 0)
(88.90365156 -6.906636907 0)
(88.85978359 -6.443405674 0)
(89.02478923 -6.413027136 1.479416967e-18)
(89.63012464 -6.33247402 0)
(88.58435823 -6.412332033 2.938424533e-21)
(87.97283035 -6.403215794 -1.225571084e-18)
(88.53057342 -6.326883452 0)
(88.57312165 -6.38947718 0)
(87.96935556 -6.414805203 0)
(87.93760487 -6.448578159 -1.3443367e-18)
(87.95758758 -6.401067838 -9.628878935e-19)
(87.96937149 -6.408571378 -1.656635282e-18)
(89.79930245 -6.471169234 0)
(88.8827465 -6.468636555 0)
(88.85825524 -6.453446875 0)
(88.25557361 -7.341073432 0)
(88.23866804 -7.29052207 0)
(90.27430088 -7.377031228 -5.18120201e-19)
(90.37133667 -7.66769256 -6.706626192e-20)
(88.13459655 -7.56362261 -3.530484496e-19)
(88.2396849 -7.366209265 3.272673293e-19)
(88.54990396 -5.74098575 -6.360899575e-22)
(88.98561408 -5.383691821 -3.192144982e-19)
(89.3088822 -5.553120772 -3.121331246e-19)
(88.53677761 -5.125367173 3.25306057e-19)
(88.87434921 -5.321569383 -4.616525953e-21)
(88.42754346 -5.680697398 0)
(89.41114672 -5.605192017 -3.11740219e-19)
(89.69703348 -5.751424688 3.061974242e-19)
(89.3006067 -6.029025278 0)
(89.00134502 -6.040072426 0)
(88.54366769 -6.176645031 0)
(88.40213295 -6.167109419 -1.183317118e-19)
(88.36030789 -6.152887675 0)
(88.22033556 -6.107824401 -3.032647825e-19)
(88.6188385 -5.92594852 0)
(83.84659584 -7.831821917 2.241789145e-18)
(80.76377016 -10.06803532 -1.630450056e-18)
(79.88904272 -10.52465432 -2.887729971e-17)
(82.87286423 -8.610129181 0)
(83.01070381 -8.349358812 0)
(83.04898441 -7.967490898 7.54041141e-19)
(83.38819938 -7.789294919 -2.287343647e-18)
(84.8401974 -6.860406353 0)
(84.9685661 -6.717879507 -6.605538928e-19)
(85.09646834 -6.592436286 0)
(83.69947916 -7.605834743 3.762690495e-19)
(83.9771832 -7.424204682 -5.046842338e-21)
(83.94085748 -7.695271922 0)
(73.8959293 -5.111432024 0)
(76.40690189 -6.444337907 0)
(75.49416383 -9.570930436 -2.163067756e-18)
(72.65731779 -10.45846656 3.487970289e-18)
(72.46721688 -12.48411768 -9.579241314e-18)
(70.59515294 -11.4540246 -1.693861152e-19)
(79.33019802 -10.82469937 8.280451034e-20)
(78.59381972 -11.19006363 -4.730763941e-18)
(78.65388024 -10.52040129 5.099732277e-19)
(86.00193215 -5.417897705 0)
(86.35981929 -5.437238427 0)
(86.27982181 -5.444383684 6.490479721e-19)
(86.33780681 -5.503878069 -3.635415729e-19)
(86.37722535 -5.503030971 3.671173331e-19)
(86.01574957 -5.508055254 2.04964108e-18)
(86.24658569 -5.629576183 1.922920404e-18)
(86.24939002 -5.701712007 0)
(86.23098672 -5.458457966 -1.058426907e-18)
(86.22805852 -5.471364932 -3.690979078e-19)
(85.57920065 -5.948478471 0)
(85.82532218 -5.91731041 -6.861867049e-19)
(85.90248739 -5.838970047 2.150476529e-22)
(85.21671421 -6.484120565 6.644553541e-19)
(85.33893447 -6.383850646 0)
(85.1179848 -6.465392144 -4.021860029e-19)
(85.95928026 -5.528975617 4.055185258e-19)
(86.2711249 -5.537951215 -3.58513969e-19)
(86.30556334 -5.513038602 -1.084103588e-18)
(85.96471686 -5.763445948 0)
(86.01151054 -5.70444217 6.977459854e-19)
(85.73151383 -5.698465505 0)
(88.69351678 -6.213864957 5.659277275e-19)
(88.58090917 -6.182017461 5.544868872e-19)
(89.04834072 -6.058658619 -7.756215285e-19)
(89.3378082 -6.158035875 5.228362707e-19)
(88.82846509 -6.237098246 5.841554548e-19)
(88.73280243 -6.221830834 5.691797494e-19)
(87.89188878 -5.983827712 -6.098766636e-19)
(87.68962498 -5.881236895 -6.005140554e-19)
(88.11856362 -5.693616027 2.073014457e-21)
(86.71487022 -6.103542824 -3.827292681e-19)
(86.78341274 -6.131415731 -1.150558484e-18)
(86.27365023 -5.798644039 -3.859578126e-19)
(86.33525876 -5.887570619 -1.154611718e-18)
(86.89492993 -6.245217664 0)
(86.8506024 -6.155994859 2.46300069e-21)
(86.91589227 -6.177309088 1.533869043e-18)
(88.55809027 -5.897963486 5.318148899e-19)
(88.15929329 -6.087389686 0)
(87.95974939 -6.012882911 0)
(88.84092804 -6.6437338 -2.982828754e-19)
(89.37374347 -6.67693455 0)
(89.38106335 -6.724647015 -5.7512952e-19)
(88.0545193 -7.076725727 0)
(89.17704183 -7.155364884 0)
(89.19345571 -7.192206485 0)
(89.17681575 -7.072396085 0)
(89.16439051 -7.118642321 0)
(88.04035004 -7.036990152 6.274434955e-19)
(88.42295156 -7.793931055 0)
(88.42162194 -7.818235193 0)
(88.17150071 -7.254532949 0)
(89.27393196 -7.308660989 0)
(89.30458321 -7.334009984 1.118050294e-18)
(89.21299186 -7.234142525 -1.096142759e-18)
(89.24066944 -7.275552633 -1.100898486e-18)
(88.12382607 -7.223142274 -1.29678095e-18)
(88.57766429 -7.762676291 -1.04555723e-18)
(88.45096381 -7.775848073 1.146055107e-18)
(89.28141274 -7.728130346 0)
(88.76936364 -7.740318361 0)
(87.72491135 -7.661320731 1.201678145e-18)
(84.04257142 -7.59953927 0)
(84.53524949 -7.053362811 -2.306134362e-17)
(55.50821342 -3.612714715 0)
(57.70570392 -6.576834342 1.77643614e-18)
(65.85505234 -12.96556973 0)
(68.06955462 -13.21637328 0)
(60.39694427 -9.03613844 -1.726031734e-18)
(63.2496835 -11.96674144 0)
(61.35843521 -12.90544693 0)
(81.26461683 -9.754023885 3.565698131e-18)
(82.51912167 -8.84100487 1.849340593e-18)
(84.6458619 -6.986829741 -1.448478446e-18)
(84.81997566 -6.854982952 6.821376558e-19)
(84.70830783 -7.024446784 9.760984893e-18)
(84.1681467 -7.492964956 0)
(84.22008957 -7.257226385 -3.841715995e-19)
(84.43809066 -7.111573053 0)
(75.35733411 -12.42642834 -3.473071862e-18)
(74.05284444 -12.63189322 1.087146389e-17)
(74.05348216 -10.76630564 -1.117292561e-18)
(70.11221123 -13.21504891 0)
(71.84817346 -13.22591323 0)
(77.71001167 -10.71668789 0)
(77.6904473 -11.6245776 0)
(76.58752868 -12.06948813 1.198254504e-18)
(86.51129068 -5.488945167 9.442939846e-20)
(86.53952009 -5.470783638 0)
(86.17640463 -5.443529375 0)
(86.06006697 -5.517407072 0)
(86.42398832 -5.504179657 -1.108937278e-18)
(86.47475961 -5.500930243 3.740851888e-19)
(86.2472174 -5.538252353 0)
(86.24734986 -5.576353023 -1.146537977e-18)
(86.23821458 -5.48744261 -3.76935121e-19)
(86.24441973 -5.509574071 -7.58453834e-19)
(85.66097659 -6.078861687 -6.838177731e-19)
(85.74408053 -5.993888148 0)
(85.50164769 -6.026957616 -4.034153697e-19)
(85.24181562 -6.344809341 -1.610659123e-18)
(85.45938438 -6.281426276 2.019352877e-18)
(85.5679043 -6.176752429 -6.844249304e-19)
(86.16381689 -5.608682798 -1.420236323e-18)
(86.223339 -5.574388263 0)
(85.91873945 -5.577657461 -1.211900875e-18)
(85.75323573 -5.664172557 1.619317696e-18)
(86.05481791 -5.664083157 -7.060424568e-19)
(86.1049497 -5.635698564 -7.085901436e-19)
(88.24700592 -6.205623291 0)
(87.52437505 -6.188830244 0)
(87.51111918 -6.177378074 -3.48452781e-19)
(87.59353855 -6.22180189 1.400533127e-18)
(87.55213098 -6.207834791 0)
(88.27992624 -6.219913565 -1.188327557e-18)
(88.11987075 -6.220969874 -5.672170064e-19)
(87.44854278 -6.232778029 2.367303295e-18)
(87.41572975 -6.260070009 1.946479157e-18)
(87.5040439 -6.179165107 3.463493543e-19)
(87.48608738 -6.199883599 -2.406362543e-18)
(88.1633325 -6.206099605 2.303997942e-18)
(88.47181121 -6.256607468 0)
(87.71894626 -6.211764582 0)
(87.72149187 -6.197438595 -1.408787212e-18)
(87.73479056 -6.266371839 0)
(87.72166352 -6.235707467 0)
(88.48617746 -6.277398111 0)
(88.39633895 -6.239647852 -1.207605827e-18)
(87.68149591 -6.21795583 1.39887516e-18)
(87.64009195 -6.224086885 1.399353477e-18)
(87.72239999 -6.194844831 -3.514531098e-19)
(87.71020594 -6.204633893 3.498591747e-19)
(88.42596895 -6.237125915 9.729636674e-22)
(86.57427592 -6.036405672 -1.154149743e-18)
(86.64480931 -6.072588731 1.534442422e-18)
(87.53369667 -5.980192616 -6.186590545e-22)
(87.20431541 -6.035428779 -2.006800193e-18)
(87.13296046 -5.999237393 0)
(87.34745578 -6.097055517 -3.365887611e-19)
(87.27613325 -6.067740859 0)
(87.60345734 -6.014129038 -3.190600015e-19)
(86.42070759 -5.947801162 0)
(86.50192515 -5.994178882 -3.837184116e-19)
(87.07907077 -6.23350591 3.030830943e-19)
(87.11767038 -6.237530838 1.973028071e-18)
(88.05775496 -6.197532456 -3.124603424e-19)
(87.72795812 -6.243947167 -1.72981729e-18)
(87.66678044 -6.218508613 3.507652214e-19)
(87.43601685 -6.272265939 1.934679814e-21)
(87.49386595 -6.261863927 0)
(88.05282982 -6.201031265 2.95477638e-19)
(87.81142411 -6.09922157 0)
(87.48720216 -6.148240207 -3.402375986e-19)
(87.41795415 -6.123898755 1.697776404e-18)
(87.61952364 -6.194413031 -6.942401712e-19)
(87.55409204 -6.171689971 1.720959587e-18)
(87.87901371 -6.123487218 -3.283614107e-19)
(86.97768535 -6.198594781 -1.918886409e-18)
(87.03865156 -6.216635633 1.91863164e-21)
(88.91244308 -6.842986071 -9.263912266e-19)
(89.44151537 -6.855272751 5.929890526e-19)
(89.45883296 -6.890760199 2.972579063e-19)
(89.39658444 -6.773538377 0)
(89.418901 -6.817494159 5.859325195e-19)
(88.88624995 -6.807423359 0)
(87.91958974 -6.760740543 0)
(87.95764339 -6.790447781 0)
(87.887436 -6.511466114 -1.361468579e-18)
(87.86126698 -6.564316952 1.370971767e-18)
(87.91443335 -6.841966468 0)
(87.49666567 -6.860794975 0)
(88.40110991 -6.927711987 0)
(89.34002564 -6.977308744 0)
(89.24131792 -7.016330273 0)
(89.45697593 -6.924512442 1.479846933e-19)
(89.45104382 -6.970466177 0)
(88.88881319 -6.941375802 0)
(88.20615685 -6.397720888 0)
(87.44726818 -6.348896384 0)
(87.78278716 -6.347261944 -1.743327272e-18)
(88.06403879 -6.404056418 0)
(88.55619902 -6.348125064 0)
(87.78505888 -6.311107987 0)
(87.75902121 -6.292568826 0)
(87.7936996 -6.342974031 3.773485188e-19)
(87.80509334 -6.325229601 3.61784266e-19)
(88.5794488 -6.367439699 -1.302311554e-18)
(87.96568843 -6.42224165 0)
(87.9553691 -6.432375172 -1.338662447e-18)
(87.96441448 -6.400922247 -3.274205968e-19)
(87.96830882 -6.403690502 3.294452269e-19)
(88.2591017 -7.322582756 0)
(89.35009175 -7.40279366 0)
(89.35209714 -7.431055094 0)
(89.32714544 -7.356026158 0)
(89.34181635 -7.378294404 0)
(88.25320724 -7.305982254 0)
(88.17850573 -7.471017653 0)
(89.32248442 -7.571860118 -6.065899808e-19)
(89.2839488 -7.648719106 3.294635633e-19)
(89.34741806 -7.465675563 -2.352223586e-18)
(89.33559117 -7.512058085 0)
(88.21140354 -7.409274203 -3.334145099e-19)
(99.76038896 0.5803346173 -1.317005689e-20)
(99.6952191 0.8120613064 6.329104811e-21)
(99.89556277 0.5052224628 6.369602493e-21)
(99.66834429 0.9027249317 -1.897474717e-20)
(99.60196337 1.218519644 -5.97220015e-21)
(99.86633312 0.7471460125 -3.579958413e-22)
(99.57621046 1.337831887 8.770266834e-21)
(99.53092696 1.738602906 -3.314777999e-19)
(99.84722752 1.047249612 4.789366889e-21)
(99.5158741 1.884297669 -5.793414391e-19)
(99.53672821 2.330896374 4.823905702e-19)
(99.85675218 1.373170973 -1.925074217e-21)
(99.5526789 2.472745583 -4.815296034e-19)
(99.44794021 0.7871895014 -1.387619594e-20)
(99.28519118 1.12847959 -1.364569808e-20)
(99.60740167 0.9025447723 0)
(99.22592568 1.264773904 -3.344415462e-21)
(99.04026555 1.768752891 0)
(99.48508261 1.363245058 -1.211466402e-20)
(98.97904984 1.972376118 5.500537087e-19)
(98.83947522 2.674724265 1.365394399e-18)
(99.38733138 1.969079431 -6.651881617e-19)
(98.81356789 2.935419316 -3.958231864e-20)
(98.8322322 3.764693167 1.125514462e-18)
(99.39468492 2.665140014 0)
(98.88104044 4.035656132 -6.333286385e-20)
(99.03747392 0.8591356511 4.501374987e-19)
(98.72412953 1.296451766 0)
(99.15869838 1.185547681 1.357372224e-20)
(98.60198654 1.486379706 0)
(98.21065928 2.21493151 -1.961551695e-19)
(98.85793212 1.895193509 7.664645443e-19)
(98.07876234 2.518261117 1.360584777e-18)
(97.72669133 3.641279242 -1.509875636e-18)
(98.60967753 2.915072433 0)
(97.64951464 4.081724525 2.324215909e-20)
(97.68162371 5.516246268 1.627106382e-19)
(98.59536581 4.165487581 0)
(97.8135052 5.991521733 1.094373258e-18)
(98.5764381 0.7562758675 -3.546752979e-19)
(98.04275606 1.252882088 8.829855708e-19)
(98.56377756 1.306711476 0)
(97.83509874 1.474228256 -8.65018652e-19)
(97.09871059 2.377084911 4.139023168e-19)
(97.95924891 2.293714974 1.828541085e-18)
(96.81768417 2.786569755 0)
(95.97616402 4.403995313 0)
(97.35647823 3.871333092 1.525139561e-18)
(95.741851 5.081933159 1.184587924e-19)
(95.48874617 7.553746487 0)
(97.26413338 6.017593739 -3.37405525e-19)
(95.66050179 8.475050207 -1.946858253e-19)
(98.13038269 0.4596552504 -2.613308859e-21)
(97.36489888 0.912668592 -9.121078722e-19)
(97.86646716 1.200161229 0)
(97.0441427 1.121767308 -4.614802003e-19)
(95.80827922 2.021409239 -2.440427867e-19)
(96.78077625 2.346476196 8.851115096e-19)
(95.30400443 2.436561419 1.314485395e-19)
(93.54168188 4.177992257 3.604153348e-20)
(95.41862856 4.478225614 -9.47037315e-19)
(92.89572719 4.988728378 0)
(91.06863574 8.5644228 -6.916522959e-19)
(94.65004271 8.008366112 0)
(90.67832259 10.40913073 1.349644802e-19)
(97.80000252 -0.03468011066 6.547853146e-19)
(96.84675535 0.246311767 2.349731459e-19)
(97.21446134 0.7743521694 9.190566645e-19)
(96.42610651 0.3816361847 -3.627296823e-19)
(94.76484837 0.9546365825 0)
(95.50520183 1.818324503 -2.573685027e-19)
(94.06247927 1.210118067 -7.071454445e-20)
(91.39693967 2.193714712 0)
(92.90830198 3.858344444 -3.291183719e-19)
(90.27424885 2.596110702 -4.130312277e-19)
(84.57050332 3.995624709 0)
(89.53715618 8.208133002 0)
(86.24496116 8.483678311 0)
(83.84791893 13.31428177 0)
(88.97919614 13.53716301 0)
(97.68014634 -0.6698077052 -4.189114445e-19)
(96.63821631 -0.6320843754 -5.474650436e-19)
(96.76610888 0.03862353224 4.963405174e-19)
(96.17400466 -0.6080948254 -7.95861605e-21)
(94.38295378 -0.5219570388 0)
(94.60243853 0.6023110919 2.806369682e-19)
(93.64704641 -0.5038430249 0)
(91.02818684 -0.611010091 0)
(91.12056394 1.475000013 0)
(89.85040376 0.8279551059 8.492513099e-19)
(88.57684896 0.8745897962 0)
(88.66006993 1.94155515 -1.198887271e-19)
(83.05940597 1.653446268 0)
(81.53112552 1.427360589 0)
(81.34015307 2.966489771 5.957724124e-19)
(97.78688452 -1.348812514 4.421168555e-19)
(96.75751965 -1.547798789 -4.879131316e-19)
(96.63820732 -0.863713283 -4.885481251e-19)
(96.30362193 -1.625556284 -5.012243771e-19)
(94.61846065 -1.930124167 0)
(94.39413737 -0.8926697353 -1.382634479e-19)
(93.96162767 -2.069798139 -3.803701295e-20)
(91.82137949 -2.676186832 -3.677729149e-19)
(91.17103749 -1.209842248 3.818507402e-19)
(90.51854645 -2.002316004 0)
(89.67526498 -2.322329049 1.117290276e-19)
(89.31291483 -1.704796167 -1.138256669e-19)
(86.95231229 -3.522962035 -4.546344354e-19)
(86.64636835 -4.020074991 -9.178330664e-19)
(86.15180312 -3.812226782 0)
(98.09518249 -1.994921712 -4.600603545e-19)
(97.13906015 -2.38651617 0)
(96.83100742 -1.767400922 0)
(96.72148079 -2.540744719 0)
(95.21204046 -3.095446922 2.720920677e-19)
(94.74164298 -2.245047205 1.437480665e-19)
(94.64114309 -3.315379601 1.497809212e-19)
(92.84391457 -4.080595957 3.416482364e-19)
(92.07087264 -3.073366054 -3.63330132e-19)
(91.68623795 -3.724489682 0)
(91.07119995 -4.044232054 -7.974255141e-19)
(90.74221585 -3.690224969 7.990236271e-19)
(89.24651042 -4.894526198 -6.820489191e-19)
(88.99729261 -5.204656009 0)
(88.6617924 -5.008853092 6.340493525e-19)
(98.56580914 -2.559184115 -8.57971309e-19)
(97.71719241 -3.096423325 -2.738718913e-20)
(97.26766423 -2.57731125 -2.58266239e-20)
(97.34614009 -3.305684396 -5.726543707e-19)
(96.01365132 -4.028596096 0)
(95.39620421 -3.34910941 -1.320212484e-19)
(95.51091166 -4.298987714 -8.409134797e-21)
(93.90993478 -5.165909212 6.303952591e-19)
(93.10530775 -4.372275444 -7.853156499e-21)
(92.81172778 -4.934921321 -3.444792848e-19)