/*--------------------------------*- C++ -*----------------------------------*\
| =========                 |                                                 |
| \\      /  F ield         | OpenFOAM: The Open Source CFD Toolbox           |
|  \\    /   O peration     | Version:  v2012                                 |
|   \\  /    A nd           | Website:  www.openfoam.com                      |
|    \\/     M anipulation  |                                                 |
\*---------------------------------------------------------------------------*/
FoamFile
{
    version     2.0;
    format      ascii;
    class       surfaceVectorField;
    location    "1.45";
    object      Uf;
}
// * * * * * * * * * * * * * * * * * * * * * * * * * * * * * * * * * * * * * //

dimensions      [0 1 -1 0 0 0 0];


internalField   nonuniform List<vector> 
6464
(
(99.99797768 0.9021501929 1.230341494e-22)
(100.0009505 0.4516179729 0)
(100.0030808 0.442553343 7.082504441e-22)
(100.017795 0.8668350702 -1.349991964e-23)
(100.0043725 0.4235210791 1.227804822e-21)
(100.0051116 0.396645885 -4.732728874e-22)
(100.0301815 0.7624928036 -7.52958178e-22)
(100.0056663 0.3643371578 -1.377097731e-21)
(100.0060084 0.3287706957 8.227567442e-23)
(100.034432 0.6209798059 1.933637893e-21)
(100.006036 0.2919489961 5.057714326e-22)
(100.0058084 0.2555968428 0)
(100.0322661 0.4761629994 0)
(100.0054187 0.2210912403 0)
(100.0050584 0.1891945479 7.800401155e-22)
(100.0266265 0.3494654118 1.620845239e-21)
(100.0050493 0.1607272972 -3.948050912e-21)
(100.0048244 0.133701568 -1.474413457e-21)
(100.0215941 0.2430455889 3.194138972e-21)
(100.0040949 0.1106210269 3.193900621e-21)
(100.0030524 0.09141195617 -8.829860433e-22)
(100.0128257 0.1645713792 -4.404095684e-23)
(100.0009365 0.07770948624 1.72776442e-21)
(100.0076683 0.0739810395 -7.63900522e-21)
(100.0442116 0.1821503465 3.530892982e-22)
(100.0161871 0.1657692716 -2.709653207e-21)
(100.0027081 0.07657969627 -1.564645755e-21)
(100.005296 0.0424414047 -9.544712574e-22)
(100.0294951 0.1108160976 1.514219901e-20)
(100.004313 0.01977773686 -7.660201935e-21)
(100.0212935 0.05855860702 -1.614495525e-20)
(100.0186383 0.01836187941 1.326570971e-21)
(99.96321621 2.024272688 4.176449579e-23)
(99.99369889 1.813108948 -6.696218219e-22)
(99.96549248 2.278308756 -1.020156067e-21)
(99.98984848 2.054190068 4.176503381e-23)
(100.0670341 1.995417845 9.628247584e-23)
(100.0663377 1.755229238 -9.688953485e-23)
(100.0891746 2.212053591 1.312606371e-21)
(100.0893432 1.970667006 -9.714627338e-22)
(100.1447039 1.792716312 -3.114384237e-22)
(100.1113444 1.551644688 -2.463444429e-22)
(100.1745024 1.956405031 -7.777354234e-23)
(100.1559785 1.724882628 2.433914789e-21)
(100.1787658 1.484057877 2.603361654e-21)
(100.1277045 1.26716001 4.524804038e-21)
(100.2094342 1.59812893 4.520047642e-21)
(100.1793412 1.396454596 5.62862411e-22)
(100.1745014 1.149712211 -7.057362236e-21)
(100.1198463 0.9720467126 -6.558731077e-21)
(100.1999093 1.224007669 -2.381035233e-21)
(100.1680867 1.063953 -2.330545227e-21)
(100.1470016 0.8505230555 -5.47655101e-21)
(100.0961207 0.7144458357 4.971286988e-22)
(100.1630051 0.8954476162 -1.453688725e-21)
(100.1374675 0.7789206186 5.908688277e-21)
(100.0869264 0.4803090008 -1.345778237e-20)
(100.1398782 0.6572721048 -1.345673672e-20)
(100.1942509 0.7055668229 1.360198073e-20)
(100.1191234 0.5423986575 -2.745101494e-20)
(100.0996246 0.4448890632 1.180584723e-20)
(100.1373895 0.4712986756 -1.657477175e-20)
(100.0805446 0.3628272486 2.404019825e-20)
(100.0606418 0.3225344444 2.66940049e-20)
(100.0725388 0.2144427126 2.254689272e-20)
(100.1661726 0.3374177935 -1.667712604e-22)
(100.1291159 0.3847443155 4.769023601e-20)
(100.0760352 0.3038477804 2.565224438e-21)
(100.0510395 0.1236450528 -7.101546409e-22)
(100.1146837 0.2039043027 3.230921212e-20)
(100.0401881 0.0563792466 -7.531282549e-21)
(100.0847057 0.1078352631 -1.712585683e-20)
(100.0718173 0.03372036396 7.658802597e-21)
(99.91543634 3.75437451 -2.41848137e-20)
(99.85817217 3.993770472 1.134852703e-20)
(99.89159124 4.28458236 -1.740418004e-20)
(99.95899076 4.020192325 -6.202077786e-21)
(100.2573236 3.646036328 -1.914715608e-21)
(100.2531157 3.935330059 -2.497311791e-21)
(100.3383408 4.159587801 -4.807125517e-21)
(100.3386828 3.848555353 9.51519494e-21)
(100.4851027 3.183363163 5.767719459e-21)
(100.5322744 3.470746586 1.227433362e-20)
(100.631965 3.610286552 -1.190235047e-20)
(100.5739809 3.312724924 4.558587977e-22)
(100.5674782 2.564148881 3.150079542e-21)
(100.640401 2.809424192 -9.729286788e-21)
(100.7284238 2.881478149 1.992319277e-20)
(100.6457276 2.637166707 6.693572836e-21)
(100.5370958 1.939499216 -6.512181771e-21)
(100.6186193 2.137092186 -1.523924967e-20)
(100.6872586 2.168828554 -5.269381178e-21)
(100.5978925 1.976521995 5.771221529e-21)
(100.5195109 1.541201202 -1.801887467e-20)
(100.4464447 1.394258561 -1.212277538e-20)
(100.5687601 1.549152424 -1.213912343e-20)
(100.493183 1.410229309 6.4372971e-21)
(100.3420158 0.9131844229 -5.322759918e-20)
(100.4594403 1.118430769 -2.788308146e-20)
(100.5302188 1.097971252 -8.073338859e-20)
(100.3941581 0.9179333179 -3.835127541e-20)
(100.2450234 0.6062879668 -6.047487618e-20)
(100.3338992 0.7475268814 2.411250415e-20)
(100.3795893 0.7217790914 -2.870874948e-20)
(100.2786395 0.6042148689 -2.509549963e-20)
(100.2008961 0.3230881354 1.015674427e-20)
(100.3473488 0.4408142924 -2.575465394e-20)
(100.3312807 0.5396318182 -1.375164385e-22)
(100.2470252 0.4927772786 -1.475883851e-20)
(100.1432451 0.1852031492 1.514641433e-20)
(100.2443888 0.2637567667 2.689969392e-20)
(100.1121479 0.08394631282 -1.923556403e-21)
(100.1802319 0.1383834593 -3.878682314e-21)
(100.1509851 0.04296512597 0)
(99.765964 6.053960579 2.901375112e-20)
(99.60970886 6.328445533 9.223149448e-20)
(99.69900229 6.72443389 6.41490864e-20)
(99.86716292 6.399315761 2.007194884e-20)
(100.6712495 5.86889834 2.51121014e-20)
(100.6260432 6.250752082 -4.22744548e-22)
(100.821381 6.513631969 0)
(100.8440064 6.087781389 0)
(101.2385269 4.976578719 -5.484014421e-20)
(101.3128111 5.360115355 1.011877034e-19)
(101.510018 5.466292323 1.22150918e-19)
(101.4029179 5.066629996 -4.9230984e-20)
(101.3708614 3.836995362 3.51345588e-20)
(101.5031545 4.148135523 -1.264679788e-21)
(101.6483338 4.155554588 6.92823354e-20)
(101.4922389 3.849059141 1.55014717e-19)
(101.2486592 2.800770512 1.845808936e-19)
(101.3825057 3.024515899 2.166524958e-20)
(101.477341 2.985949204 4.873964074e-20)
(101.3301982 2.777562832 3.560955271e-19)
(101.1472128 2.123418303 0)
(101.0266328 1.962769426 4.850378801e-20)
(101.2078932 2.07966105 0)
(101.0795651 1.930552256 0)
(100.7561847 1.252296333 2.922265433e-20)
(100.9506075 1.469483597 1.89657232e-20)
(101.0155655 1.368596535 -1.647352609e-20)
(100.8108409 1.192823187 3.663949509e-20)
(100.5412467 0.8136727728 -3.332699735e-20)
(100.6856875 0.9599079233 -1.488568839e-20)
(100.7239065 0.8789781939 -1.502217325e-20)
(100.5757233 0.7651721836 -7.311215004e-21)
(100.3791475 0.3792583266 -9.375469694e-21)
(100.5729946 0.4703124185 -1.928748063e-20)
(100.6059053 0.6312919559 -2.557336575e-21)
(100.4984204 0.6071866472 5.702532333e-21)
(100.2707424 0.2144243396 7.732338774e-21)
(100.3997759 0.2769624723 1.173898097e-20)
(100.2102592 0.09611410896 -1.954779938e-21)
(100.2918069 0.1419291561 -3.448037996e-21)
(100.2416267 0.04348913672 -4.949473454e-22)
(99.36857611 9.110420806 1.375310796e-19)
(99.00515655 9.451659836 1.769364492e-19)
(99.19535196 10.08023806 2.077903468e-19)
(99.59201458 9.628591643 1.591755829e-19)
(101.4542085 8.777127253 -2.076724251e-19)
(101.3340359 9.349860344 -2.01438521e-19)
(101.7551505 9.673987819 -3.403127587e-19)
(101.8146852 9.016138653 -1.702305123e-19)
(102.614512 7.051837983 -1.398842714e-19)
(102.7539532 7.595459563 1.549732977e-19)
(103.1080257 7.611867884 1.053564386e-20)
(102.9001502 7.057432127 3.354043369e-21)
(102.7183966 5.064518291 -4.51656968e-20)
(102.9585813 5.4597253 0)
(103.1736442 5.347094892 0)
(102.8897442 4.973102557 1.014176673e-19)
(102.3137913 3.470718459 5.462964911e-20)
(102.5401633 3.721293094 -1.565805684e-19)
(102.6423143 3.597154251 -1.711069646e-21)
(102.4020935 3.369732231 6.751422529e-20)
(101.9999384 2.492443184 -1.475107344e-20)
(101.8253536 2.334384601 -3.793683023e-21)
(102.0539597 2.385178774 1.115318202e-20)
(101.8744215 2.248581371 2.250404621e-20)
(101.3036571 1.440600602 -9.361742005e-20)
(101.5814232 1.648025546 -5.922906321e-20)
(101.6157441 1.461473152 -3.313560202e-20)
(101.339701 1.315406124 -1.693780247e-20)
(100.9226252 0.9117180487 1.150401376e-20)
(101.1253633 1.041501745 3.474991593e-20)
(101.1338057 0.9078045102 -3.877814708e-21)
(100.9397984 0.816458613 -3.799739787e-21)
(100.5810076 0.3694448371 1.988127254e-21)
(100.8121317 0.4098063807 0)
(100.9148958 0.6150995367 -7.615276271e-23)
(100.7983526 0.6315861793 -1.033738799e-20)
(100.4101752 0.2021222483 4.411547488e-22)
(100.5575409 0.2330660574 1.987948017e-21)
(100.314122 0.08841329169 -1.991528004e-21)
(100.3990485 0.1129710488 -1.993745722e-21)
(100.3250145 0.03368647158 -1.995353098e-21)
(98.34986171 13.88622296 -6.694918636e-20)
(97.4822061 14.36083804 0)
(97.91372055 15.61705042 0)
(98.89362384 14.83647234 0)
(103.2071285 12.95576333 0)
(103.0091373 13.9710317 -9.955242538e-20)
(103.9951441 14.29204222 -1.804883217e-19)
(103.9850312 13.12792971 -2.831788018e-20)
(105.1610798 9.303836282 1.634446495e-19)
(105.4930203 10.08958787 -4.425425141e-19)
(106.0964295 9.843356259 2.427954668e-20)
(105.617252 9.090921131 -5.110119081e-20)
(104.8343693 6.047669923 -2.342741033e-19)
(105.2677917 6.510609747 -1.190127114e-19)
(105.4969977 6.201984499 2.681022346e-19)
(105.0168084 5.794531719 -2.594399937e-19)
(103.7793036 3.817964744 -3.598470842e-19)
(104.1337583 4.063678109 -1.200494967e-19)
(104.1974578 3.822375438 4.78830756e-22)
(103.8373328 3.615723854 2.031312659e-19)
(103.039154 2.544130726 1.570794493e-19)
(102.7907464 2.412209347 1.58761862e-20)
(103.0543423 2.372928975 -5.143400983e-20)
(102.8115193 2.264300906 -5.029074142e-20)
(101.9400275 1.422119379 2.719325252e-20)
(102.2910618 1.574933935 -2.242499972e-22)
(102.2624391 1.315715115 1.643980751e-20)
(101.9276787 1.231161452 1.225597031e-20)
(101.345994 0.8628705893 -1.606645405e-20)
(101.6030789 0.951849062 -8.178288238e-21)
(101.5570821 0.7740035181 -8.179872666e-21)
(101.3250323 0.7273377976 1.24152886e-20)
(100.7754352 0.2788722409 0)
(101.031396 0.2532458083 1.311098564e-21)
(101.2128799 0.4741459086 -1.097906226e-20)
(101.1067229 0.5487077199 2.726149574e-20)
(100.5352434 0.1420611769 -5.007974661e-22)
(100.6865026 0.1259117207 -1.551519785e-21)
(100.4010912 0.0583189727 -2.005522924e-21)
(100.4780001 0.04946515613 -2.26542349e-21)
(100.3800108 0.01307880807 2.569986546e-21)
(93.14658132 23.91083541 0)
(94.52542476 23.54101393 1.568442034e-19)
(93.61051032 25.72383567 0)
(95.299408 24.92545661 0)
(108.3093162 20.72133063 -5.315395165e-19)
(108.4388704 18.95685952 1.447194496e-19)
(110.0802123 18.47793268 2.011937603e-19)
(109.19336 21.48632819 1.582993793e-19)
(111.220442 20.18110358 1.328701891e-19)
(110.8480285 20.99579391 -7.707783632e-19)
(110.6220759 11.97612877 -3.834467718e-19)
(109.7518019 11.01304854 3.285321429e-19)
(111.2691829 11.10252003 -8.657467834e-19)
(110.23906 10.34413571 0)
(107.7794875 6.229387293 3.145804269e-19)
(108.5081548 6.65230012 -1.580768663e-19)
(108.618375 6.047574977 -1.704915237e-19)
(107.8707724 5.749509965 -3.218942174e-19)
(105.555015 3.562036063 -3.023462632e-19)
(106.0618648 3.743639799 2.919678498e-19)
(106.0166428 3.3724181 -4.540786449e-19)
(105.5263239 3.255088393 2.884204253e-19)
(104.1707117 2.155576263 1.10733109e-20)
(103.8443378 2.084306779 2.89962523e-19)
(104.1079766 1.92726097 2.284367455e-19)
(103.798335 1.876490004 2.878430436e-19)
(102.5683148 1.138468499 4.296747125e-21)
(102.980988 1.190714077 1.889937755e-20)
(102.8432436 0.8889047953 -2.452335409e-21)
(102.4812343 0.8985683728 -4.446124289e-21)
(101.7534448 0.6379542367 4.420525857e-21)
(102.0492292 0.6633240449 -2.230437951e-23)
(101.9332973 0.4589476563 -7.233471165e-21)
(101.6761812 0.4724466282 8.924874193e-21)
(100.9251276 0.105189224 -2.00629936e-22)
(101.1735005 0.004305707601 -2.828070593e-22)
(101.4591173 0.2040793864 8.395058038e-22)
(101.3750164 0.307944227 6.559381581e-21)
(100.6181537 0.03297834928 -3.320873277e-21)
(100.7545018 -0.04162900798 -2.468512089e-22)
(100.4482404 0.004731030764 2.490221469e-21)
(100.5045906 -0.04606796445 -2.200855017e-21)
(100.3844579 -0.01772804229 4.071309573e-22)
(125.5130609 23.93123408 -1.647841316e-18)
(123.6145418 22.85638055 1.244875993e-20)
(126.1710828 21.90455411 -8.285790259e-19)
(124.3315061 21.25711409 -1.493981049e-18)
(118.1250202 10.16957035 2.584505408e-20)
(116.4123775 9.688968359 -5.94260091e-19)
(118.0395437 8.552005342 -6.397504663e-19)
(116.4447821 8.449511994 1.688247324e-20)
(111.1236639 4.793543008 2.887413717e-19)
(112.144089 4.927044022 -8.010103737e-19)
(111.870468 4.120402148 -3.220978959e-19)
(110.9363528 4.135207163 -3.161716564e-19)
(107.3117408 2.457045143 1.796584743e-19)
(107.9320728 2.470905341 1.673650372e-19)
(107.6825388 2.038342216 1.682704349e-19)
(107.1209956 2.085669939 -8.915400435e-23)
(105.1788231 1.251115038 -3.801102506e-19)
(104.8036497 1.27490718 5.246540883e-21)
(105.0082264 0.9996293677 -3.024342142e-19)
(104.6675811 1.044038219 -3.68798376e-19)
(103.0736986 0.5729140515 -4.787753498e-21)
(103.5169605 0.5049537198 7.781151394e-21)
(103.2471252 0.2002227358 7.569927078e-21)
(102.8939513 0.3205429581 1.139274022e-21)
(102.0735213 0.2397183639 -1.995058e-21)
(102.3748344 0.1812647458 1.345166742e-20)
(102.1760683 -0.0149009152 4.978154903e-21)
(101.9288782 0.07234186229 9.869570293e-21)
(100.9913878 -0.1386803953 -3.42972353e-22)
(101.2075176 -0.3198647068 -1.049249616e-21)
(101.5897717 -0.1752817706 -1.062325043e-21)
(101.5537332 -0.02950784354 -1.168802047e-21)
(100.6319196 -0.1186176389 1.070329496e-21)
(100.7354658 -0.255913824 1.305026169e-21)
(100.4335955 -0.06755302663 -4.235582537e-21)
(100.4563661 -0.1665028397 1.658880725e-21)
(100.320717 -0.05673255079 -2.091388989e-21)
(139.039218 6.702622162 -1.860830023e-18)
(137.3125783 7.673677318 -1.275342777e-18)
(137.7250658 5.297553057 -3.584807543e-18)
(136.2836184 6.279094039 -2.428330939e-18)
(123.2756514 2.82779769 1.648878061e-18)
(121.5330994 3.497037799 -8.271494588e-19)
(122.0704673 1.503286871 1.380559825e-18)
(120.6942163 2.287620892 -1.37331737e-18)
(113.5401143 1.45632445 1.07986537e-18)
(114.5811831 1.107195012 -1.629046569e-19)
(113.8405099 0.4225593616 4.668880003e-19)
(112.972973 0.8371771365 2.097997746e-20)
(108.5146676 0.4968024749 -5.459005624e-19)
(109.1384201 0.2816793531 -5.481608712e-19)
(108.6693014 -0.08543792696 3.718314941e-19)
(108.1370155 0.1581424367 3.317641714e-19)
(105.7851116 -0.09947878795 8.312353988e-20)
(105.4184855 0.04150105145 0)
(105.4966773 -0.3130890127 0)
(105.1785022 -0.1654302963 0)
(103.3513275 -0.2173611473 7.548341185e-21)
(103.7740651 -0.4149018605 -2.390793755e-21)
(103.3762514 -0.6665848114 -2.378249668e-21)
(103.0702103 -0.4404809128 -1.1902013e-21)
(102.2234042 -0.2990419456 5.483914368e-22)
(102.4966303 -0.446540948 6.791780658e-21)
(102.2206538 -0.6038062412 5.584633274e-21)
(102.0101091 -0.4438251947 1.256198798e-21)
(100.9449578 -0.4320209322 5.454446371e-22)
(101.1041833 -0.6868191109 1.19758505e-23)
(101.5610793 -0.629068236 3.637668023e-22)
(101.5863754 -0.4536860906 -5.572390064e-21)
(100.5547449 -0.2994381469 2.010781925e-21)
(100.6102571 -0.4965556636 -2.217015778e-21)
(100.3392666 -0.1537955944 3.998684581e-21)
(100.3188893 -0.3011429895 2.257877975e-21)
(100.1756069 -0.1004490868 1.987927944e-21)
(135.5930216 -10.31112851 -1.370330792e-18)
(135.0530477 -8.987057075 -3.360600798e-18)
(134.1297648 -10.57146746 -1.146623346e-18)
(133.6801122 -9.324320413 -1.289371569e-19)
(122.781542 -5.704535696 -6.976585318e-19)
(121.7855534 -4.394827989 -1.420734049e-18)
(121.1563713 -6.155044559 -7.513954844e-19)
(120.4342202 -4.993545601 -4.157059991e-20)
(113.8682047 -2.76292531 2.343704002e-19)
(114.6119366 -3.473048681 2.324989173e-19)
(113.6116189 -3.771685079 2.340055852e-19)
(113.0281582 -3.110878085 -2.114470894e-19)
(108.7012904 -1.893469045 -2.671709429e-19)
(109.1872434 -2.298067823 2.175807681e-20)
(108.5754352 -2.484587226 -1.01392498e-18)
(108.1736101 -2.098534108 -5.56536352e-19)
(105.7794443 -1.654795371 1.820991196e-20)
(105.4822466 -1.414448711 9.843718879e-21)
(105.4078909 -1.780915238 4.635719029e-21)
(105.1576599 -1.551031231 -3.412138081e-19)
(103.31764 -1.129524256 2.011468517e-20)
(103.6657663 -1.437446885 -9.80148721e-20)
(103.1751018 -1.588233963 5.700652325e-20)
(102.9497901 -1.284073793 1.133368968e-21)
(102.1540287 -0.9184858197 0)
(102.369997 -1.142255587 -1.942004131e-20)
(102.0341252 -1.23212455 0)
(101.8835433 -1.014574395 0)
(100.7690592 -0.7451233677 -2.74911057e-21)
(100.8534458 -1.056363989 -7.212862787e-21)
(101.3539434 -1.103181439 2.154721442e-21)
(101.4447865 -0.9188690012 -3.552524944e-22)
(100.3739704 -0.4922213973 -1.988459934e-21)
(100.371679 -0.7391490955 -1.588320523e-21)
(100.1547409 -0.2455774946 2.475767364e-22)
(100.0862176 -0.4372513902 -1.354598253e-21)
(99.94393999 -0.1447558791 2.346450078e-22)
(126.1123556 -19.35682622 8.267890908e-19)
(126.2313236 -18.31536266 -3.45602147e-20)
(125.0234046 -19.01187041 7.632850711e-19)
(125.1287427 -18.07005475 -7.710891558e-19)
(118.4551849 -11.74444746 7.011241372e-19)
(118.2003034 -10.43252466 -1.333769947e-18)
(116.9801159 -11.49009406 5.461983994e-19)
(116.8432328 -10.38202485 2.788562618e-19)
(112.1822358 -6.406643589 3.294235793e-19)
(112.5335199 -7.213284779 -9.845929671e-21)
(111.5404641 -7.117925831 7.538309983e-22)
(111.286343 -6.416296165 1.077129432e-19)
(107.8253193 -4.100954262 3.719999603e-19)
(108.1174644 -4.587600271 -3.371472108e-19)
(107.4778834 -4.570008613 3.276992769e-19)
(107.2499029 -4.133950952 -3.347710221e-19)
(105.1518527 -3.113433378 -3.090036014e-19)
(104.9581856 -2.819154072 -3.052281997e-19)
(104.7497607 -3.133103672 -2.995996372e-19)
(104.5934454 -2.863354831 -1.473603887e-19)
(102.9521428 -2.02736107 3.693702528e-20)
(103.1876392 -2.405176306 3.6840215e-20)
(102.6561443 -2.432950024 -1.836041684e-20)
(102.529514 -2.088406379 1.850435043e-20)
(101.8554656 -1.535290207 -1.316301048e-20)
(101.995382 -1.811475276 5.652230707e-21)
(101.6279802 -1.820004293 -5.36736383e-22)
(101.5469859 -1.568250181 -1.366394254e-20)
(100.4620286 -1.044274018 -6.09842992e-21)
(100.4633876 -1.394981155 -1.161136554e-21)
(100.9750198 -1.544670414 -1.825345236e-21)
(101.1247417 -1.371095447 -5.25334653e-21)
(100.0883425 -0.6779845247 -1.132091404e-21)
(100.0262413 -0.9598434745 5.06442092e-22)
(99.87856523 -0.3342989027 -1.373381603e-21)
(99.76207356 -0.5625716032 3.984449409e-22)
(99.62860958 -0.1857113592 2.346486078e-22)
(116.3425627 -22.43355327 -1.037475762e-18)
(116.7399748 -21.72993808 6.067052852e-19)
(115.5955991 -21.83383828 1.021338918e-18)
(115.9898839 -21.21396936 2.255176502e-20)
(112.8280018 -14.59803179 5.072314065e-19)
(113.0508998 -13.5773309 5.278817756e-19)
(111.7294979 -13.93574263 -1.740992885e-19)
(111.9622106 -13.08999165 1.948139928e-20)
(109.3418185 -8.703567542 -1.574996521e-19)
(109.3781629 -9.416197627 -2.455832251e-19)
(108.5627475 -9.050111385 -1.069083369e-19)
(108.555597 -8.44847642 -1.288099615e-19)
(106.2200625 -5.703149603 5.048420054e-21)
(106.3244755 -6.164509475 -2.229860837e-19)
(105.7515137 -5.98421255 1.463713615e-19)
(105.6801297 -5.581512509 4.446594116e-19)
(104.0592269 -4.240010011 -7.186122686e-19)
(103.9717071 -3.944069574 -3.005836677e-19)
(103.6749038 -4.167048046 -3.866190185e-19)
(103.6105065 -3.899335068 -6.886875893e-19)
(102.2982832 -2.793356041 -1.729822773e-20)
(102.4106777 -3.190912783 -3.586294984e-21)
(101.8607569 -2.755353611 1.739632995e-20)
(101.3543725 -2.07837475 -3.408688997e-21)
(101.4111245 -2.37675926 3.285625628e-22)
(101.0329678 -2.043122636 -1.805649381e-20)
(100.0405526 -1.301092615 3.953835069e-21)
(100.6536557 -1.767788424 2.683953824e-24)
(99.70799285 -0.8401273299 1.844876058e-21)
(99.51809964 -0.4122919764 1.844666836e-21)
(140.2218627 8.276349027 9.006505202e-19)
(138.5085522 9.248801763 1.487840858e-18)
(139.5487533 10.98821014 3.355174876e-19)
(141.6359275 9.432186343 2.599311897e-19)
(141.4314902 10.48133576 -1.384118921e-18)
(124.6119095 25.74095952 5.899051605e-19)
(126.7721755 27.12604308 8.905062233e-19)
(127.6640578 24.68898964 2.895601552e-20)
(137.0771462 -9.918879569 1.682417928e-18)
(136.5348629 -8.599174087 -3.099174517e-19)
(138.0781956 -8.07696109 1.169250359e-18)
(138.4391797 -10.02154341 1.949723782e-18)
(138.8065211 -9.301994327 2.07857309e-18)
(140.5842227 5.613039398 5.659367465e-19)
(142.0482843 6.561719928 1.951566668e-18)
(141.9531461 7.598300095 1.967278844e-18)
(127.2440971 -19.66592142 1.924524942e-18)
(127.3664984 -18.6090262 1.071147955e-18)
(128.547773 -18.86175705 8.62078852e-19)
(128.2051419 -20.15138573 7.312652928e-19)
(128.6310427 -19.83877546 -3.537649656e-19)
(136.0007407 -11.61192703 2.226132848e-18)
(137.3220923 -11.78900694 4.86506897e-19)
(137.7213578 -11.12060595 -8.983910763e-19)
(117.1239144 -22.9925268 -4.636849193e-19)
(117.5193877 -22.3033817 1.18175008e-18)
(118.3477285 -22.83094347 6.080358976e-19)
(117.92296 -23.60684609 2.472383503e-20)
(127.0433011 -20.7329522 1.051722926e-18)
(125.9475677 -20.36618252 8.2071288e-19)
(116.6757011 -23.72125501 -1.047005299e-18)
(115.9132304 -23.0889917 -5.342060558e-19)
(92.74442392 22.34771387 -1.583198501e-19)
(91.3982788 24.26231162 2.645817876e-19)
(122.6314144 24.66278782 2.236664354e-18)
(121.4963572 26.22122785 1.374734179e-19)
(123.295868 27.91501722 -2.118417547e-19)
(106.9076236 21.08757197 -6.136577446e-19)
(107.0585122 22.00452394 -9.546138092e-19)
(108.153493 21.99302289 -5.230144662e-19)
(149.5418428 28.29375663 -4.221014985e-20)
(148.4609487 28.7519466 2.187457947e-18)
(148.9287463 29.58837108 1.133857161e-18)
(150.0193774 29.39192828 1.143641663e-18)
(129.1546653 42.66590003 0)
(127.5284458 44.68204481 0)
(129.7367955 46.71818696 0)
(131.4429083 44.09637246 -6.056750017e-19)
(135.7342714 8.530397287 2.975664257e-20)
(136.620755 10.05657596 2.310782742e-18)
(124.2295799 4.252137623 1.679343859e-18)
(122.5068053 4.989704251 -7.261436978e-19)
(123.1975201 6.524867279 0)
(125.3728295 6.057817538 2.440514969e-19)
(117.9686882 11.63042206 7.773004069e-20)
(119.9593007 12.28205977 9.354228821e-21)
(119.9817088 10.31618124 7.604906468e-19)
(150.8981269 -4.911473795 1.05624552e-18)
(150.6167272 -4.345587216 0)
(151.1784132 -4.141812171 0)
(151.5248561 -4.68420848 -1.152010474e-18)
(153.8850353 9.335453074 3.030601103e-19)
(153.3330146 8.839233716 3.000119617e-19)
(154.3908286 8.771037212 -3.124426244e-19)
(153.8004536 8.306144858 3.016727639e-19)
(134.4917655 -7.722536292 -1.161451995e-18)
(135.8726999 -7.278418059 -1.207269558e-18)
(124.3311576 -5.053729748 8.439767545e-19)
(123.3756435 -3.721699976 1.395961595e-19)
(124.848502 -2.859907592 1.674431462e-18)
(126.1660037 -4.295773454 8.445124105e-19)
(126.2640502 3.445167682 1.256752185e-18)
(124.8374533 1.865902683 -6.723372627e-20)
(137.121709 -21.80495577 -8.566721949e-19)
(137.3477143 -21.38777548 1.845114171e-19)
(137.6175519 -21.51748798 -2.223643787e-21)
(137.4721001 -21.90245545 -4.365737556e-19)
(144.6488961 -15.21317337 -3.172682277e-20)
(144.1942936 -15.26148009 -1.00474408e-18)
(144.6852261 -15.74994715 2.073887303e-18)
(144.2062163 -15.7466081 1.007090138e-18)
(126.2871264 -17.32984342 -1.709001409e-18)
(127.4313182 -17.52848663 8.384953302e-19)
(119.9636451 -11.83871646 6.360733189e-19)
(119.7424134 -10.53915629 -1.364618432e-18)
(121.298972 -10.47337781 -7.787228112e-19)
(121.6611629 -11.98540774 2.440972179e-18)
(125.3863782 -6.577172102 8.856390571e-19)
(123.5328372 -7.069088484 7.549534697e-19)
(124.0021305 -27.53165379 -1.390655193e-18)
(124.3220164 -27.05092448 6.75378712e-19)
(124.7729702 -27.35195666 -1.455311338e-18)
(124.4167658 -27.85585547 7.227667712e-19)
(130.3336019 -25.50014183 3.379275553e-21)
(129.8158438 -25.26018142 -8.512115355e-19)
(129.5199584 -25.83480318 1.69364237e-18)
(129.870374 -26.18138712 2.263996731e-21)
(130.1439286 -26.03357626 2.264169439e-21)
(106.1996797 -32.82570405 -3.409636144e-19)
(107.8868606 -33.04978225 3.145562829e-19)
(108.7098367 -33.0243747 -3.432847676e-19)
(107.7565149 -33.0343749 1.640071756e-19)
(112.2899571 -27.98246885 0)
(112.7838359 -27.68701765 3.120256403e-19)
(112.986653 -28.10515842 -4.145278973e-19)
(112.5775665 -28.41152412 0)
(118.0263791 -28.33701347 5.793773865e-21)
(117.6473825 -27.97027618 1.031545157e-18)
(117.6390691 -28.73386028 -1.038416324e-18)
(117.2961196 -28.35665458 5.025098255e-19)
(153.3774131 9.867895915 0)
(153.9311949 10.3880421 -1.166048677e-18)
(154.4785224 9.829597741 0)
(149.3934176 27.10616332 -1.562279372e-18)
(150.7227276 27.96579006 -1.184112254e-18)
(150.3536882 26.98657377 -3.203682139e-21)
(135.3153613 18.90134972 -1.402850251e-18)
(134.9644428 16.76960656 -1.137275196e-18)
(137.1213832 16.37098615 -2.252179377e-18)
(138.1837998 18.18756365 -1.502838903e-18)
(137.5303569 19.14297221 -1.503477776e-18)
(147.5528099 27.20918361 1.006679108e-18)
(149.8127582 26.20701233 1.569035099e-18)
(148.796774 24.81328974 0)
(146.9996863 25.34008619 0)
(152.8196877 9.371343697 0)
(152.269397 9.885407023 2.33761729e-18)
(152.8405452 10.39413776 0)
(144.6246213 -14.72590438 -1.426533151e-20)
(145.0821351 -14.66277746 -1.02889846e-18)
(145.1321749 -15.20031535 -1.031701195e-18)
(150.3268396 -5.100765903 -2.905732104e-20)
(151.2193701 -5.453620002 -8.730925364e-20)
(150.5954458 -5.668904284 2.113999128e-18)
(139.4568073 -1.762305618 3.763004499e-20)
(138.7608363 -2.324692613 -2.027043558e-20)
(140.1098152 -2.446371146 -1.158263339e-18)
(139.3499281 -2.861544719 1.095279082e-18)
(150.054401 -4.552372314 -1.060094814e-18)
(149.7608704 -5.293835824 -1.060167382e-18)
(149.5607771 -4.76865424 2.100818972e-20)
(144.1731297 -14.76517339 -9.763240835e-19)
(144.1745616 -14.27624946 1.00230999e-18)
(144.5950948 -14.22569405 3.05530924e-18)
(152.7938018 8.367046654 0)
(152.2632202 8.855901706 -1.174482716e-18)
(149.8339452 -4.027091882 0)
(150.3289161 -3.797258612 1.061690333e-18)
(139.0109555 -0.9569216269 1.57242299e-18)
(139.7479535 -0.6512188103 -1.13350659e-18)
(140.3339407 -1.269757166 -1.148856135e-18)
(130.6234179 -24.9151179 0)
(131.1523555 -25.14166168 2.285211664e-19)
(130.6929178 -25.84811278 0)
(130.9683931 -25.69064984 0)
(136.7332753 -21.72629033 -6.219451927e-19)
(136.9971709 -22.18388894 -1.706405493e-18)
(136.6857523 -22.08709594 -1.635919262e-20)
(132.4009952 -15.8217789 7.17789113e-19)
(131.0767246 -15.7797404 1.028489393e-18)
(131.128464 -16.95093885 2.012540174e-18)
(132.1997768 -17.3639521 1.341406425e-18)
(132.6582062 -16.90137236 1.341443556e-18)
(136.8450567 -21.05206332 1.032334432e-18)
(136.4242793 -21.96142107 1.610241159e-18)
(135.9509484 -21.62746969 -1.237840587e-18)
(136.1533908 -20.91023827 1.765295801e-18)
(130.1081752 -24.67181931 -8.528460889e-19)
(130.3381716 -24.07429658 0)
(130.9115278 -24.31682082 0)
(143.7492735 -15.28981322 -1.991666284e-18)
(143.7574832 -14.80777757 -2.950112406e-18)
(137.6543981 -21.13784911 1.792206167e-19)
(137.0368077 -20.31731772 -7.607703407e-19)
(137.8421082 -20.61177075 -9.657469198e-19)
(137.6586197 -20.25945001 1.893989076e-19)
(132.2761598 -14.60886532 6.908773579e-19)
(133.6481869 -14.56033724 -1.346772362e-18)
(133.5336872 -16.19005806 -2.141505831e-18)
(133.9873259 -15.67630149 4.032719836e-19)
(118.3717584 -27.94037875 0)
(118.7597049 -28.29897808 0)
(118.3773489 -28.70674488 -1.114075075e-18)
(123.5596981 -27.2252804 -1.342603779e-18)
(123.6427798 -28.02500761 -1.389237104e-18)
(123.2357404 -27.69268798 3.204379071e-22)
(104.8944956 -32.68267512 -3.430934887e-19)
(106.4956219 -32.89672627 3.043156718e-19)
(102.8066824 -32.32320334 5.146829551e-19)
(104.1549826 -32.52571193 -1.795400247e-19)
(102.0899818 -32.01778169 -6.800798756e-20)
(111.8753053 -28.25763105 0)
(108.6191294 -32.99316748 6.499138143e-19)
(155.3217795 52.05171318 0)
(154.1120267 53.87871241 0)
(153.7579861 55.06861701 0)
(154.9501645 56.13759643 0)
(128.4797788 65.7922698 -2.486136843e-18)
(125.9532918 67.79547855 -8.496962433e-19)
(128.3511868 71.19227591 -2.597117675e-18)
(131.1446026 68.21820037 -2.575932765e-18)
(122.2417695 -28.95770561 0)
(123.9385562 -29.08390658 3.335252438e-19)
(122.2794634 -28.82196654 7.864153672e-19)
(114.896726 -27.38418529 0)
(117.1066558 -21.07793378 5.840845565e-19)
(117.8890553 -21.56405991 6.040155623e-19)
(114.0100994 -15.15450506 -5.299735713e-20)
(114.2551104 -14.16562292 -4.366445815e-20)
(115.533144 -14.63019577 -5.325712015e-19)
(115.2927002 -15.83655837 6.17872191e-19)
(120.1412714 -13.29330944 -6.600932164e-20)
(118.5332948 -12.98264915 6.915938515e-19)
(103.33621 -31.45829924 -2.246444074e-18)
(105.8469494 -31.97603029 -1.170544239e-18)
(103.1568463 -31.31204084 -2.034895212e-18)
(95.3664278 -29.26152603 2.556771402e-18)
(114.4764296 -31.41828666 -9.846568137e-19)
(114.9838726 -31.02717647 -8.578254272e-19)
(115.2383753 -31.46060607 -2.330698474e-19)
(114.5480038 -31.77939088 -4.945079788e-20)
(114.793083 -31.84238488 -1.646652318e-18)
(117.6055242 -31.30095938 8.690762958e-21)
(117.4141492 -31.10626556 6.088518531e-19)
(117.3436052 -31.47059552 4.577673107e-19)
(117.2536801 -31.31131021 1.938092327e-20)
(127.1873073 40.91613137 0)
(130.533276 40.38631411 -1.585493467e-18)
(128.5614585 39.18268327 0)
(147.9066484 29.63576954 6.745414685e-19)
(145.6361678 27.59993381 1.006523564e-18)
(146.0456215 29.57865856 -3.71688626e-19)
(133.066074 19.02925327 8.520184991e-19)
(133.1292087 21.18704029 8.529234621e-19)
(136.130675 20.90930945 -8.911724963e-19)
(135.2889778 21.73818389 1.900811318e-18)
(117.92905 -31.04170481 -4.263858442e-19)
(118.0189255 -31.28901491 -1.387909657e-18)
(117.7202806 -31.46328093 -4.532602688e-19)
(120.5960705 -31.02930087 2.593855912e-19)