/*--------------------------------*- C++ -*----------------------------------*\
| =========                 |                                                 |
| \\      /  F ield         | OpenFOAM: The Open Source CFD Toolbox           |
|  \\    /   O peration     | Version:  v2012                                 |
|   \\  /    A nd           | Website:  www.openfoam.com                      |
|    \\/     M anipulation  |                                                 |
\*---------------------------------------------------------------------------*/
FoamFile
{
    version     2.0;
    format      ascii;
    class       surfaceScalarField;
    location    "0.65";
    object      meshPhi;
}
// * * * * * * * * * * * * * * * * * * * * * * * * * * * * * * * * * * * * * //

dimensions      [0 3 -1 0 0 0 0];
oriented        oriented;


internalField   nonuniform List<scalar> 
5999
(
0
0
0
0
0
0
0
0
0
0
0
0
0
0
0
0
0
0
0
0
0
0
0
0
0
0
0
0
0
0
0
0
0
0
0
0
0
0
0
0
0
0
0
0
0
0
0
0
0
0
0
0
0
0
0
0
0
0
0
0
0
0
0
0
0
0
0
0
0
0
0
-1.81910105e-09
7.533872836e-08
0
0
0
0
0
0
0
0
0
0
0
0
0
0
0
0
0
0
0
0
0
0
0
0
0
0
0
0
0
8.722906724e-09
-1.18442452e-06
-7.391419717e-07
7.48925633e-06
2.786861765e-06
-6.635402158e-05
-6.273049318e-06
9.385301108e-05
4.318293937e-06
-0.000174120319
-8.22290026e-06
0.0001950795639
0
0
0
0
0
0
0
0
0
0
0
0
0
0
0
0
0
0
0
0
0
0
0
0
0
4.060786606e-07
-2.415640793e-06
-1.866808455e-06
1.725721213e-05
1.105952724e-05
-0.000150051409
-1.613974407e-05
0.0002143009081
2.486107153e-05
-0.0004283689219
-3.400480421e-05
0.0004985387909
3.168056268e-05
-0.0006767384515
-4.400378508e-05
0.0007200871227
0
0
0
0
0
0
0
0
0
0
0
0
0
0
0
0
0
0
0
0
0
0
0
-1.366366452e-07
8.67911365e-07
1.108333462e-05
-0.0001050486983
-1.363347391e-05
0.0001798199096
3.395544495e-05
-0.0004757635762
-4.064138066e-05
0.0005862624205
7.035001321e-05
-0.0009077997586
-8.472316765e-05
0.00100248494
9.076987353e-05
-0.00122278147
-0.0001072588501
0.001272035726
0
0
0
0
0
0
0
0
0
0
0
0
0
0
0
0
0
0
0
0
0
3.476770613e-06
-1.182796762e-05
-5.238927068e-06
5.090619472e-05
2.518846686e-05
-0.0003053282304
-2.791149824e-05
0.0004232356693
5.587867712e-05
-0.0008298920553
-6.973526868e-05
0.0009680985935
0.0001298752304
-0.001304373974
-0.0001336402659
0.00137909883
0.0001466654942
-0.001535160598
-0.0001531872888
0.001557721384
0
0
0
0
0
0
0
0
0
0
0
0
0
0
0
0
0
0
-1.206368814e-07
8.322582524e-09
3.116900731e-07
1.006908917e-05
-5.634430532e-05
-1.151116039e-05
0.0001264628105
2.927943461e-05
-0.0004635321767
-3.571608402e-05
0.0006143894853
9.98672233e-05
-0.001052256162
-0.0001055314609
0.001182733614
0.0001658438801
-0.001477397174
-0.0001857985519
0.00153945756
0.0001392248669
-0.001592449589
-3.575767702e-05
-7.105633391e-05
0.0007735603114
0.0007864784217
0
0
0
0
0
0
0
0
0
0
0
0
0
0
0
0
5.063075717e-07
0
-1.08963505e-06
2.768013077e-06
4.161592496e-06
1.4094171e-05
-9.007237235e-05
-1.437308184e-05
0.0001761009005
3.955980599e-05
-0.0005573737482
-4.004490769e-05
0.000707991912
0.000121589085
-0.001144909913
-0.0001244914551
0.001266744556
0.000207480924
-0.001493536268
-0.00021148575
0.001511591926
8.100776714e-05
-0.0007676323827
-7.98417554e-05
0.000766466371
0
0
0
0
0
0
0
0
0
0
0
0
0
0
0
0
1.422443016e-06
0
-1.790744911e-06
7.181718024e-06
7.98660554e-06
1.588314227e-05
-0.0001070201113
-1.617588302e-05
0.0001970588339
4.263661016e-05
-0.0005797254853
-4.313036574e-05
0.0007270760041
0.0001315745405
-0.001144344091
-0.0001328283315
0.001255811088
0.0002165847649
-0.001443271659
-0.0002172188845
0.00144981171
8.395198241e-05
-0.0007269080787
-8.394010929e-05
0.0007268962056
0
0
0
0
0
0
0
0
0
0
0
0
0
0
0
0
2.138738824e-06
0
-2.610564506e-06
1.03279388e-05
1.134856522e-05
1.688289245e-05
-0.0001151457752
-1.715858161e-05
0.000205510493
4.417006703e-05
-0.0005806617859
-4.462344339e-05
0.0007230011753
0.0001355613071
-0.001120548151
-0.0001367335592
0.001224777202
0.0002184419148
-0.001392623822
-0.0002187965247
0.001396131086
8.389151005e-05
-0.0006991620036
-8.364668104e-05
0.0003497015741
0.0003492156005
0
0
0
0
0
0
0
0
0
0
0
0
0
0
0
0
3.119748184e-06
0
-3.693277192e-06
1.461495563e-05
1.580105155e-05
1.798972686e-05
-0.0001250066558
-1.827164631e-05
0.0002159973445
4.605248476e-05
-0.0005843838764
-4.655272075e-05
0.0007219187943
0.0001403843871
-0.001100283644
-0.0001416728968
0.001197368457
0.0002198977335
-0.001345659197
-0.0002201888518
0.001347061515
8.360017237e-05
-0.0006748829261
-8.3511201e-05
0.0003377539975
0.0003370399573
0
0
0
0
0
0
0
0
0
4.364137941e-06
0
2.000066951e-05
2.04452845e-05
1.915697058e-05
-0.0001357890598
-1.949006726e-05
0.0002271744477
4.822862431e-05
-0.0005877066948
-4.890366325e-05
0.0007200535706
0.0001459152551
-0.00107830017
-0.000147605672
0.001168105636
0.0002208808365
-0.001296708771
-0.0002209270912
0.001296842543
8.31816496e-05
-0.0006499212325
-8.315699566e-05
0.0003252159095
0.0003246806691
-0.0007311480736
0.0007311708561
8.392919988e-05
-0.0007023109515
8.407291775e-05
0.0003516500733
0.0003504794705
-0.0006779342663
8.371736108e-05
0.0003393773425
0.000338439735
-0.000652852711
8.332762339e-05
0.000326771709
0.0003259350282
-0.0007706623727
0.000770382423
8.128771684e-05
-0.001404619364
0.001408727291
0.0002181090007
-8.739863289e-05
8.744628795e-05
-0.0007023586065
8.747335703e-05
-0.0007268497452
-8.753169051e-05
-0.001357792523
0.001359626505
0.0002195861807
-8.71913961e-05
8.723927157e-05
-0.0006779821417
-0.0006992133006
-8.734733589e-05
-8.365238736e-05
-0.0006906839099
8.370929177e-05
0.0003456416396
0.0003449853659
-3.624294394e-05
0.0001724555701
3.612493334e-05
-0.0003450121586
0.0001726745991
3.622041859e-05
0.000174666955
-0.0003495394896
-3.606517135e-05
0.0001747172874
-0.001308693284
0.001309151503
0.0002206984909
-8.691576962e-05
8.696479315e-05
-0.0006529017345
-0.0006749034715
-8.71708508e-05
-8.36232852e-05
-0.0006655726707
8.352378097e-05
0.000333271079
0.000332401096
-1.805907979e-05
0.0001659677494
1.814243084e-05
-0.0001660511004
3.577649561e-05
0.0001688823098
-0.0003377143701
-3.577967088e-05
0.0001688352355
-0.0006499663407
-8.687066147e-05
-4.200255565e-05
-0.0003200823585
0.0003201064737
4.197844046e-05
-1.96254457e-05
0.0001605104458
1.931547072e-05
-0.0001602004708
1.89039768e-05
0.0001621941581
-0.0001623753604
-1.872277445e-05
3.537655117e-05
-0.0003717998586
-3.509956247e-05
0.0001856476494
0.0001858752205
-3.578411644e-05
-0.0003649109633
3.566404064e-05
0.0001829135389
0.0001821175002
-0.0003867152542
2.824591938e-05
-2.749187227e-05
0.0003859612071
-0.0003736235876
0.0003739132158
3.508692297e-05
0.0001747797751
3.640256152e-05
-0.000350316806
0.000175354888
0.0003563561116
3.620342318e-05
-0.000356398645
-3.616088983e-05
8.399063549e-05
-0.0007125105741
-8.394408542e-05
0.000712464024
3.533742353e-05
-3.506729329e-05
0.0001781657659
0.0001779202155
-1.792478578e-05
0.0001747703012
1.793425963e-05
-0.0003636215911
-3.561005495e-05
0.0001818261749
0.0001816213547
-0.0003574857616
3.531526862e-05
0.0001789547329
0.0001785531836
0.0001689924258
3.596186787e-05
-0.0003382861605
0.0001691083624
0.000172456789
-0.0003444890833
-3.64145904e-05
0.0001722039407
-0.0006878184789
-8.379400831e-05
0.0003444348843
0.0003435252155
1.824179085e-05
-1.83037183e-05
0.0001725187165
-1.744973833e-05
0.0001689101104
1.753205372e-05
-1.786661288e-05
0.0001746087821
0.0001726533207
1.804404024e-05
0.0001624249037
1.903463507e-05
-0.000162555562
0.0001657421316
-0.0001658007046
-1.800050677e-05
-0.0006619705595
-8.33835279e-05
0.0003314050711
0.0003303257311
1.809855424e-05
-1.790071317e-05
0.0001655442906
-1.938297047e-05
0.0001621625768
1.964529738e-05
-1.742403543e-05
0.0001688566069
0.0001658320929
1.823421069e-05
0.0001596451997
-0.0001597502789
-1.952036643e-05
0.0003192103595
2.005406779e-05
-1.982504673e-05
0.0001594161786
-1.906947539e-05
0.000161880663
0.0001607575892
1.980692434e-05
-0.001456005252
0.001464201418
0.0002154171206
8.74176075e-05
-0.0007310923241
8.478609953e-05
-0.000766554767
-8.586371518e-05
-8.311185248e-05
-0.0007485600923
0.0007485065258
8.316541898e-05
-3.608996712e-05
3.603582648e-05
-0.000373569447
3.400965672e-05
-0.0003877868578
-3.293805307e-05
-0.0007160305157
0.0007160801187
8.394103249e-05
3.622546577e-05
-0.0003575078042
3.631650335e-05
-0.0003636213043
-3.631679017e-05
3.629102257e-05
-0.0003648854825
-0.0003718186964
-3.60711293e-05
-0.0007408620799
-8.358040941e-05
0.0007413306368
1.386383562e-05
-0.0001830428505
-1.4145006e-05
0.0001833240208
-0.0001997167293
8.451194044e-06
-1.111834129e-05
0.0002023838766
-0.0001914146395
-1.36433946e-05
0.0001915186309
1.353940316e-05
-0.0008094739807
5.193753091e-05
-1.405353471e-05
-2.497605594e-05
0.0003956335852
0.0004009324553
-0.0003842161788
0.000391907195
2.055490319e-05
0.0001609331322
1.73231464e-05
-0.0001611026819
-1.715359674e-05
3.8270984e-05
-0.0003220621901
-3.82263314e-05
0.0003220175375
-3.820929017e-05
-0.0003200280292
0.0003200497394
3.818757993e-05
-0.0001927133376
1.234680572e-05
-6.547466123e-05
0.0002458411931
-0.0001823984703
1.408382441e-05
0.0001821784815
-3.517194708e-05
-0.0003690115091
3.534035354e-05
0.0001842516167
0.0001845914859
-1.583454887e-05
1.639466012e-05
-0.0001829585816
1.599174677e-05
-0.0001900587463
-1.864633803e-05
-1.786152612e-05
2.985597582e-05
-0.0001830935779
0.0001710991282
-0.0001834965862
-1.538081314e-05
-0.0003685391387
-3.555646576e-05
0.0001847719823
0.000184151675
-3.418891536e-05
-0.0003840735289
0.0003843525916
3.390985263e-05
-1.547413518e-05
1.567155975e-05
-0.0001916120641
4.599277551e-06
-0.0001937566987
-1.05593082e-05
0.0001900081628
1.501479812e-05
-0.0001890312141
0.0001911814548
-0.0001910562143
-1.559937573e-05
-0.0003802093671
-3.445559058e-05
0.0003804760423
-1.491912083e-05
0.000192457181
0.0001895604011
1.279456737e-05
-1.800333021e-05
-0.0001768986815
0.0001769864036
1.791560805e-05
1.431937237e-05
-0.0001774428843
-1.427006732e-05
0.0001773935792
-0.0001767884507
-1.802004218e-05
0.0001768051627
-3.559122497e-05
-0.0003613406626
3.547493228e-05
0.0001808107937
0.0001806461616
-1.487731815e-05
1.487778497e-05
-0.000179798734
0.0001797982671
-0.0001812242454
-1.573194441e-05
0.0001790946637
1.442755156e-05
-0.0001777699419
0.0001776617628
-0.0001794555844
-1.479964652e-05
0.0001793779128
-0.0003600918128
-3.551138536e-05
0.0001802473582
0.000179764615
-1.799207489e-05
-0.000170639135
0.0001705822094
1.804900045e-05
-0.0001705840858
-1.792629129e-05
0.0001705183022
-1.765786965e-05
-0.0001738138419
0.0001737601751
1.771153646e-05
-0.0001736478747
-1.764188922e-05
0.0001736318943
-1.707417736e-05
-0.0001647282829
0.0001647636842
1.703877609e-05
-0.0001647642443
-1.7406785e-05
0.000165096852
-1.898729943e-05
-0.0001678581804
0.000168062115
1.878336485e-05
-0.0001675195108
-1.901579155e-05
0.0001675480029
-0.0003191842546
0.0003191695013
-1.688683086e-05
-0.0001611577365
0.0001608412603
1.720330709e-05
-1.658430304e-05
0.0001606306044
1.032167012e-05
-0.0004036105045
-1.247240182e-05
-0.0002029833488
0.0002030569592
8.377583653e-06
1.852497198e-05
-0.00016750315
-1.854133272e-05
3.860997056e-05
-0.0003348101595
-3.857148561e-05
0.0003347716746
-3.85388558e-05
-0.0003324122378
0.0003324013364
3.854975723e-05
3.863960738e-05
-0.0003377419275
-3.863225468e-05
0.0003377345748
-0.0003355635151
0.0003355560113
3.861747434e-05
1.838765128e-05
-0.0001677208597
3.840953718e-05
-0.0003251958964
-3.836142882e-05
0.0003251477881
-0.0003231618865
0.0003231405698
3.829230077e-05
1.750400141e-05
-0.0001613385915
3.610891569e-05
0.0001704783029
-0.0003410917138
-3.607959055e-05
3.870367056e-05
-0.0003411382713
-3.869647318e-05
0.000341131074
-0.0003383926984
0.0003383539285
3.867837729e-05
-1.612913738e-05
0.0001682529569
1.638365178e-05
-0.0001685074713
0.0001689960289
1.724491708e-05
-0.0001693022497
-1.693869632e-05
1.77326801e-05
-0.0001697250051
-1.765156051e-05
0.0001696438855
1.758855017e-05
-0.0001645720183
-1.778077618e-05
3.849464594e-05
-0.0003284779725
-3.851022209e-05
0.0003284935486
-0.0003258543478
0.0003258398207
3.842406434e-05
-0.0003313887728
-3.852787848e-05
0.0003313777954
-0.0003292717457
0.0003292912415
3.847515011e-05
1.749287371e-05
-0.0001646326065
-1.745280526e-05
-0.0001646339955
0.0001644930431
1.75937577e-05
-1.652600761e-05
0.0001635879298
1.683213617e-05
-0.0001638940583
1.755182518e-05
0.0001648147568
-0.0001650349337
-1.733164823e-05
-1.581315595e-05
1.594245585e-05
-0.0001615175445
0.0001613882446
2.91830518e-05
-0.0001643475716
-1.813077374e-05
0.0001532952935
1.955938261e-05
-0.0001637371444
-1.984238532e-05
0.0001640201471
-1.759584401e-05
-0.0001685978034
0.0001687505964
1.744305097e-05
-1.529642878e-05
0.0001694659897
1.524474756e-05
-0.0001694143085
0.0001682191567
-0.0001685426433
-1.580565081e-05
0.0001650403262
1.780409135e-05
-0.0001652925924
0.0001656228931
1.853845892e-05
-0.0001658810778
-1.828027414e-05
1.870007321e-05
-0.0001665870123
-1.853538891e-05
0.000166422328
-1.816526093e-05
-0.0001618582532
0.0001615663571
1.845715696e-05
-1.521015744e-05
1.531790816e-05
-0.0001608196996
0.0001607119489
-0.0001611486151
-1.553720106e-05
0.0001608726602
1.032420131e-05
-0.0001635042021
7.123074398e-06
0.0001460569264
1.651576217e-05
-0.0001614746693
-1.747473975e-05
0.0001624336468
-9.542539549e-06
-0.0001829436775
1.309940138e-05
0.0001793868156
-0.0001866863803
9.76837063e-06
0.0001673754701
-1.418672102e-05
-0.0001974729294
0.0001979753473
1.368430306e-05
-0.0001979333149
-1.325284941e-05
0.0001969994433
-1.5360415e-05
-0.0001834304556
1.787380654e-05
0.0001809170641
-0.0001826381471
-1.496683523e-05
0.0001822445674
1.850160691e-05
-0.000183490865
-1.764888898e-05
1.812745393e-05
-0.00018503495
-1.782688126e-05
0.0001847343773
-1.686669181e-05
-0.0001844130846
0.0001840840418
1.719573465e-05
1.651376806e-05
-0.0001861212071
-1.754180118e-05
0.0001871492402
-0.0001856281336
0.0001854949044
1.82606831e-05
1.956306091e-05
-0.0001844919096
1.31804588e-05
-0.0001867735875
-1.30932516e-05
1.674417009e-05
-0.0001839108143
-1.73994655e-05
0.0001845661097
-1.920919546e-05
-0.0001824359405
0.0001827619303
1.888320565e-05
-0.0001846793851
-1.666140848e-05
0.0001844741018
-0.0001833632002
0.0001836374393
1.646993104e-05
1.404871592e-05
-0.0001838119346
0.0001863844122
1.805180576e-05
-0.0001877463868
-1.668983118e-05
1.694933159e-05
-0.0001886243045
-1.694858863e-05
0.0001886235615
-0.0001869384462
0.0001869910842
1.646113002e-05
-1.877692685e-05
-0.000187610246
0.0001862989726
2.008820025e-05
-1.650011646e-05
0.0001841076019
1.32902665e-05
-0.0001787706052
-1.046842059e-05
0.0001759487593
1.571422945e-05
-0.000178796873
-1.607270508e-05
0.0001791553487
-1.93545519e-05
-0.0001781637501
0.0001791490176
1.836928443e-05
1.6134587e-05
-0.0001780432788
-1.591585832e-05
0.0001778245501
-0.0001782567203
0.0001783090841
1.566186575e-05
1.371303433e-05
-0.0001775829664
0.0001771601986
1.927393241e-05
-0.0001756517314
-1.908972465e-05
0.0001754675236
-1.846509574e-05
-0.0001744078373
0.000174217696
1.8655237e-05
-0.0001774736418
-1.97100656e-05
0.0001778291555
-0.0001759275809
0.0001757129022
1.948861103e-05
1.518595595e-05
-0.0001799295292
-1.51097312e-05
0.0001798533044
1.851500264e-05
-0.0001806755328
-1.829817022e-05
0.0001804587003
-1.763243197e-05
-0.0001804991653
0.0001802944141
1.783718326e-05
-0.0001817844473
-1.920831474e-05
0.0001817835666
-0.0001811779595
0.0001809282403
1.876472183e-05
1.53118706e-05
-0.0001802411128
0.0001801151981
1.440110243e-05
-0.0001785664283
-1.437082804e-05
0.0001785361539
1.6838558e-05
-0.0001791988332
-1.664069569e-05
0.0001790009709
-0.0001783599843
0.000178204921
1.628965035e-05
-0.0001800755106
-1.739873867e-05
0.0001798418173
-0.0001789613337
0.0001787961145
1.700377721e-05
1.462443824e-05
-0.0001783307726
0.0001781074368
1.870422745e-05
-0.0001705441465
-1.848114641e-05
0.0001703210655
-1.77892051e-05
-0.0001699197928
0.0001696981768
1.801082109e-05
1.971729535e-05
-0.0001733419059
-1.979104129e-05
0.0001734156519
-0.0001709478309
0.0001706681693
1.898388906e-05
1.686119246e-05
-1.665070951e-05
0.000168785546
-1.589591287e-05
0.0001679893996
1.615947013e-05
-0.0001698506054
-1.753622068e-05
0.000169597621
-0.000169315366
0.000169104897
1.707166153e-05
1.743033489e-05
-0.0001739149528
-1.711831931e-05
0.0001736029372
-1.630595561e-05
-0.00017333067
0.0001730474724
1.658915323e-05
-0.0001741982782
-1.82277473e-05
0.0001739609297
-0.0001740799652
0.0001738017031
1.77085969e-05
1.513604063e-05
-0.0001739397173
-1.518895697e-05
0.0001739926337
-0.000174675579
0.000175961189
1.843168541e-05
-0.000173180827
-1.602061136e-05
0.0001728954828
-0.0001732699645
0.000173003855
1.540215009e-05
0.0001637904039
-1.481241942e-05
1.546626141e-05
-0.0001644442459
0.0001636241199
-0.0001639415697
-1.620855789e-05
-0.0001647486625
-1.725369388e-05
0.0001645495511
1.471487801e-05
-1.466517989e-05
0.0001635744218
-1.381176818e-05
1.427225473e-05
0.0001633299173
1.522818595e-05
-1.51696435e-05
0.0001647562143
1.500953236e-05
0.0001632932754
-0.0001646464106
-1.063844868e-05
0.0001614730911
-0.0001641852631
0.0001648583771
1.888626857e-05
6.070062131e-05
-0.000167189181
0.0001356716115
-0.000165397431
-1.406139894e-05
0.0001687902706
-1.985501046e-05
1.977966828e-05
-0.0001687149284
0.0001716228259
-0.0001704775662
-1.644168853e-05
-0.0001685246662
-1.792313257e-05
0.0001688519548
1.392377934e-05
-1.395027604e-05
0.0001716493226
-1.807204867e-05
2.923680384e-05
0.0001576255154
-1.560871657e-05
0.0001679319604
0.0001687330701
1.46566989e-05
1.559174786e-05
-1.549797338e-05
0.0001655291186
1.531753127e-05
0.0001649509809
-0.0001670758464
-1.612534213e-05
0.0001651291399
-0.0001658239677
1.569182321e-05
0.0001657238924
-0.000166756893
0.0001665982638
1.885870238e-05
1.880622638e-05
-0.0001660917352
-0.0001674600584
-1.947079849e-05
-1.468896689e-05
1.480002185e-05
-0.0001601500866
0.0001600390317
-0.0001606594549
-1.507555344e-05
0.0001605248509
-0.0001616645032
-1.784339493e-05
0.0001613426372
-0.0001607035376
0.0001609625867
1.625671315e-05
1.368132712e-05
-0.0001599613996
0.0001566042738
-0.000159886605
-1.462479225e-05
0.0001598224303
3.605521392e-05
0.000173436372
-0.000347102978
-3.60364827e-05
3.875423697e-05
-0.0003471266753
-3.874711365e-05
0.000347119552
-3.873593663e-05
-0.0003449774558
0.0003449737304
3.873966205e-05
-0.0003496249518
3.880829027e-05
-3.880456683e-05
0.0003496212284
-0.0003479035613
0.000347867548
3.879025022e-05
0.0001740088955
3.608020552e-05
-0.000347847729
-0.000344451651
-3.873221168e-05
0.000344447926
-0.0003416372173
0.0003416265461
3.871434176e-05
0.0001707624905
3.626269172e-05
-0.0003415554016
-1.830769533e-05
-0.0001715127672
0.0001715156358
1.830482676e-05
-1.942252247e-05
1.969783736e-05
-0.0001712231458
1.973386954e-05
-0.000173025222
-2.005055351e-05
1.875250793e-05
-0.0001736942174
1.604506265e-05
-0.0001735814362
-1.640334378e-05
1.763877575e-05
-0.0001729660865
-1.773486429e-05
0.0001730621751
-0.0001825750134
-1.407211366e-05
0.000182502121
-3.047353528e-05
-0.0001899327887
0.0001549316628
-1.173502577e-05
0.0002575762189
-0.0001818002532
1.462033092e-05
0.0001812637467
-0.0001824407814
1.703518826e-05
-1.691070638e-05
1.758832506e-05
-0.0001831184
-1.628052374e-05
-0.0001835887642
-0.0001863669552
6.476417243e-05
0.0001514587585
-1.943721712e-05
1.815758471e-05
-0.0001850873228
-1.943713885e-05
-0.0001830936562
-1.573775122e-05
-0.0001840393587
0.0001830719569
-1.52547821e-05
-0.000183554926
-1.488386962e-05
1.660821663e-05
-0.0001907418124
-1.694506589e-05
0.0001910786617
-0.00018953088
0.0001894696099
1.701060169e-05
1.886620178e-05
-0.000188424642
0.0001958298746
-1.857742659e-05
-0.0001921715688
1.175183129e-05
-6.620842686e-05
0.0002502864702
0.0001908599339
1.334907847e-05
8.77211811e-06
0.0001690532572
-0.0001850830257
1.30642865e-05
0.0001807908573
1.462394736e-05
-0.0001869124056
-0.0002315320902
-8.051626064e-06
0.0002395837163
-6.336194039e-05
1.375970209e-05
-0.0001819298519
-2.938996145e-05
-0.000180379209
0.00014640723
-1.533980687e-05
1.55376004e-05
-0.0001776406778
0.0001771261535
-1.511836606e-05
-0.0001773475943
-1.411183632e-05
0.0001769679225
-1.536678235e-05
1.540594079e-05
-0.0001745998953
0.0001745607369
-1.537137613e-05
-0.0001740947367
0.0001740993305
-1.777925012e-05
-0.0001779780689
0.0001663673575
-1.588194499e-05
-0.0001764591663
0.0001745618612
-0.0001798444619
1.485022059e-05
0.0001798720263
-1.725218418e-05
1.747366855e-05
-0.0001800659463
-1.702123307e-05
-0.0001800296851
-1.903225503e-05
-0.0001816291292
0.0001806143641
-1.857323549e-05
-0.0001810733837
-1.530729244e-05
0.0001801897122
-0.0001782604085
1.4495668e-05
0.0001781922921
-1.572513318e-05
1.590914008e-05
-0.0001784444154
-0.0001779574747
-1.686046912e-05
-0.0001796163484
0.000178973694
-1.667021298e-05
-0.0001791639502
-1.476093518e-05
0.0001789349827
-1.83313086e-05
1.86150598e-05
-0.000170203544
-0.000170821703
-1.914496597e-05
-0.0001712936219
-1.816876844e-05
0.000171154695
-0.0001700035326
0.0001699315583
1.780465436e-05
1.751999406e-05
-0.000169590443
-0.0001701025726
-1.807934139e-05
-1.664123091e-05
1.689077337e-05
-0.0001735802124
1.757420685e-05
-0.0001741312782
-1.735788145e-05
1.777785111e-05
-0.0001744021346
-1.775299592e-05
0.0001743772794
-1.464416125e-05
1.473153574e-05
-0.0001729916484
0.0001729042739
-1.452104168e-05
-0.0001728263886
0.0001727032691
-1.503934412e-05
-0.0001737124995
0.0001733804675
-1.504641175e-05
-0.0001737957536
0.0001738028212
-7.95835025e-06
-0.0002261789492
0.0002341372994
-1.445926769e-05
-0.0001726023936
0.0001725406196
-0.0001724547319
-1.431883237e-05
0.0001723142966
-0.000173106926
0.0001731557772
1.75899246e-05
1.605284327e-05
-0.0001732777451
-0.0001733953622
-1.642669576e-05
-0.0001641405965
0.0001638907808
1.708195186e-05
-1.715571737e-05
-0.0001644621227
1.747724351e-05
-1.682194078e-05
-0.0001642278349
-0.0001619333118
1.622994264e-05
0.0001616458251
-1.91799733e-05
1.961057361e-05
-0.0001623639122
-1.885975572e-05
-0.0001618377621
-2.005532536e-05
2.004297627e-05
-0.0001643352225
0.0001626841228
-0.0001631288745
0.0001607832917
-1.603304256e-05
1.800871965e-05
-0.0001589155839
0.0001569399068
-0.0001581169133
0.0001578165838
-0.0001609828903
1.542590004e-05
0.0001608748984
-1.783706429e-05
1.819225864e-05
-0.0001613380847
-1.751394688e-05
-0.000161142817
-1.85214139e-05
-0.0001614869569
0.0001610907026
-0.0001614198578
0.0001609794016
-2.879718588e-05
5.962463417e-05
-0.0001636730224
0.0001328455741
-0.0001607176752
0.000149929209
-1.365514703e-05
1.37293629e-05
-0.000163578418
0.000211239689
-0.0001652702018
0.0002183627634
-0.0001818355089
0.0001808627966
-0.0002403397896
0.0002501081602
-1.028061331e-05
-0.0001995099376
8.99743259e-06
-8.572078504e-06
-0.0001966295548
-2.934777382e-05
6.523816924e-05
-0.0001950307743
-1.156195932e-05
-0.0001893846506
0.0001715988361
-7.55170209e-06
-0.0001954612641
0.0002569660107
-0.0001992795435
-0.0001857424799
0.0001731427512
-0.0001820094411
0.0001816629368
-1.589994762e-05
1.47206834e-05
-0.0001855943233
0.0001886688688
-0.0001864112317
-0.0001826706626
-1.480812295e-05
-0.0001831173217
-0.0001838993741
3.102006606e-05
-1.74557344e-05
0.0001727346409
-0.0001919114758
0.000156723115
-0.0001904007021
1.325033246e-05
0.0001660476421
0.0002635368026
0.0001842280164
-0.0001861041855
1.408915631e-05
0.0001832031466
0.0001807410238
-1.369037367e-05
1.423259159e-05
-0.0001793128231
0.0001811834449
-0.0001811141165
0.0001626633982
-0.0001770300161
0.0001766312141
-1.472316511e-05
-0.000177425217
-0.00017807354
-1.545207436e-05
1.550520955e-05
-0.000175233685
0.0001751805498
-0.0001749968191
0.0001749506855
-1.561649312e-05
-0.0001757704899
0.000175505038
-0.0001754867309
0.0001753754473
-1.769299688e-05
1.790709097e-05
-0.0001801436232
0.0001797310926
-0.0001799504209
0.000179471582
-0.0001805934711
0.0001805980493
-1.827186803e-05
-0.0001808948386
-0.0001806058899
-1.603431641e-05
1.620817668e-05
-0.0001787402886
0.0001786670284
-0.0001787922047
0.0001787918683
-0.0001785125116
0.0001783760146
-1.644576552e-05
-0.000178736959
-0.0001785683615
0.0001700165285
-1.829636511e-05
-0.0001702013098
1.554447935e-05
-1.546008155e-05
0.0001699321307
1.566823697e-05
0.0001701973078
1.533332058e-05
-1.521050123e-05
0.0001695753574
-0.0001697389943
0.0001696122333
-0.0001700245383
0.0001717713699
-1.934449045e-05
-0.0001722179208
1.800226264e-05
-1.598774184e-05
0.0001697568491
2.941796959e-05
0.0001619999449
1.58175445e-05
0.0001705188617
-0.0001711701014
0.0001709999041
-0.0001715307028
0.0001684630563
-1.64078597e-05
-0.0001687059061
1.487112747e-05
-1.482054377e-05
0.0001684124726
1.492402397e-05
0.0001687326495
1.467150574e-05
-1.450772277e-05
0.0001678256167
-0.0001681335449
0.0001679845068
-0.0001683819344
0.0001695331341
-1.731519076e-05
-0.000169754164
1.512031772e-05
-1.508866123e-05
0.0001695014776
0.0001695074375
1.503886304e-05
0.0001689900579
-0.0001693876944
0.0001693378962
-0.0001696312236
-1.478510925e-05
-0.0001734191722
1.490553898e-05
0.0001732987424
-0.00017319037
0.0001731367965
0.0001734383165
-1.683826502e-05
-0.0001737183708
1.679371255e-05
-1.654576611e-05
1.697747758e-05
1.629585977e-05
-1.607477605e-05
-0.0001732415547
-0.0001734906665
-1.496230762e-05
-0.0001737572172
0.0001736731131
-0.0001735530113
0.0001734962427
-1.043373194e-05
-0.0001732575878
1.360256745e-05
0.0001700887523
-0.0001761210659
0.0001577289837
0.0001761260951
-1.637014378e-05
-0.0001749449083
1.380776121e-05
-1.380273197e-05
1.454280705e-05
6.249760667e-05
0.0001428815519
-0.0001774840745
-0.0001754225329
0.0001727063936
-1.572976991e-05
-0.000172997235
1.578168682e-05
-1.553002518e-05
1.511675737e-05
0.0001724299047
-0.0001726906613
0.0001722773935
-0.0001730182811
-1.408655887e-05
0.00017204512
0.0001719459133
-0.000164071308
1.586874721e-05
0.0001636688222
-1.577953177e-05
1.613100964e-05
-0.0001644227858
-1.54896987e-05
-0.0001647340789
-1.647969746e-05
-0.000164283813
0.000164025512
-0.0001643741998
0.0001636857013
-1.454258214e-05
0.0001635631035
0.0001633984948
-1.517587222e-05
-0.0001644327435
0.0001644389723
0.000163724441
7.06662257e-06
-0.0001675558297
0.0001498507584
-0.0002155385797
0.0002226052023
-0.0001688767104
1.403875199e-05
-1.875746719e-05
1.663223536e-05
-0.0001667514786
-0.0001659036719
-1.548583595e-05
-0.0001654012938
0.0001675784766
-0.0001664320772
0.0002206106137
-6.155702544e-05
-0.0001730038643
-7.428299851e-06
0.0002280389135
1.056080535e-05
0.0001536602174
-0.0001714255747
0.0001391053531
0.0001678857505
-1.525988184e-05
-0.0001682345852
1.442629546e-05
-1.419579302e-05
0.000167655248
0.0001678505331
1.374556511e-05
0.0001655483104
-0.0001679113715
0.0001674611436
-0.0001685145545
-1.540717275e-05
-0.0001654584367
0.0001653676361
-0.0001652660042
0.0001651763628
-1.587921703e-05
-0.0001663906225
0.0001661444974
-0.0001660750027
0.0001658876088
-0.0001602747121
1.493914833e-05
0.0001601355856
-1.654715617e-05
1.687114555e-05
-0.0001605987015
-1.624843022e-05
-0.0001604488126
-1.71926838e-05
-0.000160980718
0.0001604666233
-0.0001607881616
0.0001603302182
-0.0001590395024
1.447844829e-05
0.0001582423813
-1.462775492e-05
1.543172422e-05
-0.0001598434717
-0.0001608597916
-1.586975336e-05
-0.0001602652818
0.0001595064468
-0.0001599444759
0.0001593601028
0
0
0
0
0
0
0
0
0
0
0
0
0
0
0
0
0
0
0
9.789253037e-08
0
2.254601991e-05
-1.874638696e-06
2.371210577e-07
-1.032558742e-05
0
0
0
3.846655099e-05
6.613572082e-07
9.172586377e-05
-4.500534458e-06
1.83635193e-06
-7.457188813e-05
0
0
0
0.0001065176075
1.826019483e-06
0
0
0
0
0
0
0
0
0
3.352824102e-06
0
8.905455172e-05
-7.756535359e-06
4.000542253e-06
-4.789319267e-05
0
-1.15445598e-07
0.0001391685753
6.607312464e-06
0.0003172348967
-2.162692544e-05
1.487931754e-05
-0.0002557447717
-4.141162856e-05
-4.96609613e-06
0.0003777791068
1.723947992e-05
0.0005345118893
-3.17974647e-05
2.197200034e-05
-0.000488130413
-0.0001493363652
-8.55779267e-06
0.0005730555838
2.165807737e-05
0
0
0
6.704681124e-05
-6.384782349e-06
3.705599999e-06
-2.416874166e-05
0
-3.175468213e-07
0.0001281754832
7.671841385e-06
0.0003878858277
-2.714753914e-05
2.199772542e-05
-0.0002919910877
-9.386183526e-05
-1.217637272e-05
0.000488671352
2.76374475e-05
0.0007900373316
-6.100637432e-05
4.936518073e-05
-0.0006925786713
-0.0003560305077
-2.960449432e-05
0.0008812556656
5.687792969e-05
0.001099313884
-8.988184126e-05
7.334027193e-05
-0.001037250514
-0.0006244477468
-4.377152701e-05
0.001149629861
7.415413127e-05
-4.341320848e-06
3.24675266e-05
1.902634185e-06
0.0002559653877
-1.944083814e-05
1.632622984e-05
-0.000161459409
-5.171511138e-05
-8.717384233e-06
0.0003659910599
2.121272372e-05
0.0007539646706
-4.272427766e-05
3.492759745e-05
-0.0006242643432
-0.0003688450664
-3.234594465e-05
0.0008843505911
5.040049168e-05
0.001214048522
-0.0001112410723
0.0001002732961
-0.001110745863
-0.0008051902502
-7.363432619e-05
0.001304178646
0.0001144343076
0.001488070826
-0.0001494476758
0.0001373325505
-0.001441574056
-0.001161128217
-0.000106618092
0.00152133774
0.0001360051251
-4.33406107e-05
0.000106233461
8.337102128e-06
0.0004361367112
-2.678774956e-05
2.520320416e-05
-0.0003089658011
-0.0002012722685
-2.182849676e-05
0.0005755177262
3.185418576e-05
0.001006248052
-7.681952961e-05
7.178280574e-05
-0.000865375252
-0.0006868652884
-5.71271681e-05
0.001138640347
9.233876973e-05
0.00146432588
-0.0001588587879
0.0001367819403
-0.001368283303
-0.001214245086
-0.0001132828613
0.001530772942
0.0001509351951
0.001570732369
-0.0001428358953
0.0001572862294
-0.001584396018
-0.001500213912
-0.0001568333861
0.001559024811
0.0001509324253
-8.577923797e-05
0.0001700309686
1.353109335e-05
0.0005462827192
-3.074902733e-05
3.025083958e-05
-0.0004051798561
-0.0003343497291
-2.832786992e-05
0.00069558543
3.879313409e-05
0.001133981436
-9.525769164e-05
9.16985134e-05
-0.000995094316
-0.0009117694479
-7.464116068e-05
0.001260137412
0.0001149497184
0.001507772293
-0.0001973126912
0.0001913724144
-0.001454166791
-0.001395585075
-0.0001759946065
0.001531475591
0.0002032251018
8.543316093e-05