/*--------------------------------*- C++ -*----------------------------------*\
| =========                 |                                                 |
| \\      /  F ield         | OpenFOAM: The Open Source CFD Toolbox           |
|  \\    /   O peration     | Version:  v2012                                 |
|   \\  /    A nd           | Website:  www.openfoam.com                      |
|    \\/     M anipulation  |                                                 |
\*---------------------------------------------------------------------------*/
FoamFile
{
    version     2.0;
    format      ascii;
    class       surfaceScalarField;
    location    "3.14";
    object      meshPhi;
}
// * * * * * * * * * * * * * * * * * * * * * * * * * * * * * * * * * * * * * //

dimensions      [0 3 -1 0 0 0 0];
oriented        oriented;


internalField   nonuniform List<scalar> 
5999
(
0
0
0
0
0
0
0
0
0
0
0
0
0
0
0
0
0
0
0
0
0
0
0
0
0
0
0
0
0
0
0
0
0
0
0
0
0
0
0
0
0
0
0
0
0
0
0
0
0
0
0
0
0
0
0
0
0
0
0
0
0
0
0
0
0
0
0
0
0
0
0
-8.206382379e-10
-4.803515988e-08
0
0
0
0
0
0
0
0
0
0
0
0
0
0
0
0
0
0
0
0
0
0
0
0
0
0
0
0
0
3.725676835e-09
7.909325615e-07
-3.523274922e-07
-5.009963704e-06
1.389366468e-06
4.44404686e-05
-3.262016189e-06
-6.285718488e-05
1.651545677e-06
0.0001163564513
-2.683739886e-06
-0.0001301885913
0
0
0
0
0
0
0
0
0
0
0
0
0
0
0
0
0
0
0
0
0
0
0
0
0
1.841597108e-07
1.691095793e-06
-9.857886597e-07
-1.210302631e-05
7.471179597e-06
0.0001059354132
-1.189869049e-05
-0.0001514862157
1.25988427e-05
0.0003026643751
-1.635334484e-05
-0.0003517485347
4.971541947e-06
0.0004743629254
-4.932741917e-06
-0.0005034268757
0
0
0
0
0
0
0
0
0
0
0
0
0
0
0
0
0
0
0
0
0
0
0
-6.117425542e-08
-6.394451124e-07
9.030188859e-06
7.803195253e-05
-1.405382881e-05
-0.0001336873651
2.926074586e-05
0.0003542270038
-3.561849569e-05
-0.0004364040153
2.648622844e-05
0.0006727035348
-2.891168406e-05
-0.0007411014811
1.730812597e-06
0.0008969431061
1.294908806e-07
-0.0009307455674
0
0
0
0
0
0
0
0
0
0
0
0
0
0
0
0
0
0
0
0
0
2.021573432e-06
9.105786568e-06
-3.40879854e-06
-3.93079659e-05
3.010604686e-05
0.0002379303288
-3.578762168e-05
-0.0003304177042
6.097696182e-05
0.0006491813519
-6.102795329e-05
-0.0007570210719
3.389252485e-05
0.001012286012
-4.227149421e-05
-0.001067071977
-5.470460868e-06
0.001178429317
5.137041418e-06
-0.001193317813
0
0
0
0
0
0
0
0
0
0
0
0
0
0
0
0
0
0
-5.391554177e-08
-6.723315003e-09
-2.549849108e-07
8.260552584e-06
4.554968582e-05
-1.015000385e-05
-0.0001025083051
5.253665767e-05
0.0003779744617
-5.423832772e-05
-0.0004993077046
6.504241023e-05
0.0008554055417
-6.725913801e-05
-0.000960353371
3.954532525e-05
0.00119390318
-2.822368469e-05
-0.001241834281
1.160385437e-05
0.00128425723
-3.362689797e-05
-6.422674257e-06
-0.0006196857428
-0.0006361257691
0
0
0
0
0
0
0
0
0
0
0
0
0
0
0
0
2.246777152e-07
0
-4.752079754e-07
-2.335625673e-06
-3.563520146e-06
1.415345463e-05
7.610429466e-05
-1.464534031e-05
-0.000148878713
6.238724315e-05
0.0004717924484
-6.3344531e-05
-0.0005993499607
6.846569087e-05
0.0009692542129
-6.770530079e-05
-0.001072219513
1.861576077e-05
0.001262602771
-1.630495666e-05
-0.001277046374
-2.062044432e-06
0.0006466876776
1.028735449e-06
-0.0006456543686
0
0
0
0
0
0
0
0
0
0
0
0
0
0
0
0
6.105949302e-07
0
-7.703817833e-07
-6.371394233e-06
-7.174546231e-06
1.712607934e-05
9.502712007e-05
-1.766290276e-05
-0.0001750660436
6.661903154e-05
0.0005154501187
-6.726780721e-05
-0.0006465119917
6.713341805e-05
0.00101735881
-6.703986879e-05
-0.001116274528
1.369689976e-05
0.001282017398
-1.341851761e-05
-0.001287609875
-4.623469377e-06
0.0006436143078
4.623136297e-06
-0.0006436139747
0
0
0
0
0
0
0
0
0
0
0
0
0
0
0
0
9.302174642e-07
0
-1.150793072e-06
-9.641978766e-06
-1.073111331e-05
1.899942278e-05
0.0001076006984
-1.954186011e-05
-0.0001921454443
6.892845412e-05
0.0005433526733
-6.957207723e-05
-0.0006765928264
6.692238561e-05
0.001048391544
-6.68562015e-05
-0.001145689683
1.290770124e-05
0.00130163037
-1.280311247e-05
-0.001304733021
-4.683496501e-06
0.000651372167
4.471610945e-06
-0.0003252838676
-0.0003258764138
0
0
0
0
0
0
0
0
0
0
0
0
0
0
0
0
1.390846387e-06
0
-1.668608234e-06
-1.437121428e-05
-1.574392253e-05
2.124170177e-05
0.000123101449
-2.184124906e-05
-0.0002128267395
7.149915648e-05
0.0005763051828
-7.215861833e-05
-0.0007119742957
6.660834926e-05
0.001084704909
-6.650763053e-05
-0.001180093758
1.235698045e-05
0.001324781805
-1.224549686e-05
-0.001326021623
-4.56433699e-06
0.0006622448385
4.503175593e-06
-0.0003309006089
-0.0003312830682
0
0
0
0
0
0
0
0
0
2.011700072e-06
0
-2.075239991e-05
-2.144345931e-05
2.380238804e-05
0.0001411638195
-2.457002335e-05
-0.0002363342689
7.421285674e-05
0.0006120006649
-7.49866208e-05
-0.0007498011145
6.61318916e-05
0.001121920444
-6.596310317e-05
-0.001214781366
1.19732312e-05
0.001346184382
-1.202330666e-05
-0.001346237455
-4.354332796e-06
0.0006724481615
4.35577703e-06
-0.000335939363
-0.0003365102428
0.000643303687
-0.0006433327619
-4.594394412e-06
0.0006501218062
-4.834145565e-06
-0.0003250069536
-0.0003249642035
0.0006609001656
-4.655814749e-06
-0.0003303208195
-0.0003304878683
0.0006709781469
-4.477631021e-06
-0.0003352982946
-0.0003355565541
0.0006452937261
-0.0006450242687
-2.331501749e-06
0.001296079671
-0.001299726196
1.302521925e-05
3.226449017e-06
-3.255727308e-06
0.0006501510845
-3.192052903e-06
0.0006435544553
3.25190538e-06
0.001319341304
-0.001320980501
1.247912295e-05
3.173927117e-06
-3.203114827e-06
0.0006609293533
0.0006514016861
3.19692994e-06
4.532241119e-06
0.0006560398462
-4.562930679e-06
-0.0003277833059
-0.0003282258507
4.563380929e-06
-0.0001641751929
-4.546549895e-06
0.0003282304771
-0.0001640721152
-4.611636565e-06
-0.0001623578585
0.0003251602403
4.486936967e-06
-0.0001626776821
0.001340619051
-0.001340919126
1.196428479e-05
3.065685171e-06
-3.094401106e-06
0.0006710068628
0.0006622433453
3.175420341e-06
4.691213621e-06
0.0006661265509
-4.566193295e-06
-0.0003330116379
-0.0003332399333
2.371760952e-06
-0.000166630045
-2.410172698e-06
0.0001666684567
-4.391436239e-06
-0.0001653723311
0.000330897782
4.418144193e-06
-0.0001655521588
0.0006724767491
3.037097644e-06
2.005366075e-06
0.0003384975681
-0.0003385295702
-1.973363983e-06
3.145220815e-06
-0.0001696043517
-2.963836286e-06
0.0001694229672
-2.763013465e-06
-0.0001676316267
0.0001677111784
2.683461716e-06
-4.945622268e-06
0.0003205252645
4.690817327e-06
-0.0001599040015
-0.000160366458
5.183995813e-06
0.0003215637288
-5.140695617e-06
-0.0001609933848
-0.0001606136443
0.0003253020476
1.149924672e-06
-1.817278231e-06
-0.000324634694
0.0003211047656
-0.0003213517061
-4.698681797e-06
-0.0001622155115
-4.765458271e-06
0.0003248408145
-0.0001624714813
-0.0003231395318
-4.634471657e-06
0.0003231709148
4.603088681e-06
-4.712472447e-06
0.0006470566264
4.68274008e-06
-0.0006470268941
-5.039937691e-06
4.82368152e-06
-0.0001614630207
-0.0001614602549
2.498046826e-06
-0.0001622140188
-2.499539586e-06
0.0003214651128
5.034150178e-06
-0.0001605810014
-0.0001607342658
0.0003231467747
-4.986935493e-06
-0.0001616627717
-0.0001615370052
-0.0001652013452
-4.522867653e-06
0.0003303904941
-0.0001650577175
-0.0001644130919
0.0003288226332
4.691765826e-06
-0.0001645379263
0.0006575682807
4.685340854e-06
-0.0003287610817
-0.0003289602988
-2.622949227e-06
2.658524187e-06
-0.0001644486668
2.297453308e-06
-0.0001651630291
-2.335769421e-06
2.464056283e-06
-0.000162323868
-0.0001642559364
-2.542205753e-06
-0.0001675567853
-2.808393281e-06
0.0001676021652
-0.0001666792835
0.0001666875292
2.363515279e-06
0.0006669136057
4.475506542e-06
-0.0003333436893
-0.0003333542094
-2.578047343e-06
2.469328265e-06
-0.0001665705644
3.175806218e-06
-0.0001674373857
-3.295205867e-06
2.293421487e-06
-0.0001653682993
-0.000166583418
-2.624674265e-06
-0.0001693458989
0.0001694146876
3.076432167e-06
-0.0003387249546
-3.55977549e-06
3.445279333e-06
-0.0001692314028
3.021796143e-06
-0.0001674776166
-0.0001697249524
-3.43917485e-06
0.001277246835
-0.001284118424
1.43059201e-05
-3.132875976e-06
0.00064324451
-8.485361401e-07
0.0006457868975
1.749316262e-06
3.854633115e-06
0.0006423399933
-0.0006422886921
-3.905934349e-06
4.461657808e-06
-4.418258461e-06
0.0003210613662
-2.707453874e-06
0.0003262405436
1.768957821e-06
0.0006461322158
-0.0006461921811
-4.652507084e-06
-4.637575287e-06
0.0003231498784
-4.626010942e-06
0.0003214652307
4.625893076e-06
-4.622582798e-06
0.0003215603007
0.0003205410854
4.445836913e-06
0.0006396716174
4.271481858e-06
-0.0006400884662
-2.354738483e-06
0.0001603966089
2.676812531e-06
-0.000160718683
0.000167998007
3.377193961e-06
-1.086310894e-06
-0.0001702888901
0.0001624788275
1.061121654e-06
-0.0001627154623
-8.244868286e-07
0.0006678121683
5.489186263e-06
-1.254831697e-05
-3.985344161e-06
-0.0003256530013
-0.0003311146922
0.0003221390564
-0.0003287836854
7.794553667e-06
-0.0001685572623
-2.024552767e-06
0.0001686356954
1.946119633e-06
-3.303605437e-06
0.0003371916846
3.271355957e-06
-0.0003371594352
3.271409248e-06
0.0003384675578
-0.0003384988108
-3.240156262e-06
0.0001644610506
-9.148413786e-07
4.320372725e-05
-0.0002067499365
0.0001596444849
-2.47676855e-06
-0.0001595224549
4.796404076e-06
0.0003211481918
-4.920734513e-06
-0.0001602347405
-0.0001607891209
2.807441419e-06
-3.108370472e-06
0.000159945414
-2.869648937e-06
0.0001628579361
4.472763511e-06
4.808468048e-06
-1.440314308e-05
0.000161036122
-0.0001514414469
0.0001606070026
2.59704776e-06
0.0003217420975
5.148457662e-06
-0.0001611976963
-0.0001608964548
3.935908143e-06
0.0003260808144
-0.0003263034532
-3.713269297e-06
2.208359755e-06
-2.391992316e-06
0.0001626624601
6.991994199e-06
0.0001628522622
-1.846249404e-06
-0.0001626307007
-2.27076961e-06
0.0001620318214
-0.0001622976761
0.0001623305885
2.175447276e-06
0.000323753615
4.151585094e-06
-0.000323969292
2.086824332e-06
-0.0001633233787
-0.0001623889297
-1.156612374e-06
2.534785268e-06
0.0001620640169
-0.0001621021961
-2.496606117e-06
-2.581531028e-06
0.0001611586564
2.568086917e-06
-0.0001611452123
0.0001622070373
2.537473354e-06
-0.0001622097253
5.129268339e-06
0.0003225177354
-4.987998863e-06
-0.0001612619298
-0.000161397075
2.864156908e-06
-2.845334164e-06
0.000161023061
-0.0001610418838
0.0001603068534
3.275172582e-06
-0.0001587735579
-2.653563009e-06
0.0001611986805
-0.0001611266485
0.0001609578147
2.821326439e-06
-0.0001609149842
0.0003224215785
5.092019698e-06
-0.0001612731336
-0.0001611111962
2.50861787e-06
0.0001646773621
-0.0001646426852
-2.543294725e-06
0.0001648556022
2.498991806e-06
-0.0001648459762
2.381749212e-06
0.0001634016073
-0.0001633680237
-2.415332865e-06
0.0001635117207
2.379281725e-06
-0.0001635092533
2.107577685e-06
0.0001674491902
-0.0001674546226
-2.102145367e-06
0.0001676151821
2.263810579e-06
-0.000167771415
2.946549297e-06
0.0001661400343
-0.0001662232749
-2.863308621e-06
0.0001661474297
2.951172316e-06
-0.0001661520527
0.0003387252577
-0.0003387243708
1.99541472e-06
0.0001685355843
-0.0001683803669
-2.150632078e-06
1.842283709e-06
-0.0001684041313
1.285642109e-05
0.0003363944406
-1.057860996e-05
0.000170597218
-0.0001706688348
3.448810779e-06
-2.5698621e-06
0.0001661449447
2.57234705e-06
-3.471157e-06
0.0003323687529
3.439847779e-06
-0.0003323374437
3.437620028e-06
0.0003332703171
-0.0003332695847
-3.438352414e-06
-3.47287728e-06
0.0003309003567
3.472423995e-06
-0.0003308999035
0.0003320172616
-0.0003320168704
-3.471548203e-06
-2.49746994e-06
0.0001660676421
-3.372190101e-06
0.0003359389001
3.339623323e-06
-0.0003359063334
0.0003372147112
-0.0003372130467
-3.305269949e-06
-2.10459473e-06
0.0001686156263
-4.517996042e-06
-0.0001650533416
0.0003298871228
4.539816996e-06
-3.505837214e-06
0.0003298923141
3.505320099e-06
-0.000329891797
0.0003304565985
-0.0003304254064
-3.504069401e-06
2.262688185e-06
-0.0001648738733
-2.358154172e-06
0.0001649693393
-0.000164787982
-2.762660304e-06
0.0001649428964
2.607745823e-06
-2.417937212e-06
0.0001651133373
2.379824658e-06
-0.0001650752248
-2.171743238e-06
0.0001675342533
2.252672093e-06
-3.434938773e-06
0.0003348136414
3.465237695e-06
-0.0003348439404
0.0003354937231
-0.0003354927433
-3.373169933e-06
0.0003333434373
3.436918838e-06
-0.0003333427361
0.0003345224153
-0.0003345528409
-3.404513195e-06
-2.104650285e-06
0.0001673820973
2.29654048e-06
0.0001663915751
-0.0001663439972
-2.344118389e-06
2.403765475e-06
-0.0001659046523
-2.562366355e-06
0.0001660632532
-2.900746282e-06
-0.0001662645903
0.0001663567929
2.808543701e-06
2.636556773e-06
-2.689618056e-06
0.0001671716092
-0.0001671185479
-1.434536716e-05
0.0001679766098
4.315355247e-06
-0.0001579465978
-3.25333045e-06
0.00016768719
3.376916604e-06
-0.0001678107762
2.345519649e-06
0.0001657600925
-0.000165809233
-2.296379129e-06
1.896524679e-06
-0.0001661363478
-1.858129102e-06
0.0001660979522
-0.0001650825135
0.000165240236
2.104965729e-06
-0.0001662155453
-3.024106495e-06
0.0001663389056
-0.0001659751063
-3.364446472e-06
0.0001660993354
3.240217391e-06
-2.825741154e-06
0.0001664207816
2.748609708e-06
-0.0001663436501
2.617739193e-06
0.0001681496479
-0.0001680251991
-2.742187976e-06
2.277286999e-06
-2.327215635e-06
0.0001676357951
-0.0001675858664
0.0001671178662
2.427773467e-06
-0.0001669090829
1.208781599e-06
0.000170412741
-1.691786749e-05
-0.0001547036551
-1.806820356e-06
0.0001693866815
2.275150518e-06
-0.0001698550117
-4.150629849e-07
0.0001603659964
-2.042298457e-06
-0.000157908635
0.0001625335565
-1.540922325e-05
-0.0001475393962
1.545010746e-06
0.000166780816
-0.0001672220563
-1.103770388e-06
0.0001673824423
7.007748106e-07
-0.0001665382064
3.309183409e-06
0.0001593703432
-5.119124857e-06
-0.0001575604017
0.0001591046366
3.106384939e-06
-0.0001589018381
-4.300618506e-06
0.0001595996879
3.805567169e-06
-3.426227709e-06
0.0001604721573
3.255052258e-06
-0.0001603009819
2.75343304e-06
0.0001607108504
-0.0001605340005
-2.930282961e-06
-2.242995219e-06
0.000160240057
3.002377637e-06
-0.0001609994394
0.0001606954682
-0.0001606248695
-3.496826452e-06
-4.948292867e-06
0.0001600180175
-1.516706191e-06
0.0001625603068
1.489955897e-06
-2.684515081e-06
0.0001611734735
2.991501681e-06
-0.0001614804601
3.816669421e-06
0.0001607395205
-0.0001608941295
-3.662060492e-06
0.0001611817151
2.669356705e-06
-0.0001610976387
0.0001605591765
-0.0001606794144
-2.564277177e-06
-1.914169427e-06
0.0001607634597
-0.0001601846066
-4.026263455e-06
0.0001610382215
3.172648612e-06
-2.699349436e-06
0.0001614941023
2.738589553e-06
-0.0001615333424
0.0001607260237
-0.0001606595766
-2.309442394e-06
4.900108308e-06
0.0001606403023
-0.0001597766264
-5.763784198e-06
3.39106317e-06
-0.0001586755615
-2.037520421e-06
0.0001627327411
1.665631711e-07
-0.0001608617838
-2.326686408e-06
0.0001626563246
2.464951349e-06
-0.0001627945896
3.788782628e-06
0.000162546556
-0.0001629455839
-3.389754683e-06
-2.497938943e-06
0.0001614174103
2.386162832e-06
-0.0001613056342
0.0001621585242
-0.0001621928171
-2.29239353e-06
-2.192626342e-06
0.0001618920412
-0.0001617369353
-3.755155498e-06
0.000162420588
3.696859589e-06
-0.000162362292
3.459572036e-06
0.0001620791302
-0.0001620194503
-3.51925191e-06
0.0001624709052
3.928959674e-06
-0.0001626110822
0.0001623786794
-0.0001622909931
-3.842841737e-06
-3.013520042e-06
0.0001604132067
2.970442477e-06
-0.0001603701292
-3.479064313e-06
0.000160746159
3.392263146e-06
-0.0001606593578
3.104897748e-06
0.0001613476373
-0.0001612628211
-3.189713936e-06
0.0001605510246
3.817378817e-06
-0.000160551734
0.0001609349701
-0.0001608185552
-3.595479203e-06
-3.089730645e-06
0.0001604488178
-0.0001603726072
-2.543305433e-06
0.0001611873869
2.556482077e-06
-0.0001612005635
-2.769726028e-06
0.0001614522716
2.685901168e-06
-0.0001613684467
0.0001614556076
-0.000161403404
-2.550142497e-06
0.0001612200091
2.99093167e-06
-0.000161106043
0.000160982602
-0.0001609286647
-2.823663295e-06
-2.708518929e-06
0.0001607181757
-0.0001605529623
-3.601533759e-06
0.0001641206676
3.508960921e-06
-0.0001640280947
3.201437834e-06
0.0001643537812
-0.0001642611275
-3.294091496e-06
-4.076476926e-06
0.0001647917717
4.120746854e-06
-0.0001648360416
0.0001642016929
-0.0001640746489
-3.728577746e-06
-2.773455131e-06
2.68282858e-06
-0.0001646973554
2.313662692e-06
-0.0001647487247
-2.438811327e-06
0.0001645561146
3.078199041e-06
-0.0001644328758
0.00016483031
-0.0001647396777
-2.864087386e-06
-3.024376749e-06
0.0001629559113
2.869063742e-06
-0.0001628005983
2.523073818e-06
0.000163196013
-0.0001630702483
-2.648838474e-06
0.000162156037
3.366955057e-06
-0.00016206342
0.0001628460165
-0.0001627213509
-3.149042323e-06
-1.993011587e-06
0.0001642849102
2.031420827e-06
-0.0001643233194
0.0001651266788
-0.0001657129608
-3.49019501e-06
0.0001633085348
2.396975115e-06
-0.0001631824361
0.0001638356249
-0.0001637156948
-2.112941715e-06
-0.0001670094109
1.588646138e-06
-1.905611861e-06
0.0001673263766
-0.00016622994
0.0001663904907
2.243214797e-06
0.0001667819892
2.187300983e-06
-0.0001666727497
-2.136219388e-06
2.14816977e-06
-0.0001662418904
1.756287431e-06
-1.941801274e-06
-0.000166823897
-2.475707377e-06
2.460847084e-06
-0.00016624973
-2.372280757e-06
-0.0001656685909
0.0001675747829
-6.227171782e-07
-0.0001651957783
0.0001676958004
-0.0001680107537
-2.93837716e-06
-4.392537363e-05
0.0001691337401
-0.0001395537336
0.0001679028937
1.260535294e-06
-0.0001665581757
3.953302401e-06
-3.908819727e-06
0.000166513693
-0.0001672467852
0.0001667399899
2.403319918e-06
0.0001658836592
2.499421141e-06
-0.0001660375607
-1.439522392e-06
1.483749954e-06
-0.0001672910127
4.430740912e-06
-1.427455006e-05
-0.0001567143665
2.184676557e-06
-0.0001649535274
-0.0001658117442
-1.764126004e-06
-2.660222353e-06
2.613584795e-06
-0.0001659284688
-2.521558954e-06
-0.0001661696938
0.0001659476651
2.91949734e-06
-0.0001644364215
0.0001658961264
-2.707919176e-06
-0.0001658484296
0.0001663104499
-0.0001662343049
-2.901886099e-06
-3.490123588e-06
0.0001660218035
0.0001661141387
3.786828848e-06
1.984033429e-06
-2.034341624e-06
0.0001680526813
-0.0001680023731
0.0001677477266
2.196655183e-06
-0.0001676670948
0.0001682299613
2.461956863e-06
-0.000168074179
0.0001686276548
-0.0001687484015
-1.686073712e-06
-1.407532344e-06
0.000168223496
-0.0001656071821
0.0001680419952
1.994461958e-06
-0.0001680524237
-4.536630076e-06
-0.0001635636721
0.0003270781198
4.533903075e-06
-3.509381119e-06
0.0003270805435
3.508833565e-06
-0.0003270799959
3.508214433e-06
0.0003282256265
-0.00032822542
-3.508420918e-06
0.0003252228437
-3.541242304e-06
3.541035008e-06
-0.0003252226364
0.0003267595572
-0.0003267289696
-3.53996866e-06
-0.0001633214532
-4.54025924e-06
0.0003267266897
0.0003287908914
3.508007763e-06
-0.0003287906848
0.0003292961745
-0.0003292953475
-3.506664206e-06
-0.0001644824784
-4.618240983e-06
0.0003292600854
2.65897475e-06
0.0001644482621
-0.0001644482995
-2.658937373e-06
3.700604911e-06
-3.823875485e-06
0.0001643249635
-3.850111793e-06
0.0001646589191
3.982964365e-06
-3.42754686e-06
0.0001647041139
-2.232565791e-06
0.000164122201
2.395274932e-06
-2.378823774e-06
0.000163872025
2.418777038e-06
-0.0001639119783
0.0001601256621
2.678140564e-06
-0.0001601269902
1.501123217e-05
0.0001628194994
-0.0001346270043
1.67882408e-05
-0.0002235381773
0.0001589027528
-2.867828338e-06
-0.000158511693
0.0001592655787
-3.471196425e-06
3.188741877e-06
-3.553178679e-06
0.0001596300155
2.856453178e-06
0.0001602777027
0.0001625664115
-4.308421331e-05
-0.0001338853413
4.376418102e-06
-3.793413179e-06
0.0001619834066
4.359209263e-06
0.0001610533308
2.587531088e-06
0.0001608759247
-0.0001603661192
2.354188107e-06
0.0001605994622
2.356590701e-06
-2.476451749e-06
0.0001622661781
2.740384644e-06
-0.000162530111
0.0001620360206
-0.0001619845625
-2.750807489e-06
-4.578404214e-06
0.000161192443
-0.0001658726842
4.728403022e-06
0.0001632311055
-3.896506149e-07
4.370868973e-05
-0.0002091917233
-0.000162299619
-1.41341039e-06
9.247134612e-07
-0.0001465254024
0.0001595777994
-2.125339594e-06
-0.0001565277463
-2.248792615e-06
0.0001606699796
0.000205105042
1.462827792e-05
-0.0002197333199
4.305946679e-05
-1.902396471e-06
0.0001639479717
1.41378246e-05
0.0001634492311
-0.0001345275889
2.491668671e-06
-2.579517776e-06
0.0001612465055
-0.0001611202958
2.399637974e-06
0.0001612123265
2.462723143e-06
-0.0001610149321
2.927745576e-06
-2.939104694e-06
0.0001621893878
-0.0001621780287
2.948658468e-06
0.0001619937073
-0.0001620146202
4.529957665e-06
0.0001626938258
-0.0001530859589
3.139959097e-06
0.0001622660803
-0.0001608760817
0.0001608434392
-2.774881567e-06
-0.0001609138918
3.335902924e-06
-3.428784412e-06
0.0001609363207
3.217856434e-06
0.0001611411075
4.188721317e-06
0.0001604773413
-0.0001602378469
3.958219538e-06
0.0001604683487
3.024426243e-06
-0.0001599871005
0.0001613878892
-2.69423919e-06
-0.0001613472131
2.665502528e-06
-2.750851329e-06
0.000161473238
0.0001612846652
3.160350962e-06
0.0001610153201
-0.00016077151
3.073747948e-06
0.000160858113
2.809609854e-06
-0.0001607597934
3.23175475e-06
-3.357291924e-06
0.0001644793183
0.0001642447544
3.57651811e-06
0.0001644466336
2.587068885e-06
-0.0001643747277
0.000165123574
-0.0001650867418
-2.454769487e-06
-2.886897338e-06
0.000164954547
0.0001646510636
3.136805682e-06
2.483848306e-06
-2.601551984e-06
0.0001633137167
-2.893460015e-06
0.0001630429208
2.806450495e-06
-2.425261916e-06
0.0001631615952
2.421576694e-06
-0.00016315791
2.537191962e-06
-2.582637254e-06
0.0001628675532
-0.0001628221079
2.460701458e-06
0.0001629773759
-0.0001629008854
2.688477343e-06
0.0001619416108
-0.0001616814297
2.733432875e-06
0.00016229086
-0.0001623358156
1.541441931e-05
0.0002080094215
-0.0002234238408
2.444389297e-06
0.0001630275113
-0.0001630111991
0.0001631405267
2.364763864e-06
-0.0001630609012
0.0001637583384
-0.0001637912949
-2.345867278e-06
-2.233190715e-06
0.0001638362499
0.0001633954113
2.3969718e-06
0.0001660182744
-0.0001658951234
-2.685517377e-06
2.518564473e-06
0.0001661762812
-2.67657132e-06
2.358468479e-06
0.0001662233492
0.0001672326867
-2.820743423e-06
-0.0001671015614
3.506403306e-06
-3.7099727e-06
0.0001674362561
3.372049263e-06
0.0001673059632
3.912938932e-06
-3.905330699e-06
0.0001679690015
-0.0001674263693
0.0001676293355
-0.0001659317575
2.534342746e-06
-4.135400071e-06
0.0001689924461
-0.0001673913888
0.0001687375606
-0.0001686040682
0.0001675243902
-2.37721891e-06
-0.000167474387
2.8515044e-06
-3.04505843e-06
0.0001677179443
2.689460522e-06
0.0001677978389
3.207922177e-06
0.0001672819933
-0.0001673513974
0.0001675142612
-0.0001673008429
1.418270056e-05
-4.394423516e-05
0.0001710046257
-0.0001412430911
0.000169696489
-0.0001596491885
7.091923014e-07
-7.358952875e-07
0.000170439444
-0.0002148248676
0.0001715898248
-0.0002317427351
0.0001595927947
-0.0001589569526
0.0002053598722
-0.0002207690954
-1.32352685e-06
0.0001682572328
2.322387561e-06
-2.546050783e-06
0.0001661489006
1.482798483e-05
-4.311727048e-05
0.0001653418143
1.176532913e-06
0.000161368031
-0.0001477165791
-3.03638543e-06
0.0001652396537
-0.0002145181908
0.0001683645349
0.0001605070665
-0.0001506149592
0.0001588251298
-0.0001585865732
2.67506677e-06
-2.093342114e-06
0.0001619785821
-0.0001637656148
0.0001626472684
0.0001600352159
2.129726274e-06
0.0001602596778
0.0001607998438
-1.565856271e-05
5.133670306e-06
-0.000149251734
0.0001632612218
-0.0001352110948
0.0001622258406
-1.804092556e-05
-0.0001430821605
-0.0002272326488
-0.0001590178153
0.0001601600858
-2.697799675e-06
-0.0001584453552
-0.0001562396908
1.849709173e-06
-2.01723235e-06
0.0001629002642
-0.0001637082888
0.0001636556015
-0.0001489134477
0.0001612662117
-0.0001609961149
2.204281499e-06
0.0001614615681
0.0001620790903
2.951767214e-06
-2.965722244e-06
0.0001622438685
-0.0001622299135
0.0001622919959
-0.0001622793334
3.014546592e-06
0.000162134858
-0.0001620094455
0.0001621986478
-0.0001621498234
3.521335723e-06
-3.612910671e-06
0.0001605047817
-0.0001604928399
0.0001605853913
-0.000160297279
0.0001605153184
-0.0001605806228
3.826891111e-06
0.0001606466468
0.0001606627982
2.77776809e-06
-2.83771006e-06
0.0001612473288
-0.0001615133095
0.0001615402263
-0.0001616510666
0.0001606121792
-0.0001605110883
2.957024865e-06
0.0001607289023
0.0001608374906
-0.0001640137785
3.447947149e-06
0.0001640747923
-2.821846369e-06
2.777088976e-06
-0.0001639690211
-2.89842215e-06
-0.000163951519
-2.69966251e-06
2.622874894e-06
-0.0001641843399
0.0001640290616
-0.0001639516351
0.0001641829172
-0.0001642886967
3.893634442e-06
0.0001645158091
-4.543722367e-06
3.014264427e-06
-0.0001627592387
-1.429066146e-05
-0.0001550891025
-2.979440105e-06
-0.0001639936309
0.0001642229267
-0.0001641881023
0.0001643879834
-0.0001646542381
2.561332227e-06
0.0001647757344
-2.488441724e-06
2.474828105e-06
-0.0001646406244
-2.502494841e-06
-0.0001646833023
-2.3682927e-06
2.258955835e-06
-0.0001646393878
0.0001646096628
-0.0001645031274
0.0001647321837
-0.0001646362311
2.985652018e-06
0.0001647287782
-2.576846545e-06
2.591286091e-06
-0.0001646506707
-0.0001643868474
-2.577697156e-06
-0.0001646644754
0.0001647502446
-0.0001647366556
0.0001648718092
2.597454594e-06
0.0001627389931
-2.673313062e-06
-0.0001626631347
0.0001627883241
-0.0001627735067
-0.0001629105059
2.743918503e-06
0.0001630356511
-2.941126099e-06
2.818944316e-06
-3.002731231e-06
-2.696351756e-06
2.603479365e-06
0.0001629901458
0.0001630852258
2.688728543e-06
0.0001625209461
-0.0001624762418
0.0001625991279
-0.0001625837125
-2.230115698e-07
0.0001639987209
-2.028799099e-06
-0.0001617469102
0.0001654181111
-0.0001502267034
-0.000165404404
2.569533979e-06
0.0001648662908
-1.574455748e-06
1.588162905e-06
-1.899054289e-06
-4.341534596e-05
-0.0001365882763
0.0001661822384
0.0001652615774
-0.0001632385549
2.270181848e-06
0.0001633653481
-2.448554575e-06
2.350526385e-06
-2.150432518e-06
-0.0001634643166
0.0001633990337
-0.0001631989399
0.0001635562739
2.243959759e-06
-0.0001630781358
-0.0001632491559
0.0001669467943
-2.079170094e-06
-0.000166773236
1.872649114e-06
-2.034679181e-06
0.0001671088243
1.748395022e-06
0.0001674506307
2.196987079e-06
0.0001665519721
-0.0001667239535
0.0001668862614
-0.0001665599088
2.096176586e-06
-0.0001665079156
-0.0001666188607
2.508579682e-06
0.0001661581135
-0.0001662058461
-0.0001657588244
-1.612497514e-05
0.0001690530372
-0.0001535507792
0.000212414524
-0.0002285394991
0.0001697595133
-1.270362916e-06
3.293253153e-06
-2.284322048e-06
0.0001687505822
0.0001685216626
1.75171974e-06
0.000167899569
-0.0001690432096
0.0001685106073
-0.0002102726221
4.370174867e-05
0.0001680546234
1.570350872e-05
-0.0002259761309
3.957128458e-07
-0.0001519832169
0.0001675253319
-0.0001380981333
-0.0001651350847
2.045924609e-06
0.0001652738366
-2.239774383e-06
2.118937444e-06
-0.0001650142477
-0.0001649343459
-1.935115075e-06
-0.0001634809163
0.0001652781817
-0.0001650943593
0.0001655599803
2.567462565e-06
0.0001660859888
-0.0001660398666
0.0001661664558
-0.0001661205522
2.821626336e-06
0.0001658171089
-0.0001657192379
0.0001658512108
-0.0001657375037
0.0001679084367
-2.115721073e-06
-0.0001678270572
2.203666183e-06
-2.365872955e-06
0.0001680706434
2.072120964e-06
0.0001681842265
2.527697068e-06
0.0001679094901
-0.0001678280101
0.0001679898342
-0.000167747076
0.000167515775
-1.965471924e-06
-0.0001669578354
1.194548194e-06
-1.669283804e-06
0.0001679905106
0.0001686821489
1.875012587e-06
0.0001682391036
-0.0001678794255
0.0001680851543
-0.0001678504355
0
0
0
0
0
0
0
0
0
0
0
0
0
0
0
0
0
0
0
-6.459832448e-08
0
-1.490675914e-05
-9.040986021e-07
1.036544713e-07
6.827238809e-06
0
0
0
-2.54304258e-05
3.080902606e-07
-6.055245081e-05
-1.840245322e-06
7.80741983e-07
4.926420836e-05
0
0
0
-7.025011529e-05
7.779956439e-07
0
0
0
0
0
0
0
0
0
-2.320774735e-06
0
-6.197966012e-05
-4.980800231e-06
2.261816508e-06
3.326740015e-05
0
-4.951850517e-08
-9.70015314e-05
4.025178688e-06
-0.0002212549123
-1.241777824e-05
8.475775308e-06
0.0001784462505
2.772638291e-05
-2.591659961e-06
-0.0002632117987
9.030683298e-06
-0.0003703282402
-7.612324101e-06
6.29832554e-06
0.0003389369855
9.990174044e-05
-3.226448629e-06
-0.000396081235
4.509903484e-06
0
0
0
-4.892234537e-05
-4.605477382e-06
2.206444737e-06
1.761731864e-05
0
-1.406157103e-07
-9.376166838e-05
5.413124045e-06
-0.000285195408
-2.523461588e-05
1.90878777e-05
0.0002144700762
6.613801109e-05
-8.769481909e-06
-0.0003593679528
2.302305249e-05
-0.0005788536754
-2.992841444e-05
2.575327382e-05
0.0005083739467
0.0002517636771
-1.677340965e-05
-0.0006442416455
2.35054137e-05
-0.0007973553907
-8.444312004e-06
9.004776486e-06
0.0007543749533
0.0004387887861
-8.578529061e-06
-0.0008316208412
3.280095582e-06
3.303237218e-06
-2.475570153e-05
9.858006731e-07
-0.0001971512638
-2.108921178e-05
1.656004201e-05
0.00012398421
3.850654548e-05
-8.971018191e-06
-0.0002825765288
2.513128869e-05
-0.0005874865091
-5.839650645e-05
5.544609433e-05
0.0004839558972
0.0002745297962
-3.184841036e-05
-0.0006878423117
5.214421422e-05
-0.0009331170339
-4.506692778e-05
3.925310636e-05
0.0008571730182
0.0005978847488
-3.359113852e-05
-0.0009979357032
3.196445922e-05
-0.001128869197
-3.922105123e-06
4.643105499e-06
0.001096278244
0.0008539280613
-7.43597925e-06
-0.001152054365
-4.003195944e-06
3.462755898e-05
-8.514048963e-05
6.335351662e-06
-0.0003499410634
-3.873676734e-05
3.565028679e-05
0.0002477806232
0.0001564430151
-2.602341082e-05
-0.0004636653955
4.664356749e-05
-0.000810082922
-6.808540482e-05
6.435962111e-05
0.0006972462851
0.0005371000092
-5.728549096e-05
-0.0009154988894
6.288541397e-05
-0.0011707285
-4.55304841e-05
5.547297442e-05
0.001096553583
0.0009473219801
-5.786991947e-05
-0.001222223801
4.620761284e-05
-0.00124936802
-2.644724412e-05
1.339898207e-05
0.001261705407
0.00115472489
-5.540567069e-06
-0.0012385303
7.661342757e-07
7.171416762e-05
-0.0001423137686
1.319080091e-05
-0.0004583662872
-5.093257632e-05
4.905989011e-05
0.0003397592221
0.0002722278952
-4.282207095e-05
-0.0005838666967
6.047085639e-05
-0.0009513012651
-7.350021228e-05
7.299189551e-05
0.0008351894394
0.0007398034594
-7.353437494e-05
-0.001056429213
7.040089604e-05
-0.001260458899
-3.088900424e-05
3.281976582e-05
0.001217101504
0.001129588817
-3.743794258e-05