/*--------------------------------*- C++ -*----------------------------------*\
| =========                 |                                                 |
| \\      /  F ield         | OpenFOAM: The Open Source CFD Toolbox           |
|  \\    /   O peration     | Version:  v2012                                 |
|   \\  /    A nd           | Website:  www.openfoam.com                      |
|    \\/     M anipulation  |                                                 |
\*---------------------------------------------------------------------------*/
FoamFile
{
    version     2.0;
    format      ascii;
    class       volScalarField;
    location    "0.51";
    object      p;
}
// * * * * * * * * * * * * * * * * * * * * * * * * * * * * * * * * * * * * * //

dimensions      [0 2 -2 0 0 0 0];


internalField   nonuniform List<scalar> 
3259
(
648.1281565
651.7784606
659.3256447
670.1146243
694.6082982
715.979663
742.6610292
783.4150483
826.943124
878.1036259
944.0060117
1054.309668
610.408106
612.9132565
618.262878
625.5567859
645.7678522
659.8053169
675.3965197
703.3123992
726.9786899
750.2007175
772.795896
832.4095503
570.1059389
571.3826034
574.2072591
577.7470648
593.8135528
599.7420404
604.8272108
618.6670823
622.1692624
615.8977361
586.5390453
495.6245206
528.2656051
528.3940651
528.7712335
528.7763742
540.7602604
539.6779078
535.6331368
536.8226299
523.1840486
494.8709807
437.9863145
332.7893694
485.9181153
485.0777627
483.3758991
480.4027347
488.5419756
481.7513547
470.4999462
461.8331212
435.0038251
393.2560986
328.1539019
233.9269297
443.9898585
442.3805967
439.0273107
433.7305669
438.5320659
427.5176079
411.2082361
396.3487011
361.9841063
313.8620949
249.6621477
167.2620115
403.218384
401.0347266
396.4458493
389.4677148
391.6485553
377.8253686
358.474893
340.1798182
303.8913532
255.5276009
195.5426948
125.7710455
364.1558101
361.5851389
356.160536
348.0912229
348.3574889
332.937631
311.9736589
292.469973
256.7321025
211.7205091
158.1766152
98.76927882
327.1870177
324.3985092
318.5005001
309.8430174
308.8277484
292.753212
271.409643
251.9578387
218.1168722
177.2295179
130.3721975
79.73366405
292.5486674
289.6812499
283.6129946
274.7862849
272.9454603
256.946888
236.1012235
217.4372869
186.1736554
149.5597036
108.6350531
65.38546745
260.3465017
257.5067756
251.5004017
242.8273282
240.5251713
225.1073964
205.4003581
187.8590748
159.4551553
126.9628255
91.2519629
54.15972961
230.5810784
227.8476336
222.0704707
213.7809426
211.2978593
196.7896714
178.5455592
162.380004
136.8657902
108.2114703
77.08258594
45.17102066
203.1774593
200.6060676
195.1740692
187.4222179
184.9684864
171.5717652
154.9372452
140.2864176
117.5740365
92.42929706
65.34017596
37.84147462
178.009379
175.6373172
170.6268743
163.5094358
161.2352
149.0567047
134.0874684
120.9927574
100.9373742
78.97720996
55.46627995
31.77174756
154.9138807
152.7638235
148.2210005
141.7923706
139.8060954
128.8876504
115.5772609
104.0238076
86.45639764
67.38121456
47.05522795
26.67572132
133.7035952
131.7873528
127.7357836
122.0202968
120.398732
110.7404901
99.04581767
88.98743033
73.73397216
57.27778692
39.80215941
22.34172876
114.1785482
112.5004266
108.9481546
103.9496775
102.7490025
94.32575784
84.18439738
75.55746599
62.45156399
48.38347652
33.47518665
18.61045293
96.13363119
94.69291734
91.63770828
87.34701027
86.60897726
79.38203893
70.74207507
63.4523617
52.34686152
40.47018662
27.89208332
15.35951029
79.3591444
78.15275014
75.58663769
71.98431766
71.75315035
65.66974747
58.49165923
52.44223621
43.20242528
33.34867797
22.90583927
12.49518644
63.66467646
62.68652812
60.59853452
57.66293949
57.95744324
52.96896367
47.17952524
42.33627025
34.83409252
26.85770975
18.39340008
9.945166061
48.79545154
48.04578914
46.42977399
44.13236606
45.05171483
41.07869908
36.54355954
32.95873427
27.07715767
20.85632829
14.2499988
7.647428909
34.75688593
34.21578287
33.05644519
31.41743561
32.68104287
29.81572781
26.48514952
24.12311971
19.78301925
15.2236831
10.3857312
5.541919831
20.63668864
20.36223446
19.67291235
18.68333541
20.87941352
19.01396684
16.84042335
15.68159796
12.82099681
9.852225653
6.716679556
3.568849852
9.384161416
9.164923417
8.825881095
8.315202095
9.327673413
8.422539015
7.377074835
7.498717328
6.075769075
4.638288113
3.157380694
1.667342307
1065.278228
862.0230619
981.3833305
1056.701754
817.3526405
857.4102762
1036.714638
976.5435302
1054.664692
1131.028955
562.9319827
1135.955619
1141.595189
1047.868923
1049.738109
962.8657663
1056.49085
939.6646277
1136.684444
1060.50292
-336.4207936
1091.916053
1052.398525
1017.846373
1093.526132
1063.087829
1096.436895
1163.863194
1130.917995
1103.05897
1140.021292
1169.531303
1174.213314
1168.054022
1004.87463
963.906039
966.6618337
985.344113
473.3063379
165.5921981
1103.050868
-325.8883028
119.9374312
-241.5257776
1099.234617
-272.6637389
87.46163055
630.719886
590.970431
821.4290484
705.9722239
716.8776985
979.7239254
1070.40176
1052.636452
1034.740759
882.1349763
632.5144709
1195.729839
1145.297728
848.9566062
950.721681
908.269568
1028.298701
1005.744319
1027.248467
132.2266277
1036.906347
438.6808568
694.8028666
509.4776001
628.1741104
1117.591528
1077.652171
1074.134151
1058.448236
1072.27753
1108.088624
1093.95245
1079.71641
1191.649476
1151.89442
1015.615104
997.0570593
974.0451291
640.0284539
539.9613534
1027.512469
250.0669351
412.3692366
303.97096
1110.972823
-482.1288792
-38.43943338
191.8972638
-85.45392042
1071.909326
1113.72636
1099.445815
1113.889454
1143.99325
1131.330078
1118.811425
1146.95858
1153.088904
1145.496251
1051.545316
1131.888168
1138.924785
1142.411621
1062.293808
1149.92579
1136.256035
1148.457374
1185.380954
1168.561501
1155.179149
1178.624785
1186.304003
1180.642649
1162.402097
1166.387427
1171.905908
970.4824875
975.6545652
967.1252669
711.1793896
980.7202841
347.1162206
481.9298856
610.4435396
1109.46261
1109.888899
1105.436116
-390.0731641
-234.2911332
-209.2814818
-223.7439275
1093.373917
1100.46754
1106.450998
-118.3277959
1209.451133
1208.466238
1148.196287
1145.854557
1153.51694
1143.563296
963.493599
1008.845769
1146.140398
1036.327413
1027.570308
1018.457696
1045.639796
378.9581712
360.710216
1121.663343
992.1300588
747.6020231
1119.349403
1131.08795
1125.556836
1069.877985
1191.604541
1181.954605
1206.405914
1200.856238
1157.14356
1160.958552
1156.782079
1164.001031
1160.337329
1174.497582
1169.04104
1007.280203
995.1905397
1002.863258
593.602982
613.8063368
681.1894774
548.9780142
557.831244
538.0826952
1017.218348
348.3131112
294.4541383
225.317625
1107.381899
1109.353448
1111.168445
-458.2206281
55.25265375
-6.106953706
172.8789316
157.9888124
172.0821706
-27.26264627
-161.5689275
-143.1675968
-40.37707214
1083.33167
1095.365176
1088.082949
802.4140937
837.878129
850.6827493
892.5877898
907.9813295
960.5500998
723.2599199
744.4206147
815.4740076
751.7289041
774.3498316
864.358343
782.2026629
808.3201506
925.2809335
904.1812304
918.7032195
981.9046857
1023.72234
1052.651333
1083.489932
639.6589353
646.3706155
721.0500026
647.9988146
649.6207004
744.4901568
648.6195487
638.0727215
767.6542376
725.0407151
725.7375379
795.9605931
789.8570212
788.4880721
868.7648468
556.7745578
550.3744844
621.8819927
547.0375503
531.1941528
618.909592
523.3154104
487.985649
597.435201
471.0588988
398.9837508
528.1440499
364.5311103
479.715517
462.8107895
527.536285
455.7682092
428.5267406
503.9640464
416.7985234
371.2144414
455.8984896
352.3598009
280.745493
364.1071832
255.2678391
411.8151429
388.1531917
442.7941234
378.7140426
344.9495018
405.585578
331.6044313
284.722969
346.8425358
266.77856
202.9513551
258.290695
181.2736581
353.3737487
327.4233138
371.7863165
317.2759079
281.8518976
327.3483841
268.3795714
223.6593213
267.3070738
207.092574
151.4554008
187.8902577
134.2949428
303.6616882
277.5505376
314.0274736
267.6382289
234.1030373
268.7999471
221.6885704
181.1991047
211.6632732
166.4622921
119.0679124
141.9024682
104.6001866
261.4652458
236.3942508
266.5197978
227.0794695
196.2797732
223.8278945
185.129368
149.4730359
172.4399738
136.6749663
96.86528846
112.8624303
83.9650345
225.5526943
202.1682093
227.2504397
193.6196339
165.8336708
188.0599971
155.9437127
124.6975994
142.7214082
113.6069291
79.68726668
92.14519572
68.63559055
194.8261366
173.4359063
194.5188506
165.7099943
140.9215414
159.145696
132.2105616
104.8762311
119.337271
95.25901417
66.19465145
76.01540685
56.72846592
168.3954484
149.0843267
166.9747541
142.1750485
120.2324498
135.3956249
112.5913681
88.71236485
100.5328587
80.37123619
55.37023863
63.26978138
47.24378744
145.5162926
128.2546693
143.5759482
122.1257035
102.8186161
115.6029681
96.13471886
75.31339856
85.13191753
68.08184193
46.52913657
52.99551814
39.54244277
125.572079
110.2743496
123.5153474
104.8768206
87.97840394
98.8903819
82.14983505
64.04456139
72.31706821
57.78373943
39.19395661
44.56943149
33.18818469
108.0627437
94.61708902
106.1603604
89.89774558
75.18862539
84.60619563
70.12763754
54.44457913
61.50329312
49.03889692
33.0232468
37.55325836
27.87103888
92.57729086
80.86261618
91.01459791
76.76850369
64.04911405
72.26250702
59.68054528
46.16799901
52.26286298
41.52068448
27.76485237
31.63143012
23.36331929
78.77416213
68.67075789
77.67972228
65.15236743
54.24741567
61.48368794
50.50700098
38.95080969
44.27310291
34.98076262
23.22812772
26.56929746
19.49401016
66.36257782
57.76185447
65.83317536
54.7751667
45.53415392
51.97575396
42.36740925
32.58717947
37.28705687
29.22661391
19.26587095
22.18868954
16.13277388
55.09885881
47.90265777
55.20684949
45.40894508
37.70306172
43.50100369
35.06391567
26.90986975
31.10940231
24.10348167
15.76458707
18.35108495
13.17922599
44.78434649
38.89846846
45.57851817
36.86266493
30.57992163
35.86226586
28.4293997
21.77812838
25.58084895
19.48311238
12.63952719
14.95089177
10.55667187
35.24304242
30.57643269
36.76050313
28.9674667
24.01223225
28.89147559
22.31764302
17.07089197
20.56584522
15.25630266
9.822381264
11.90892025
8.20147843
26.28696
22.77657894
28.58344297
21.57059067
17.86752167
22.44120764
16.6033139
12.68629463
15.94816399
11.33024337
7.246599056
9.158495521
6.053601194
17.76050185
15.35778621
20.89126701
14.53684968
12.02920257
16.38351119
11.17616037
8.534114557
11.62988328
7.620118072
4.842954013
6.632235477
4.0529201
9.527981899
8.197281546
13.54791547
7.748178099
6.390787515
10.60489819
5.933532542
4.525927004
7.522215193
4.042360664
2.543136547
4.260724286
2.142581094
1.706934296
1.390910534
6.433297949
1.288122099
0.9656690475
4.999182613
0.8552174975
0.5744012539
3.534316888
0.5418148458
0.6471046923
1.966814107
0.506221759
1093.189486
1121.246841
1092.68808
892.6671158
937.7255865
905.6679301
601.718227
1001.187408
1054.532166
1016.426025
1111.311703
1067.624757
1013.847211
822.88632
895.758655
861.0659026
943.8265863
905.7302344
829.7001767
994.1619119
929.4838563
969.4031586
1006.434522
1041.757369
1011.586022
1059.307435
1053.96289
1048.058431
1124.957005
1119.908661
1125.787534
436.0443677
629.7057672
665.2239321
581.1147338
409.5489173
582.1802742
552.428959
1139.531485
1133.587295
1129.681427
1173.384105
1189.636775
1102.803749
1130.289295
983.6934671
990.68781
942.8637578
1042.041496
1035.311529
1043.583333
922.5547804
951.9045636
993.5752394
916.0561522
916.8241892
1050.537531
1085.692675
1080.196104
1086.087578
1041.268482
1052.580848
1063.395486
1028.611034
1048.061847
1029.703804
1083.663474
1093.991888
1103.757347
1073.785865
1083.92648
1073.487968
1100.093216
1094.834742
1090.509243
1159.442318
1154.306526
1158.433016
1121.678113
1131.296508
1140.616172
1113.075179
1122.138356
1112.401689
1157.392748
1167.536784
1149.901526
1158.896304
1148.862115
1175.228897
1169.939141
1164.70783
991.3109432
1000.4364
1022.162606
972.8762477
992.5564553
977.4111767
427.559581
474.8636535
514.8051517
197.3893657
251.8553949
213.559762
68.87500084
106.8182311
151.74702
-231.4988845
-65.20777654
620.8262931
672.5762661
677.1294765
668.6398607
666.9996384
608.0797425
800.9365315
713.2817119
705.8612507
696.8154558
741.103281
747.2914166
794.6238541
741.4640412
678.4564171
884.1212435
804.6305582
716.6665181
1064.370221
1059.732414
1065.765319
1046.587952
1053.083365
1058.317946
1041.237556
1047.358145
1040.747826
676.9694024
632.3044712
670.063018
564.0529661
597.8732944
673.984549
1202.283896
1205.026406
1199.41897
952.1109401
987.8061349
773.3147517
947.4743618
973.0010675
965.4278187
919.8886288
952.3904369
931.6077394
1021.365533
1027.945477
1034.847471
1011.57651
1020.244882
1013.866927
261.1867338
719.9024161
847.6202323
791.409648
659.0472832
895.1518861
654.5282457
793.2742814
724.4258498
1069.336539
1074.626317
1079.939855
1063.647089
1069.158345
1063.402492
1080.046168
1074.577323
1068.939404
1103.888726
1099.125371
1103.617935
1089.475614
1094.293215
1099.162021
1084.92763
1089.601581
1084.111077
1186.641321
1193.502614
1198.791481
988.2962812
991.5404839
1001.775443
972.664014
979.5693868
979.2318128
380.6316774
336.7367222
360.6156117
260.3738545
300.0180322
343.9424979
-22.36694764
33.71968423
10.44077503
1109.394809
1114.455347
1119.304605
1104.290004
1109.421092
1104.00564
1120.114472
1114.676195
1109.220506
1140.449518
1136.810296
1141.423484
1127.458884
1132.030268
1136.115881
1123.928952
1128.084829
1122.70666
1145.577994
1149.92945
1154.837829
1140.523102
1145.104577
1140.414662
1153.173427
1149.345158
1144.751545
1179.590896
1174.943386
1180.594287
1164.576343
1169.542453
1174.056726
1159.837858
1164.750989
1159.473478
390.6569503
436.2162729
394.8045166
511.753097
475.4339336
434.1334672
558.4262844
522.1789844
564.3783393
-179.4650581
974.6524426
978.0713265
959.6001126
1040.352473
1030.437066
998.1041238
1418.799037
1147.064417
1084.935819
1079.404039
1112.976096
1218.68685
970.6422552
1103.773488
1069.6206
781.1537741
819.2854589
737.9098229
719.0890158
729.0795812
742.3783951
757.5386415
774.6479884
791.55097
671.714388
678.6235438
704.5045644
688.055911
698.2368269
728.6786105
708.7673572
716.6686785
773.6347704
763.8319435
773.0492127
793.7398158
802.5181745
813.0293834
838.8790069
847.2084961
859.8215492
892.6910622
1045.104068
1053.895044
1064.021417
620.3444058
624.7069833
652.3838422
630.0259646
635.4655081
667.7131538
640.3267373
637.1149046
697.557657
682.1043388
686.8378869
709.195282
700.6525543
704.9554104
732.8728722
716.246589
719.2516209
755.8402127
567.2094918
568.4047759
596.8102278
569.5158107
570.1171093
602.645918
569.8268343
558.0521443
617.2889814
597.7601909
598.0671431
619.988948
596.6318404
594.9353546
621.8633756
583.9694173
577.5793584
611.5271421
545.1214745
528.0335787
572.3752386
442.9344967
414.941
468.3279983
514.2311336
512.6807888
540.6091674
510.3200888
506.8908007
538.1355278
502.4334351
484.1893964
539.1615891
517.267774
513.792671
534.1912361
499.9863581
493.7679726
517.9203303
467.7284203
455.8645555
484.0413201
407.232856
386.0632238
417.1317959
304.5057635
263.4118224
291.0318352
463.0023488
459.1504952
485.797442
454.0813061
447.5829243
476.6318845
440.049785
418.2010692
467.0851981
444.550917
438.2473482
456.1034066
415.2293475
405.8942997
426.3003938
371.2415279
357.0756872
379.4166476
305.9128945
285.387805
307.4183882
214.5479504
182.3156897
198.7950122
414.495976
408.995829
433.8313116
402.0577356
393.5312154
419.8604898
384.0246251
360.6578103
403.1729848
381.4437336
373.8117121
388.9302043
346.2430596
335.3643095
351.3499566
297.4473818
282.9686831
299.3416637
234.0598439
214.8072881
230.0333821
154.8651488
132.2106044
142.8079993
369.3901535
362.8341884
385.6137458
354.7611907
345.0780848
368.604189
334.4536784
311.219315
347.7089229
327.4978828
319.4022789
332.1302221
291.1819494
280.3726997
292.9879646
243.5369463
229.8642544
241.5313003
185.126071
168.0964057
177.7498592
118.1341443
99.48845057
106.3955638
327.9855861
320.8636739
341.5273877
312.2576198
302.1464839
322.9397575
290.9908315
268.8534478
300.1663472
281.7026425
273.6656498
284.3680316
246.3578348
236.1605832
246.3534109
202.3343649
190.0867993
199.110208
150.5265684
136.2077637
143.2363077
93.43691793
78.55003205
83.20092088
290.2837002
282.9968373
301.6204931
274.3100533
264.2918348
282.618795
253.1409095
232.5306135
259.4339624
242.7958118
235.1279814
244.162552
209.5682
200.2027192
208.5323954
169.7511906
158.9337891
166.0631025
124.4473471
112.1486357
117.6014794
75.7872759
63.32675655
66.71901195
256.1584642
248.9985104
265.7116192
240.5441379
230.9532595
247.0920132
220.2177181
201.2643372
224.4753218
209.6017674
202.4741983
210.1491277
179.0523351
170.5910571
177.4845619
143.4901349
133.9900496
139.7431797
103.9327403
93.34744217
97.64650159
62.32792921
51.76771514
54.38970368
225.3714475
218.5379246
233.5131785
210.5216181
201.543786
215.7935959
191.5358164
174.2632336
194.3324283
181.1235907
174.6145957
181.1790229
153.4571412
145.8957133
151.6717113
121.9537833
113.6308071
118.358738
87.44403447
78.32110972
81.78478704
51.72943211
42.70014335
44.77570449
197.6356667
191.2539397
204.6726281
183.8062322
175.5328699
188.1402062
166.3673925
150.8019772
168.2606964
156.5533993
150.6821286
156.3373578
131.761656
125.0583271
129.9529271
104.0159746
96.73614385
100.6824603
73.94447396
66.07346573
68.91606726
43.20110165
35.44083837
37.11385097
172.6493769
166.7924334
178.8305787
159.9882895
152.4745235
163.6610448
144.1956226
130.2852447
145.5691837
135.2112775
129.9678547
134.8772534
113.1876622
107.285144
111.4770913
88.8687652
82.51649255
85.85496312
62.714586
55.92266158
58.29286093
36.21873739
29.5328329
30.9025479
150.1130963
144.8177666
155.6405039
138.6898806
131.9531631
141.9192687
124.5640485
112.2258573
125.6923599
116.5406524
111.8997201
116.1945434
97.13209405
91.96778038
95.59443351
75.92002605
70.39699713
73.25530195
53.23970839
47.38531726
49.38935384
30.41579722
24.65435916
25.791329
129.737635
125.0163003
134.7794004
119.5709016
113.604707
122.5274361
107.084814
96.21918075
108.1660727
100.0897424
96.01844132
99.80490495
83.12458683
78.63633391
81.80475792
64.72771296
59.94930322
62.42390748
45.14354791
40.10983154
41.82607591
25.52779083
20.57311267
21.52898418
111.2488119
107.0981969
115.9443661
102.3250339
97.10834633
105.1425314
91.4239839
81.92603415
92.60340455
85.48434956
81.9471757
85.31254835
70.78950377
66.9196122
69.71456667
54.95062084
50.84414725
53.00953859
38.1414521
33.83228512
35.31993559
21.3577603
17.11575943
17.92934712
94.39042884
90.79794459
98.85834495
86.67787685
82.18391355
89.46489419
77.29782811
69.05208955
78.67956125
72.41118733
69.37351732
72.39128139
59.82415054
56.52144918
59.01146449
46.32110481
42.82455948
44.73968029
32.01591122
28.35138439
29.65618246
17.75679699
14.15114233
14.85204426
78.92463998
75.87088094
83.26652979
72.37895188
68.57825295
75.23140248
64.4848026
57.35749975
66.10603142
60.60010472
58.03162734
60.76376771
49.97815809
47.1985005
49.44024513
38.62203074
35.68344356
37.39643268
26.59461857
23.50939644
24.66736627
14.61023801
11.57912808
12.18985226
64.62641214
62.08882404
68.93407125
59.19920862
56.04859399
62.19199674
52.73355766
46.64273273
54.65446241
49.83425213
47.70529093
50.2016352
41.04428931
38.74899704
40.78941453
31.67270349
29.24818881
30.79935483
21.73771327
19.18171089
20.22134355
11.83073228
9.3244987
9.861818794
51.29606765
49.24202233
55.63943783
46.92840651
44.38525667
50.11998774
41.78864057
36.7315233
44.13694658
39.92878926
38.20933687
40.51420968
32.8436943
30.99863756
32.87940819
25.3165388
23.36972784
24.79453531
17.32668642
15.26479749
16.2106857
9.349444222
7.328306153
7.806008345
38.67133475
37.10940003
43.17762196
35.37253043
33.4253204
38.82533017
31.4500117
27.40725934
34.38667819
30.70233556
29.36774914
31.52630728
25.2156503
23.79258703
25.55084046
19.41798399
17.91968031
19.24823458
13.26110056
11.66806736
12.54173272
7.105429503
5.538256608
5.969250101
26.64827607
25.58183393
31.34446067
24.3693653
23.00416031
28.1575134
21.62624268
18.5281007
25.18449743
21.97897888
21.01229227
23.06301495
18.01615876
16.9937241
18.66212713
13.86037458
12.78858024
14.04698263
9.453405268
8.310222757
9.131678688
5.038575487
3.90265348
4.299883578
15.16269624
14.44670443
20.03395219
13.75865283
12.96891794
17.93121276
12.15930217
9.955975902
16.39163902
13.61393677
13.00272041
14.9794348
11.11865462
10.48064507
12.0881849
8.538235639
7.876682061
9.089403723
5.820066168
5.112176546
5.901063676
3.089690671
2.371143136
2.746771141
4.671762885
4.298269552
8.891166954
3.99389726
3.717874036
7.917536679
3.408291385
1.809673951
7.872933363
5.476799783
5.21666622
7.144581784
4.418153537
4.151370416
5.717545879
3.350622583
3.083200607
4.274784718
2.278413495
2.003448655
2.769177325
1.216562429
0.9085793829
1.264139839
1073.959603
1083.570813
1073.947235
867.8307582
888.872902
878.9849827
1075.739466
1060.349017
1041.30268
887.3886644
874.3077301
846.4625979
1021.310855
1000.276527
1015.625677
985.5714466
997.9943862
988.0863033
1120.305477
1128.6222
950.2167031
959.2530289
972.706793
35.8324304
813.3612818
778.260804
783.3105144
898.8976442
858.2884703
885.4609268
821.7514834
825.9615865
876.4869659
178.9113579
562.3025136
553.4417005
560.5393217
813.7741365
833.3682852
820.960244
859.7394865
846.276268
825.5685243
864.029487
888.4387449
873.7791243
919.8312071
903.7663548
877.9711421
924.3064415
954.5916988
936.7302582
993.9435048
973.562749
941.7474205
730.1899018
751.5762597
743.4961642
768.3446698
759.8381
737.2313314
804.421935
782.53797
792.3573927
759.1460654
786.0702884
777.0907171
804.8689078
795.314866
766.6793757
851.3272026
823.9387414
835.3049649
790.3016913
825.2545406
814.8103044
848.6596353
836.4789507
798.9385554
908.3438985
873.4020304
888.1656466
1032.614656
1043.378476
1033.577441
1063.219729
1053.16097
1042.468949
1073.642019
1063.567051
1073.514334
642.0701195
664.3137876
660.7856332
671.0976361
667.8034391
644.3629548
715.1097228
691.5456447
696.168108
649.1626939
676.8362638
674.1299235
680.9168402
679.1307198
649.7482878
738.7138004
709.02453
712.8068469
646.517903
682.4618877
682.0834933
680.4270366
681.9232839
643.0735611
761.6025065
721.8522577
724.159808
857.6136242
836.3808446
843.8858195
555.0743237
576.3828612
577.1239674
573.7516593
575.3202914
552.9988507
621.1043368
598.0421834
597.6262389
542.8394843
568.5418198
571.5393703
559.5116472
564.5975977
537.6238879
620.8317041
592.388993
588.8084821
513.7058137
544.9124411
553.0483412
522.2463014
534.7709023
502.0461435
605.486739
569.3008121
558.7490115
451.0066016
487.8292373
506.6668685
437.4398587
465.9650245
427.6548685
554.4409388
507.640045
478.915915
323.077828
363.4150737
401.061588
316.6548848
282.9208209
400.8661
357.3297977
474.6825392
493.9296241
498.2294577
483.6678166
489.1122811
469.0780465
531.1457642
509.8277346
505.2800863
447.8182287
470.372885
477.4723808
452.6906067
462.1788182
438.802358
511.5776199
486.4495658
477.8416662
403.43276
428.9923467
441.7007335
397.5766955
414.3411495
388.2634027
471.1619291
441.9736584
425.814883
331.4376209
357.5903407
378.6903427
305.6136472
332.9515807
306.9898616
392.7777103
361.3798868
333.1987334
217.5231234
238.9637452
278.7473829
209.3293319
190.2509668
254.912405
230.7204856
404.6970016
421.1210929
427.8969249
405.4424446
413.6387206
396.8120577
449.791839
431.3019583
423.6616892
368.4248883
386.6044878
396.4630604
363.8320807
375.7628425
357.1986499
416.5478595
395.5366396
384.0267236
317.1135579
336.3387575
350.7159093
303.7198532
320.6624652
301.4696261
363.954125
341.4562439
324.3885512
246.8086017
265.2237248
285.4954643
219.6149565
242.2376256
224.5316154
283.2985818
261.7663164
237.9959746
154.5750248
167.6736537
197.0153577
143.4530115
130.6161013
173.1130647
157.5847018
345.4308401
359.3147536
367.1378311
341.488434
350.7859816
336.7936353
380.7646582
365.4342478
356.2606508
306.3126501
320.4037687
331.3741082
295.8560805
308.558192
294.5067526
339.8268976
323.6261068
310.9977799
254.1475074
267.9280744
282.3065987
236.8653738
252.7706819
239.234684
283.8053085
267.5987464
251.3837212
188.7337218
201.0584283
219.895857
162.2389235
180.8976283
169.2017227
208.4832249
193.9702941
174.3509783
114.0893938
122.6667124
143.9308146
99.53560649
91.52777592
119.0365803
108.6876515
295.5449474
307.2134123
315.3480229
289.1243434
298.4843243
286.84611
323.4286655
310.6694146
301.272472
257.0946347
268.4213689
279.1096708
244.9937291
257.0484629
245.9137297
281.2928707
268.8270794
256.5419878
208.7207281
218.9572706
232.2799643
190.6179817
205.08118
195.247432
226.9011417
215.5937941
200.7354205
150.8826017
159.2535009
175.4664334
126.079561
141.9455433
134.408385
158.8257096
149.8652283
133.5356933
88.08368759
93.27727162
111.0431885
73.74071292
69.71583601
84.59719297
78.68255901
253.5843191
263.4100359
271.3918013
245.9695975
254.9421306
245.2269719
275.7266266
265.1007232
256.0023116
217.2819656
226.4810473
236.4836434
204.9566816
215.9664275
207.0090138
235.3816689
225.4120559
214.1263864
173.6075191
181.6019358
193.4849822
156.6473643
169.3441932
161.7428909
186.0422697
177.4261222
164.2824031
123.4184762
129.6201113
143.3833193
101.8999165
115.4903204
109.8833876
127.6276485
121.398753
107.221953
70.34931453
74.26772581
88.51905641
58.60373634
55.40512387
65.86196913
62.09954731
218.1398553
226.458915
234.0186056
210.1593822
218.5088881
210.3419857
235.931115
227.0315806
218.5124117
184.7031917
192.2682774
201.410619
172.8648886
182.7451512
175.4329645
198.506461
190.4272681
180.2642577
145.8019455
152.1900594
162.6656456
130.3637238
141.4427192
135.4060392
154.5809525
147.8241808
136.3614796
102.1991031
107.0253108
118.8693285
83.58555467
95.05361129
90.69270459
104.6171201
99.68502176
87.72901984
57.17901535
60.15222015
72.0961629
47.08658863
44.66741364
52.44304986
49.67480133
188.0032039
195.0956326
202.086967
180.1698748
187.7912617
180.8689005
202.5117279
195.0003848
187.1918803
157.7022329
164.0030581
172.2369935
146.7097579
155.4849575
149.4302524
168.4666994
161.8241394
152.7780265
123.3166843
128.5211315
137.7136593
109.4462891
119.1147913
114.2197763
129.6877105
124.2643053
114.2602914
85.43377219
89.28261281
99.48033431
69.28469215
79.04159295
75.57636859
86.58253781
82.70483273
72.55327422
46.97210123
49.29920271
59.44700516
38.28281216
36.40528263
42.40287247
40.27864215
162.2051012
168.2921457
174.6548439
154.811948
161.6784938
155.7638186
174.2184984
167.8264124
160.7714961
135.0492065
140.3589923
147.7011157
125.0653918
132.8047217
127.7262373
143.6426535
138.1059845
130.1154961
104.8056543
109.1173531
117.1676106
92.46435798
100.8926455
96.85428393
109.5616392
105.1242987
96.4004927
71.89809221
75.02932573
83.82104135
57.86789777
66.22747038
63.41958569
72.29438457
69.18224821
60.49795138
38.87681432
40.73636664
49.42702349
31.39471826
29.90666999
34.63690206
32.96930449
139.9614019
145.2254696
150.9494226
133.171511
139.2994589
134.2031453
150.0696283
144.5850595
138.2751882
115.8304497
120.3542816
126.8517127
106.9068702
113.6985588
109.3878761
122.8569168
118.1847685
111.1648637
89.33194817
92.95593369
99.99378313
78.44206043
85.77703368
82.39571849
92.99631429
89.30737114
81.71182225
60.76993431
63.36091236
70.94718522
48.58231534
55.77836262
53.46373327
60.7481269
58.20389291
50.73544105
32.3405768
33.85160824
41.32702635
25.90094112
24.70112224
28.49874041
27.16522625
120.6337063
125.2216848
130.3218378
114.533606
119.9583873
115.5300698
129.2865858
124.5411578
118.9444097
99.35133435
103.2460417
108.9580852
91.47857751
97.41440754
93.713943
105.2429192
101.2546086
95.11317473
76.22357513
79.30859629
85.44492746
66.6898962
73.05932854
70.19046088
79.15440908
76.04484015
69.44503459
51.4766557
53.65271072
60.19802614
40.90721368
47.11692313
45.17977266
51.25291503
49.13934668
42.69729627
26.98101962
28.22704647
34.66922614
21.44705784
20.46519074
23.56145647
22.47798285
103.7110014
107.7396829
112.2439596
98.33822696
103.1035539
99.22485032
111.2496805
107.1097599
102.1838147
85.07903144
88.46474654
93.45434491
78.21748437
83.382575
80.17313872
90.14663028
86.70501425
81.35467719
64.98672556
67.64268826
72.97210823
56.70863752
62.22253767
59.75976724
67.43226457
64.77821409
59.05981974
43.60805528
45.4597278
51.09885142
34.47179926
39.83185962
38.18859333
43.3231404
41.54199319
35.98055266
22.52606052
23.56693741
29.11669213
17.78506188
16.97115051
19.52951207
18.63702616
88.77752224
92.34351332
96.28592379
84.14262587
88.29471754
84.86863445
95.4675299
91.82599406
87.52485305
72.59626838
75.56851033
79.89700202
66.69757949
71.16669724
68.35468455
77.07093417
74.07049007
69.43381109
55.24650057
57.55829416
62.16233798
48.12865819
52.8805862
50.74238959
57.38495526
55.09337897
50.1589613
36.86017891
38.45568554
43.29993499
29.00518117
33.62269536
32.21075064
36.60834193
35.0875017
30.2930914
18.77552432
19.65605005
24.42451111
14.73561837
14.05253688
16.19300097
15.4484867
75.49084354
78.67393395
82.09019188
71.5883369
75.1723223
72.11945558
81.54228607
78.31187282
74.58987138
61.5720237
64.20678247
67.93036413
56.58686761
60.42433328
57.9358919
65.6295466
62.98758144
58.99770438
46.71261548
48.74636733
52.69491266
40.66772529
44.73712518
42.86037486
48.67462762
46.67411181
42.44084201
31.00299735
32.39418915
36.53526375
24.30330157
28.26327359
27.03495799
30.84855769
29.53365567
25.41628809
15.57877138
16.33280761
20.40916477
12.16520828
11.58505897
13.39743857
12.76886078
63.56331781
66.43133718
69.3551856
60.38234181
63.43956458
60.69329072
69.14894496
66.25697151
63.07157715
51.73912258
54.09845154
57.26650638
47.62229679
50.88289028
48.65804816
55.51850479
53.16863532
49.76847143
39.15575186
40.96421334
44.31673068
34.10777661
37.56108269
35.8955359
41.04071725
39.27523
35.67358266
25.85902073
27.08636563
30.60048694
20.20932509
23.58019699
22.49859118
25.8464201
24.69550644
21.18303851
12.82130318
13.47466369
16.93139425
9.973096024
9.474820046
11.02711642
10.49017299
52.75373097
55.36192954
57.8228958
50.28013227
52.847125
50.35261227
58.0145523
55.40008832
52.7137513
42.87601692
45.0114666
47.66659538
39.58801306
42.31809207
40.30693842
46.4909731
44.37843482
41.51970314
32.38742344
34.01465918
36.82085256
28.27289745
31.16546795
29.66959377
34.27607543
32.70010764
29.67196278
21.28812184