/*--------------------------------*- C++ -*----------------------------------*\
| =========                 |                                                 |
| \\      /  F ield         | OpenFOAM: The Open Source CFD Toolbox           |
|  \\    /   O peration     | Version:  v2012                                 |
|   \\  /    A nd           | Website:  www.openfoam.com                      |
|    \\/     M anipulation  |                                                 |
\*---------------------------------------------------------------------------*/
FoamFile
{
    version     2.0;
    format      ascii;
    class       surfaceScalarField;
    location    "1.86";
    object      meshPhi;
}
// * * * * * * * * * * * * * * * * * * * * * * * * * * * * * * * * * * * * * //

dimensions      [0 3 -1 0 0 0 0];
oriented        oriented;


internalField   nonuniform List<scalar> 
5975
(
-1.199722594e-05
0.0003524784404
1.138593594e-05
-0.0007048858462
0.0003530186957
0.001411562115
-9.704212053e-05
0.0002022518467
-0.002830384832
0.001417735536
-0.0001041225455
-0.000277478904
0.002683167365
0.0002659068322
-0.002528438267
-0.0002106491925
0.001865098517
0.0002020875153
-0.001593087177
-9.818259337e-05
0.0007722662092
9.23541284e-05
-0.0005343468864
6.068835181e-05
-7.564086508e-06
5.956250848e-06
-5.981423908e-06
0
0
0
0
0
0
0
0
0
0
0
0
0
0
0
0
0
-4.053143837e-05
0.0007347406859
4.053139226e-05
-0.001471830611
0.0007370899716
0.002949635695
-0.0002090597759
0.000207793939
-0.0029418965
-0.0002438661211
0.002601688231
0.0002374939492
-0.002405558154
-0.0001752804045
0.001624394081
0.0001640817677
-0.001344059356
-6.87086178e-05
0.0005463419029
6.165685147e-05
-0.0003485923694
8.437575015e-06
-1.175965512e-06
5.3477393e-07
0
0
0
0
0
0
0
0
0
0
0
0
0
0
0
0
0
0
-8.861117979e-05
0.003056915281
8.861117977e-05
-0.003056915281
-0.0001975994764
0.003002606893
0.0001904845457
-0.002919222806
-0.0002065586305
0.002410806112
0.0001944500633
-0.002166680852
-0.0001292774433
0.001319117244
0.00011954747
-0.001032882894
-3.838160679e-05
0.0003160618988
3.103155758e-05
-0.0001653488912
0
0
0
0
0
0
0
0
0
0
0
0
0
0
0
0
0
0
0
0
0
-8.130910553e-05
0.002968638835
7.409658398e-05
-0.002922338165
-0.000155753874
0.002635481784
0.0001402913467
-0.002483002523
-0.0001483634665
0.001864377363
0.000130868662
-0.001618225089
-8.360274583e-05
0.0008571695768
7.034277915e-05
-0.0006247905156
-1.314233817e-05
0.0001142160882
7.903647334e-06
-3.126216904e-05
0
0
0
0
0
0
0
0
0
0
0
0
0
0
0
0
0
0
0
0
0
-4.447718753e-05
0.002140559188
3.43365161e-05
-0.002075016298
-8.899656089e-05
0.001736162543
7.230728346e-05
-0.001581064835
-7.769055082e-05
0.001034189449
6.113433625e-05
-0.0008412100736
-3.1812078e-05
0.0003182217917
2.086072369e-05
-0.0001856080868
-1.160743483e-07
7.908856248e-07
0
0
0
0
0
0
0
0
0
0
0
0
0
0
0
0
0
0
0
0
0
0
0
-1.114554487e-05
0.0009552816448
6.585966451e-06
-0.0009077123905
-3.051025545e-05
0.0006744215065
2.028613595e-05
-0.0005753552924
-2.041179647e-05
0.0002669543145
1.103055343e-05
-0.0001759958242
-1.067295124e-06
1.007679541e-05
3.003383627e-09
-1.084512186e-07
0
0
0
0
0
0
0
0
0
0
0
0
0
0
0
0
0
0
0
0
0
0
0
0
0
-6.092262691e-07
0.0001134494064
1.47291527e-07
-9.897262163e-05
-2.039920944e-06
3.93320526e-05
1.704387244e-07
-2.166897402e-05
0
0
0
0
0
0
0
0
0
0
0
0
0
0
0
0
0
0
0
0
0
0
0
0
0
0
0
0
0
0
0
0
0
0
0
0
0
0
0
0
0
0
0
0
0
0
0
0
0
0
0
0
0
0
0
0
0
0
0
0
0
0
0
0
0
0
0
0
0
0
0
0
0
0
0
0
0
0
0
0
0
0
0
0
0
0
0
0
0
0
0
0
0
0
0
0
0
0
0
0
0
0
0
0
0
0
0
0
0
0
0
0
0
0
0
0
0
0
0
0
0
0
0
0
0
0
0
0
0
0
0
0
0
0
0
0
0
0
0
0
0
0
0
0
0
0
0
0
0
0
0
0
0
0
0
0
0
0
0
0
0
0
0
0
0
0
0
0
0
0
0
0
0
0
0
0
0
0
0
0
0
0
0
0
0
0
0
0
0
0
0
0
0
0
0
0
0
0
0
0
0
0
0
0
0
0
0
0
0
0
0
0
0
0
0
0
0
0
0
0
0
0
0
0
0
0
0
0
0
0
0
0
0
0
0
0
0
0
0
0
0
0
0
0
0
0
0
0
0
0
0
0
0
0
0
0
0
0
0
0
0
0
0
0
0
0
0
0
0
0
0
0
0
0
0
0
0
0
0
0
0
0
0
0
0
0
0
0
0
0
0
0
0
0
0
0
0
0
0
0
0
0
0
0
0
0
0
0
0
0
0
0
0
0
0
0
0
0
0
0
0
0
0
0
0
0
0
0
0
0
0
0
0
0
0
0
0
0
0
0
0
0
0
0
0
0
0
0
0
0
0
0
0
0
0
0
0
0
0
0
0
0
0
0
0
0
0
0
0
0
0
0
0
0
0
0
0
0
0
0
0
0
0
0
0
0
0
0
0
0
0
0
0
0
0
0
0
0
0
0
0
0
0
0
0
0
0
0
0
0
0
0
0
0
0
0
0
0
0
0
0
0
0
0
0
0
0
0
0
0
0
0
0
0
0
0
0
0
0
0
0
0
0
0
0
0
0
0
0
0
0
0
0
0
0
0
0
0
0
0
0
0
0
0
0
0
0
0
0
0
0
0
0
0
0
0
0
0
0
0
0
0
0
0
0
0
0
0
0
0
0
0
0
0
0
0
0
0
0
0
0
0
0
0
0
0
0
0
0
0
0
0
0
0
0
0
0
0
0
0
0
0
0
0
0
0
0
0
0
0
0
0
0
0
0
0
0
0
0
0
0
0
0
0
0
0
0
0
0
0
0
0
0
0
0
0
0
0
0
0
0
0
0
0
0
0
0
0
0
0
0
0
0
0
0
0
0
0
0
0
0
0
0
0
0
0
0
0
0
0
0
0
0
0
0
0
0
0
0
0
0
0
0
0
0
0
0
0
0
0
0
0
0
0
0
0
0
0
0
0
0
0
0
0
0
0
0
0
0
0
0
0
0
0
0
0
0
0
0
0
0
0
0
0
0
0
0
0
0
0
0
0
0
0
0
0
0
0
0
0
0
0
0
0
0
0
0
0
0
0
0
0
0
0
0
0
0
0
0
0
0
0
0
0
0
0
0
0
0
0
0
0
0
0
0
0
0
0
0
0
0
0
0
0
0
0
0
0
0
0
0
0
0
0
0
0
0
0
0
0
0
0
0
0
0
0
-0.0003527081283
5.490003785e-06
-5.585846684e-06
0.0003528039712
0.00035228658
-0.0007041990291
-1.279290511e-05
8.844815403e-05
-0.001406610841
-8.840397657e-05
0.001406566663
-0.0007337571286
1.743511792e-05
-1.743532034e-05
0.000733757331
0.0003528609573
5.10748691e-06
-0.00146516788
0.0006711777058
1.635913502e-05
3.34247209e-06
0.0001528459915
-0.002888902661
0.001461245088
0.001446287841
-8.279664539e-05
-8.867961367e-05
0.001411491101
8.851916763e-05
-0.001518463543
3.298275083e-05
-3.298275083e-05
0.001518463543
0.0007347407991
1.743500473e-05
5.678800465e-05
-0.001405969338
-5.652721849e-05
0.0007032408461
0.0007024677061
-5.105198621e-06
-0.0007121539425
0.0007126069143
4.652226799e-06
-0.0007110458706
-5.981738605e-06
0.0007119224105
9.517981604e-06
-0.0007106242024
-9.939649754e-06
6.32844531e-05
-0.001427252323
-6.038761509e-05
0.001424355485
-0.001411164962
5.716760885e-05
0.0007059143647
0.000704870993
-9.070483663e-06
-0.0003510698528
0.0003522654557
7.874880794e-06
7.264181876e-06
-0.0007079808095
-7.494716061e-06
0.0003539169967
0.0003542943469
-0.000350596431
-9.987927584e-06
0.0003515138749
7.920454319e-06
-0.0003500308578
-8.486027478e-06
1.995978711e-05
-0.0006988846888
-2.025365256e-05
0.0006991785543
-0.0007094782702
0.0007096168798
7.125572278e-06
-0.003029563718
0.001511100175
-4.053138564e-05
-4.807979416e-05
-0.003011919708
0.0001763000387
-0.000178660735
0.003029159806
0.0001791931963
0.001477805083
0.001445483407
1.94364927e-05
-0.0007030596623
-1.962049911e-05
0.0007032436687
-0.0006997547257
0.0006998662626
1.984825017e-05
7.221455679e-06
-0.0003503708542
6.31772571e-05
-0.001438075693
-5.644559571e-05
0.001431344031
-0.001433343319
0.001428694847
6.793292466e-05
9.045455258e-06
-0.0007116814161
-0.001491815712
3.29827507e-05
-3.298275024e-05
0.001491815711
-4.319856223e-05
-0.0004457728717
0.0004889714339
8.493016169e-06
-0.0003496941068
-9.085418576e-06
0.0003502865092
-4.177283144e-06
-0.0007190121347
7.059144023e-06
-1.771120771e-06
-0.0007152767888
-1.209550408e-06
0.00071825746
0.000350900189
-1.543981556e-06
4.900508317e-06
-0.0003542567158
0.0003487770757
6.332339129e-06
-0.0003505175422
-4.591872606e-06
6.567323307e-06
-0.0003507061372
-6.505874276e-06
0.0003506446881
3.097964752e-06
2.537969655e-06
0.0003431411413
3.955712677e-05
2.16906244e-05
0.0002896524379
6.693399421e-06
-0.0003557014126
-7.268296671e-06
0.0003562763098
-0.0003465699604
0.000340356665
9.31126022e-06
8.501056466e-05
-0.0003548412493
-1.86712647e-05
3.527372421e-06
-0.0003552478507
-3.954321302e-06
0.0003556747995
-0.0003551576544
0.00035537142
6.47963384e-06
4.300778161e-06
-0.000353819481
-4.516707783e-06
0.0003540354106
-0.0003552911283
0.0003555810855
3.237415229e-06
-6.330409294e-06
-0.0003561734588
-0.0004495021955
0.0004890593223
-0.0003495566993
0.0003490990982
8.950617204e-06
3.111109253e-07
-0.0003425758656
0.0002990661924
-0.0003566113475
-9.443482955e-05
-0.001406823561
-9.682940025e-05
-0.002692804616
0.0002738935573
-0.0002775460741
0.002775362806
-0.0003505413975
0.0003510360843
6.0726365e-06
9.408296154e-06
-0.0003496459175
7.218231557e-06
-0.000354430293
-8.48935108e-06
-0.000344094985
0.0003387540236
9.162568131e-06
-0.0003463664945
8.992250135e-06
8.643598122e-06
-0.0003494023
-8.935404852e-06
8.114622567e-06
-0.0003483796683
-8.24614607e-06
0.0003485111918
4.113299031e-05
2.075585977e-05
-0.0003523800262
0.0002904911761
-0.000450833686
0.0004919666763
-0.000451175165
-4.270803273e-05
-8.854193612e-05
-3.522130728e-06
-0.0003591110981
-0.0003545254299
0.0002867393535
-0.0003560013157
1.730600883e-06
-1.826866886e-06
0.0003560975817
-0.0003551413882
0.000356400646
3.041520387e-06
3.185734201e-05
0.0003077613376
-9.264731362e-05
-1.872541978e-07
-0.0003529383039
-0.0003482285216
0.00028743855
0.0004453682836
-8.894552963e-05
-0.0003538847844
-4.486186453e-05
0.0004902301482
-9.23390869e-07
0.0002992026676
-0.0003518360465
0.0002845811413
0.0003584732171
-1.007021178e-05
-0.000355671302
3.831820782e-07
-9.274365098e-05
4.279465715e-06
3.0646089e-05
0.0003087871851
-0.0003506589407
0.0002885613787
-0.0003514178923
-3.78592228e-07
9.432288816e-07
-0.0003554058859
0.0003529197861
-0.000356820509
-0.0003503774283
8.967780376e-07
-5.732437785e-07
3.241139998e-06
-0.0003530453245
-0.0003558034737
-0.0003387970232
3.243263042e-05
0.0003066755037
-4.761082998e-06
1.109967519e-05
-0.0003451356153
-0.0003475242028
-1.164764217e-05
-0.0003531997834
8.236078028e-06
0.0003489141513
-0.0003494621182
0.0002869119521
-0.002558483858
-0.0002831981893
-0.001908542441
0.0002369285599
-0.0002425710681
0.0021585983
-0.001643079014
-0.0002225527945
-0.000819113715
0.0001270462023
-0.0001365341644
0.001085335232
-0.0005764114359
-0.0001069444258
2.310020665e-05
-7.830292341e-05
-2.865670129e-05
0.0001980508597
1.114273883e-05
-0.000708191094
-1.093245435e-05
1.903454789e-05
-0.0007081594412
-1.945202049e-05
0.0007085769138
-0.0007049363156
0.0007049181132
1.94546951e-05
-0.002890540677
-0.0002063651923
-0.002634663752
0.0002462817167
-0.0002615759448
0.002788311039
0.002782760729
0.0002693965181
-0.002448446964
-0.000251837669
-0.00168480386
0.000192759353
-0.000205438464
0.001964419348
0.002118838116
0.0002280987832
-0.001412897431
-0.0001817494581
-0.0006049237615
9.413005512e-05
-0.0001006054593
0.0008549048409
0.00103544153
0.0001201749731
-0.0003875722673
-7.425159785e-05
8.256900243e-06
-1.908529677e-05
-1.250695089e-05
9.267251744e-05
0.0001706286433
2.003525465e-05
4.05313858e-05
-0.001491815711
-4.053138623e-05
6.317725709e-05
-0.001491815711
-6.317725709e-05
0.001491815711
-0.001471830611
0.001471830611
6.317725709e-05
-0.002951859471
-0.0002026577622
-0.002486682019
0.0002153899655
-0.0002250618582
0.002687025881
0.0027515241
0.0002425229693
-0.002248568181
-0.0002166123584
-0.001398080758
0.0001522734178
-0.0001611954088
0.001693844543
0.001907734433
0.000184940589
-0.001114646408
-0.0001419538752
-0.0003761858094
5.814351579e-05
-6.939968685e-05
0.0005915025441
0.0007892299953
8.372998985e-05
-0.0002108972002
-4.809828555e-05
9.725794237e-07
0
-2.060982951e-06
1.627755265e-05
6.815991548e-05
5.947713104e-06
-0.003057070044
5.408494953e-05
-5.745044705e-05
5.841677236e-05
-2.543402153e-05
-0.003023580473
-8.618716982e-05
-0.00278141014
0.0001441048811
-0.0001557257675
0.002890269172
0.003044675462
0.000171814812
-0.002640707683
-0.0001694814449
-0.002035212304
0.0001575742704
-0.0001743965856
0.002264725674
0.002621212342
0.0002035939728
-0.001785089408
-0.0001650389945
-0.0009892235611
0.0001023654063
-0.0001164269716
0.001253271062
0.001610799112
0.0001416703566
-0.0007390528116
-9.643324232e-05
-0.0001644875182
2.777135741e-05
-3.589697682e-05
0.0003180137431
0.0005210071125
5.13900306e-05
-5.873281899e-05
-1.901784238e-05
0
0
0
0
5.745547709e-06
9.390698281e-08
-0.002406030632
2.552510066e-05
-3.366894624e-05
4.86292882e-05
-0.002341011003
-5.4967369e-05
-0.001997413908
8.322197902e-05
-9.936876076e-05
0.002136148714
0.002758580099
0.0001304703346
-0.001836479877
-0.0001062986924
-0.001253240308
8.503382765e-05
-0.0001030379724
0.001460053811
0.002094149714
0.0001397708894
-0.001041475175
-9.510905471e-05
-0.0004448928476
4.450228784e-05
-5.844500002e-05
0.0006300014564
0.001106183175
8.777098734e-05
-0.0002834775333
-4.402838464e-05
-9.696270578e-06
2.589699752e-06
-6.764722345e-06
5.978994421e-05
0.000245260654
1.989435542e-05
0
-1.30384896e-06
0
0
0
0
0
0
-0.001247770628
2.146107654e-06
-5.890297282e-06
1.784519211e-05
-0.001193397487
-1.734015628e-05
-0.0009235069341
2.856219583e-05
-3.987813617e-05
0.001028989012
0.001871592559
6.756951551e-05
-0.0008065461725
-4.271968844e-05
-0.0004275976088
2.513682876e-05
-3.758314074e-05
0.0005539655076
0.001225540157
6.786801209e-05
-0.0003080982914
-3.212951237e-05
-4.660384781e-05
4.301672496e-06
-1.099514435e-05
0.0001120052988
0.0004763198157
3.162376688e-05
-1.001934014e-05
-4.905973264e-06
0
0
0
0
2.239560714e-05
5.418942168e-07
0
0
0
0
0
0
0
0
-0.0002553178772
-8.16181615e-07
1.204687335e-06
-1.076193475e-07
-0.0002322884239
-1.623140406e-06
-0.0001279153519
2.401508982e-06
-6.157054953e-06
0.0001663555905
0.0007649009471
1.917026327e-05
-8.957697977e-05
-6.033503335e-06
-9.403497008e-06
1.124184051e-07
-2.101829907e-06
2.673637215e-05
0.0003671276821
1.488909597e-05
-9.650520171e-07
-7.13901e-07
0
0
0
0
4.246416101e-05
7.61607008e-07
0
0
0
0
0
0
0
0
0
0
0
0
0
0
0
0
0
0
0
-3.260448575e-07
0
0
0
0
0
0
5.983785949e-05
3.924265889e-07
0
0
0
0
0
0
1.892179233e-06
0
0
0
0
0
0
0
0
0
0
0
0
0
0
0
0
0
0
0
0
0
0
0
0
0
0
0
0
0
0
0
0
0
0
0
0
0
0
0
0
0
0
0
0
0
0
0
0
0
0
0
0
0
0
0
0
0
0
0
0
0
0
0
0
0
0
0
0
0
0
0
0
0
0
0
0
0
0
0
0
0
0
0
0
0
0
0
0
0
0
0
0
0
0
0
0
0
0
0
0
0
0
0
0
0
0
0
0
0
0
0
0
0
0
0
0
0
0
0
0
0
0
0
0
0
0
0
0
0
0
0
0
0
0
0
0
0
0
0
0
0
0
0
0
0
0
0
0
0
0
0
0
0
0
0
0
0
0
0
0
0
0
0
0
0
0
0
0
0
0
0
0
0
0
0
0
0
0
0
0
0
0
0
0
0
0
0
0
0
0
0
0
0
0
0
0
0
0
0
0
0
0
0
0
0
0
0
0
0
0
0
0
0
0
0
0
0
0
0
0
0
0
0
0
0
0
0
0
0
0
0
0
0
0
0
0
0
0
0
0
0
0
0
0
0
0
0
0
0
0
0
0
0
0
0
0
0
0
0
0
0
0
0
0
0
0
0
0
0
0
0
0
0
0
0
0
0
0
0
0
0
0
0
0
0
0
0
0
0
0
0
0
0
0
0
0
0
0
0
0
0
0
0
0
0
0
0
0
0
0
0
0
0
0
0
0
0
0
0
0
0
0
0
0
0
0
0
0
0
0
0
0
0
0
0
0
0
0
0
0
0
0
0
0
0
0
0
0
0
0
0
0
0
0
0
0
0
0
0
0
0
0
0
0
0
0
0
0
0
0
0
0
0
0
0
0
0
0
0
0
0
0
0
0
0
0
0
0
0
0
0
0
0
0
0
0
0
0
0
0
0
0
0
0
0
0
0
0
0
0
0
0
0
0
0
0
0
0
0
0
0
0
0
0
0
0
0
0
0
0
0
0
0
0
0
0
0
0
0
0
0
0
0
0
0
0
0
0
0
0
0
0
0
0
0
0
0
0
0
0
0
0
0
0
0
0
0
0
0
0
0
0
0
0
0
0
0
0
0
0
0
0
0
0
0
0
0
0
0
0
0
0
0
0
0
0
0
0
0
0
0
0
0
0
0
0
0
0
0
0
0
0
0
0
0
0
0
0
0
0
0
0
0
0
0
0
0
0
0
0
0
0
0
0
0
0
0
0
0
0
0
0
0
0
0
0
0
0
0
0
0
0
0
0
0
0
0
0
0
0
0
0
0
0
0
0
0
0
0
0
0
0
0
0
0
0
0
0
0
0
0
0
0
0
0
0
0
0
0
0
0
0
0
0
0
0
0
0
0
0
0
0
0
0
0
0
0
0
0
0
0
0
0
0
0
0
0
0
0
0
0
0
0
0
0
0
0
0
0
0
0
0
0
0
0
0
0
0
0
0
0
0
0
0
0
0
0
0
0
0
0
0
0
0
0
0
0
0
0
0
0
0
0
0
0
0
0
0
0
0
0
0
0
0
0
0
0
0
0
0
0
0
0
0
0
0
0
0
0
0
0
0
0
0
0
0
0
0
0
0
0
0
0
0
0
0
0
0
0
0
0
0
0
0
0
0
0
0
0
0
0
0
0
0
0
0
0
0
0
0
0
0
0
0
0
0
0
0
0
0
0
0
0
0
0
0
0
0
0
0
0
0
0
0
0
0
0
0
0
0
0
0
0
0
0
0
0
0.0003526522384
-5.951505089e-06
6.255145674e-06
-6.886786661e-06
0.0003532838794
0.0003532349299
5.824186951e-06
-1.480396299e-05
-0.0007036830123
1.428794615e-05
0.000701979663
-0.0007019142809
-1.486934514e-05
-1.320362546e-05
0.0003518489859
-0.001388989971
0.001388898963
8.894576156e-05
0.0006950539184
6.497253204e-05
-0.001388758761
6.650695444e-05
-0.001406328971
-6.614732174e-05
-0.0007176452924
0.0007229782596
-7.104087983e-06
-0.000749883198
6.368770273e-06
-0.0003543081931
3.425984764e-06
-0.0003546900623
-3.983773101e-06
8.371379569e-06
-0.0007063005088
-4.606565275e-06
-5.160321543e-06
0.0003541878379
0.0003535081782
-4.807979418e-05
-0.00146516788
4.807979417e-05
-0.001423401635
-4.468410577e-05
0.000708617419
0.000711388528
-4.051737473e-06
1.48312362e-07
-0.0007137418673
-8.821629912e-05
-0.001433262687
0.001433312017
8.816696985e-05
-6.901665322e-05
6.701179224e-05
-0.001431338458
7.072459154e-05
-0.001440762792
-6.803749186e-05
6.692539114e-05
-0.001411583399
-0.001427098226
-6.917075017e-05
-0.001428382656
-8.828071782e-05
0.001428447075
-0.001498478443
0.001498478443
3.298275082e-05
3.29827491e-05
-0.001477805088
-1.554772411e-05
-1.74350201e-05
0.0007397346096
0.0007380704737
-2.973383262e-05
-0.00140082058
0.0007007871217
0.0006998625455
-2.662247273e-05
-2.199952134e-05
2.197075565e-05
-0.00069972596
2.210346001e-05
-0.000703144555
-2.201856731e-05
-0.0006983892166
-2.249499361e-05
-0.0006981675702
-2.942314283e-05
0.0006978568804
-0.0003471440586
8.858712134e-06
8.532840384e-06
-0.000347215168
7.370292361e-07
-1.675484118e-06
0.0007135453692
-0.0007137267675
0.0007157139626
-1.250165853e-06
2.930345641e-06
-0.0007120048864
0.0007115732809
-6.503324578e-06
-0.000711051695
2.971398078e-06
-3.143646376e-06
0.0003557816668
0.0003559638625
0.0007132183245
-0.0007114305578
1.942702339e-05
-1.93736895e-05
0.0007113772239
-0.0007090501639
0.0007088167079
1.926800381e-05
1.049487606e-05
-0.0007088304075
0.001420142069
-5.791488282e-05
-0.001422614801
4.831619661e-05
-4.703119458e-05
0.0007098069033
5.0152217e-05
0.0007110889071
2.200068919e-05
-0.0007048335448
-0.001416036151
0.0007078520435
-2.186734657e-05
-2.513918197e-05
-0.001416783425
8.394209448e-06
-9.671855078e-06
0.0003535431013
-0.0003520630185
0.0003527116233
7.745604662e-06
7.156628815e-06
-0.0003513447665
-7.117141808e-06
7.682456166e-06
-0.0003536947354
0.000347400901
-0.0003512769028
-0.0007080576865
0.0003545048375
0.0003544295125
2.855825565e-06
-0.0003547209691
3.212107065e-06
-0.0003537348746
-3.296713452e-06
0.0003498131102
-1.00553104e-05
-0.0003497457273
1.135776357e-05
-1.100677166e-05
-1.507046431e-05
-0.0006995134618
1.513536226e-05
0.0003497347542
0.0003497138096
-0.0006978263863
-7.481319109e-06
0.0003493605526
0.000348991311
8.428142121e-06
-0.0003493412433
0.0006976221435
-2.034289333e-05
-0.0006975329027
1.799115477e-05
-1.819539757e-05
1.765624731e-05
-0.0006958280097
0.000347669668
-0.0006953594087
4.629613978e-06
0.0003564028759
-3.344891177e-06
-0.00071055884
0.0003560434919
-0.0007099365923
-6.352069682e-06
5.423719693e-06
-0.0003580009675
-0.000357311176
-8.585419963e-07
0.0003574159562
0.0003573341958
-8.859521699e-08
-5.846902701e-07
0.0003565714947
9.407729348e-07
-0.0001188058794
-0.003029563718
0.0001188058794
-0.003003619618
-5.56286223e-05
0.001505141175
0.001498478443
4.053138568e-05
-0.001498478443
0.003003619618
-0.0001791931963
-0.003000809364
0.0001490000605
-0.0001490000606
0.0001489418301
7.072459153e-05
-0.001471830611
-0.002976968691
0.00148515298
-7.072459153e-05
-7.827546903e-05
-0.002976968691
0.0007020301903
-1.93854264e-05
-0.000702265263
1.747683761e-05
-1.736092817e-05
1.703749405e-05
1.777361274e-05
0.0006997488972
-0.0007012133774
0.000701626062
-0.0007007505536
-0.0007010948116
0.0003506156423
-6.570336552e-06
-6.860256723e-06
-1.43380948e-05
0.0003503313792
0.0003502147854
0.001452155413
-6.90712618e-05
-0.001439529746
8.945247106e-05
-6.069869387e-05
5.562862231e-05
5.368380182e-05
0.001425163262
-0.001435241594
0.001428226702
-0.001436379931
-0.0007123524925
-6.976033813e-06
-3.98660743e-05
0.0007115155326
0.0007118931375
0.0007114368288
0.0007115159629
-1.822858018e-05
0.00148515298
-0.001485152981
2.543402151e-05
-1.366058188e-05
2.543402154e-05
0.0003481584115
-0.00034825158
9.092458086e-06
6.440663406e-06
2.578837884e-06
-4.0498501e-06
0.0003587231163
0.0003584618586
0.0003585723572
0.0003566933078
5.640242301e-06
-0.000721788646
-2.863731035e-06
0.0007185544621
-0.0007169640699
2.751688388e-06
0.000714881809
-0.0007131610138
-3.332426732e-06
-6.863612753e-06
-0.0003527295789
5.794040685e-06
-7.522463567e-06
7.504507995e-06
-6.795428658e-06
-0.0003508617988
7.139685255e-06
0.0003526826163
-0.0003519735369
0.0003512663968
7.038464541e-06
6.821353865e-06
0.0003565286557
-5.013322495e-06
-0.0003554696545
2.755497097e-06
-3.04735046e-06
3.024410724e-06
5.125455826e-06
-0.0003570329928
-0.0003555666814
0.0003530014388
-3.428202304e-06
-0.0003540899443
5.548239242e-06
-3.823703216e-06
5.888914423e-06
2.802022499e-06
-0.0003540670053
-0.0003542577923
8.015558855e-06
-0.0003481268281
-0.0003492315213
-0.0002328511746
-0.00280728333
0.0002326715037
0.001406971716
0.001400853341
-0.002783035819
0.001394014896
0.00138870091
9.748992784e-05
-0.001388911114
0.00276477914
-0.00269504879
0.0002602308701
0.0002568749733
7.028244698e-06
0.0003508291934
-0.0003519701173
0.0003521115754
-0.0003520406563
1.003106022e-05
-8.322961238e-06
8.393880264e-06
-7.54816682e-06
6.352803662e-06
0.0003541295928
-8.333081799e-06
-0.0003490546196
7.985401343e-06
0.0003483282727
-0.0003481285141
0.0003478681126
-8.444590745e-06
8.024746865e-06
-8.285148321e-06
-0.0003470028266
-4.779561299e-06
-0.0003571687097
3.451491501e-06
-0.0003572273456
0.0003568538478
-2.637222717e-06
3.411092674e-06
-3.784590466e-06
2.339964668e-06
4.97838437e-06
-0.0003568071736
-1.265645143e-05
-1.093983399e-05
0
0
0
3.480992607e-08
0
0
0
0
0
-0.0007063877932
1.147322035e-05
-1.431240523e-05
1.417741901e-05
-0.000706252807
-0.0007049103052
-0.002852746401
0.0002031302171
0.001423485374
-0.0002327329577
0.0002323766743
-0.002843991715
-0.00282775066
-0.00250961006
0.002676305602
0.0002595758321
-0.0002594031599
0.0002509563535
-0.002308093912
-0.0002678134784
-0.00234346374
-0.001520505097
0.001801559795
0.0001877293123
-0.0001765973375
0.0001682818388
-0.001253718867
-0.0001843992326
-0.001312841006
-0.0004941143202
0.0007243715503
8.505179063e-05
-6.560773981e-05
5.92903896e-05
-0.0002992018931
-7.067522528e-05
-0.0003308947705
0
-2.690506591e-06
0
0
0
0
0
0
0
0
0
0
0
0
0
0
-0.001477805083
4.053138738e-05
-4.807979417e-05
4.807979416e-05
-0.001477805083
-0.001471830611
-0.002957750423
0.0002059872885
-0.0002272796744
0.0002238424162
-0.002883285114
-0.0002321963698
-0.002885031799
-0.002363245528
0.002582121055
0.0002244495475
-0.0002424931534
0.0002147056569
-0.002105550434
-0.0002377483348
-0.002180356418
-0.001275594867
0.001559811161
0.0001607407418
-0.0001380230785
0.000126489971
-0.0009900648347
-0.0001499749249
-0.001058102463
-0.0003007017747
0.0004906126942
5.379612928e-05
-3.918077047e-05
3.182667534e-05
-0.0001477310316
-4.470870934e-05
-0.0001832872416
0
0
0
0
0
0
0
0
0
0
0
0
0
0
0
0
-0.003078791453
0.003082537013
8.841554744e-05
-0.0001187485218
0.0001171829778
-0.003066178719
-0.00305631435
-0.002857758136
0.002963164485
0.0001811193468
-0.0002021668972
0.0001907076854
-0.002712655397
-0.0002114623876
-0.00279187105
-0.002061034665
0.002309584401
0.0001805172259
-0.0001802267339
0.0001666134704
-0.001790817002
-0.0001921458203
-0.001896840662
-0.0009459473581
0.001222914873
0.0001085143251
-9.664623234e-05
8.668055285e-05
-0.0006878096579
-0.0001054553213
-0.0007632532625
-0.0001242725838
0.0002681898336
2.510424447e-05
-1.43234085e-05
1.036345113e-05
-3.355261122e-05
-2.057242419e-05
-5.772503705e-05
0
0
0
0
0
0
0
0
0
0
0
0
0
0
0
0
-0.002770835044
0.002826474606
6.508941034e-05
-9.674460719e-05
8.562986643e-05
-0.002691041112
-0.000106030683
-0.002853387999
-0.002292822516
0.002452570428
0.0001236086698
-0.0001449946204
0.0001272294625
-0.002107514932
-0.0001618087421
-0.002301752644
-0.001435133648
0.001673535902
0.0001129776119
-0.0001187351963
0.0001016454716
-0.001191329821
-0.0001355167875
-0.001362792545
-0.0005077017665
0.000719193649
5.702026953e-05
-5.256899677e-05
4.091953367e-05
-0.0003237874038
-6.432745949e-05
-0.0004179922517
-1.129806264e-05
6.922779039e-05
3.792941947e-06
-1.502474644e-06
2.848547462e-07
0
-3.556153968e-06
-8.593486912e-07
0
0
0
0
0
0
0
0
0
0
0
0
0
0
0
0
-0.001788562419
0.001852293974
2.514521845e-05
-4.838126366e-05
3.700088967e-05
-0.001701620391
-6.070856696e-05
-0.001985054292
-0.001318834491
0.001464379291
5.674365594e-05
-7.379501938e-05
5.770037611e-05
-0.001159762998
-9.106958763e-05
-0.001409491305
-0.0006478270819
0.0008189154833
4.582141622e-05
-5.247812844e-05
3.812525394e-05
-0.0004843313416
-6.811308978e-05
-0.0006529846036
-0.000104109393
0.000206015737
1.170072862e-05
-1.11785759e-05
4.782034592e-06
-3.509401164e-05
-1.971213013e-05
-8.50345539e-05
0
0
0
0
0
0
0
0
0
0
0
0
0
0
0
0
0
0
0
0
0
0
0
0
-0.0006456531138
0.000685522114
3.50411568e-06
-1.219732417e-05
7.317194516e-06
-0.0005921144253
-1.873824118e-05
-0.0008435546175
-0.0003734360723
0.0004530642139
1.211817786e-05
-1.98311782e-05
1.135476879e-05
-0.0002918435765
-3.048020266e-05
-0.0004714958274
-7.810443455e-05
0.0001395998575
4.342129415e-06
-6.894254706e-06
1.847786756e-06
-3.269620202e-05
-1.491192525e-05
-9.943648604e-05
0
2.84723984e-08
0
0
0
0
-1.250556223e-08
0
0
0
0
0
0
0
0
0
0
0
0
0
0
0
0
0
0
0
0
0
0
0
0
0
-2.373925003e-05
2.989038593e-05
2.6371535e-09
-4.424274302e-07
5.122389426e-09
-1.678550459e-05
-1.684647007e-06
-8.048585688e-05
-6.365754234e-07
4.353321124e-06
0
-2.661947791e-08
0
0
-1.350844426e-06
-9.427257577e-06
0
0
0
0
0
0
0
0
0
0
0
0
0
0
0
0
0
0
0
0
0
0
0
0
0
0
0
0
0
0
0
0
0
0
0
0
0
0
0
0
0
0
0
0
0
0
0
0
0
0
0
0
0
0
0
0
0
0
0
0
0
0
0
0
0
0
0
0
0
0
0
0
0
0
0
0
0
0
0
0
0
0
0
0
0
0
0
0
0
0
0
0
0
0
0
0
0
0
0
0
0
0
0
0
0
0
0
0
0
0
0
0
0
0
0
0
0
0
0
0
0
0
0
0
0
0
0
0
0
0
0
0
0
0
0
0
0
0
0
0
0
0
0
0
0
0
0
0
0
0
0
0
0
0
0
0
0
0
0
0
0
0
0
0
0
0
0
0
0
0
0
0
0
0
0
0
0
0
0
0
0
0
0
0
0
0
0
0
0
0
0
0
0
0
0
0
0
0
0
0
0
0
0
0
0
0
0
0
0
0
0
0
0
0
0
0
0
0
0
0
0
0
0
0
0
0
0
0
0
0
0
0
0
0
0
0
0
0
0
0
0
0
0
0
0
0
0
0
0
0
0
0
0
0
0
0
0
0
0
0
0
0
0
0
0
0
0
0
0
0
0
0
0
0
0
0
0
0
0
0
0
0
0
0
0
0
0
0
0
0
0
0
0
0
0
0
0
0
0
0
0
0
0
0
0
0
0
0
0
0
0
0
0
0
0
0
0
0
0
0
0
0
0
0
0
0
0
0
0
0
0
0
0
0
0
0
0
0
0
0
0
0
0
0
0
0
0
0
0
0
0
0
0
0
0
0
0
0
0
0
0
0
0
0
0
0
0
0
0
0
0
0
0
0
0
0
0
0
0
0
0
0
0
0
0
0
0
0
0
0
0
0
0
0
0
0
0
0
0
0
0
0
0
0
0
0
0
0
0
0
0
0
0
0
0
0
0
0
0
0
0
0
0
0
0
0
0
0
0
0
0
0
0
0
0
0
0
0
0
0
0
0
0
0
0
0
0
0
0
0
0
0
0
0
0
0
0
0
0
0
0
0
0
0
0
0
0
0
0
0
0
0
0
0
0
0
0
0
0
0
0
0
0
0
0
0
0
0
0
0
0
0
0
0
0
0
0
0
0
0
0
0
0
0
0
0
0
0
0
0
0
0
0
0
0
0
0
0
0
0
0
0
0
0
0
0
0
0
0
0
0
0
0
0
0
0
0
0
0
0
0
0
0
0
0
0
0
0
0
0
0
0
0
0
0
0
0
0
0
0
0
0
0
0
0
0
0
0
0
0
0
0
0
0
0
0
0
0
0
0
0
0
0
0
0
0
0
0
0
0
0
0
0
0
0
0
0
0
0
0
0
0
0
0
0
0
0
0
0
0
0
0
0
0
0
0
0
0
0
0
0
0
0
0
0
0
0
0
0
0
0
0
0
0
0
0
0
0
0
0
0
0
0
0
0
0
0
0
0
0
0
0
0
0
0
0
0
0
0
0
0
0
0
0
0
0
0
0
0
0
0
0
0
0
0
0
0
0
0
0
0
0
0
0
0
0
0
0
0
0
0
0
0
0
0
0
0
0
0
0
0
0
0
0
0
0
0
0
0
0
0
0
0
0
0
0
0
0
0
0
0
0
0
0
0
0
0
0
0
0
0
0
0
0
0
0
0
0
0
0
0
0
0
0
0
0
0
0
0
0
0
0
0
0
0
0
0
0
0
0
0
0
0
0
0
0
0
0
0
0
0
0
0
0
0
0
0
0
0
0
0
0
0
0
0
0
0
0
0
0
0
0
0
0
0
0
0
0
0
0
0
0
0
0
0
0
0
0
0
0
0
0
0
0
0
0
0
0
0
0
0
0
0
0
0
0
0
0
0
0
0
0
0
0
0
0
0
0
0
0
0
0
0
0
0
0
0
0
0
0
0
0
0
0
0
0
0
0
0
0
0
0
0
0
0
0
0
0
0
0
0
0
0
0
0
0
0
0
0
0
0
0
0
0
0
0
0
0
0
0
0
0
0
0
0
0
0
0
0
0
0
0
0
0
0
0
0
0
0
0
0
0
0
0
0
0
0
0
0
0
0
0
0
0
0
0
0
0
0
0
0
0
0
0
0
0
0
0
0
0
0
0
0
0
0
0
0
0
0
0
0
0
0
0
0
0
0
0
0
0
0
0
0
0
0
0
0
0
0
0
0
0
0
0
0
0
0
0
0
0
0
0
0
0
0
0
0
0
0
0.001402044699
-8.881931003e-05
-0.001401629366
8.03209358e-05
-8.045654817e-05
0.001402180311
8.067385993e-05
0.001406213739
0.0006317488623
2.199352322e-05
1.55490767e-05
-0.0001152125806
0.0007314123662
0.0007337580628
1.554834491e-05
5.09705234e-06
0.0003535880919
-0.0003529658611
0.0003534563482
8.08477255e-05
0.001411317236
-0.001417633972
0.001417235369
8.12463292e-05
8.862073148e-05
-0.0006950617435
0.0006949181528
2.723072305e-05
2.940724238e-05
-1.393379868e-05
1.422683962e-05
-0.0007109172433
0.0007104845074
-0.000710414731
-1.400357513e-05
-1.050683727e-05
-7.674697341e-06
7.378593681e-06
0.000349598418
-7.559305663e-06
-8.633336851e-06
-4.582560942e-07
1.579799423e-07
-1.255187544e-06
-0.0003506936474
-7.222524921e-06
-0.0007112506305
8.291199391e-06
-1.406138639e-05
1.42475847e-05
1.193602026e-06
-1.487090793e-06
-0.0002748680546
-0.002377753295
0.002572597494
-0.002400710706
0.002188500952
-0.00194328802
0.0002620725033
0.0002559867422
-0.0001939745119
-0.001363812851
0.00168882236
-0.00141237667
0.001134352175
-0.0008657790833
0.0001660561805
0.0001565486348
-7.868692948e-05
-0.0003664942504
0.0006184181641
-0.0004018272584
0.000225152203
-0.0001022443218
5.204084738e-05
4.504427256e-05
-1.397886079e-05
-0.0007084118239
1.419959073e-05
0.0007075169205
-0.0007073183623
0.0007073994681
-1.899944516e-05
1.69943535e-05
-1.691324765e-05
1.715944341e-05
1.704530198e-05
-0.0007061207527
-0.0007056655027
-0.0002317323709
-0.002858464469
0.002875977342
-0.002856814331
0.001439479679
0.002785669902
-0.0002693407309
-0.002654590472
0.0002556944662
-0.0002557939213
0.0002726759212
0.0002557598056
-0.002787223013
-0.000243182403
-0.002221047512
0.002482177276
-0.00226441684
0.00202525917
-0.0002140671864
-0.001750751288
0.0002336518715
-0.0002372345125
0.0002198554422
0.0002474357584
-0.00206880133
-0.0001567673491
-0.001128615018
0.001465363657
-0.001188015359
0.0009134677379
-0.0001118077769
-0.000660094678
0.0001287432044
-0.0001402860887
0.0001207806588
0.000149495344
-0.0009807646278
-5.155584045e-05
-0.0002196301437
0.0004367032387
-0.0002612263487
0.0001219157459
-1.640755888e-05
-3.372445385e-05
2.996094043e-05
-3.579938387e-05
2.361121755e-05
4.088417671e-05
-0.0001481226441
-4.77687358e-05
-4.807979415e-05
-0.001491815711
4.807979416e-05
0.00148515298
-0.00148515298
5.56286223e-05
-0.001477805083
5.56286223e-05
6.31772571e-05
-0.001477805083
-0.0002186363413
-0.002843326777
0.002963448649
-0.002873111069
0.002730808064
-0.00023251506
-0.002540574886
0.0002260415537
-0.0002326297687
0.0002173165403
0.0002392453414
-0.002757340613
-0.0002021152801
-0.001980996885
0.002308984629
-0.002052251026
0.001771461413
-0.0001758903103
-0.001479147252
0.0001831515226
-0.0001968963599
0.0001736028617
0.0002049908563
-0.001841368693
-0.0001175737127
-0.0008409303281
0.001192732623
-0.0009200600658
0.0006657850928
-7.715302952e-05
-0.0004409413711
9.33692877e-05
-0.0001021148899
8.149018846e-05
0.0001096932546
-0.0007262054127
-2.608872289e-05
-8.702351848e-05
0.0002545813376
-0.0001146136133
2.878176906e-05
-3.314642884e-06
-1.249327871e-07
1.050966055e-05
-1.393931187e-05
7.143419212e-06
1.933580853e-05
-4.710272741e-05
-2.766840142e-06
-5.842054394e-05
-0.003092625391
-0.0001129472588
-0.002969647965
0.003075695757
-0.00304110333
0.002981603218
-0.00016500111
-0.002891296785
0.0001365398043
-0.0001432395427
0.0001272809647
0.0001473153508
-0.003030929715
-0.0001771717894