/*--------------------------------*- C++ -*----------------------------------*\
| =========                 |                                                 |
| \\      /  F ield         | OpenFOAM: The Open Source CFD Toolbox           |
|  \\    /   O peration     | Version:  v2012                                 |
|   \\  /    A nd           | Website:  www.openfoam.com                      |
|    \\/     M anipulation  |                                                 |
\*---------------------------------------------------------------------------*/
FoamFile
{
    version     2.0;
    format      ascii;
    class       volScalarField;
    location    "0.51";
    object      nut;
}
// * * * * * * * * * * * * * * * * * * * * * * * * * * * * * * * * * * * * * //

dimensions      [0 2 -1 0 0 0 0];


internalField   nonuniform List<scalar> 
3259
(
1.156566792
1.156556791
1.156466444
1.156331142
1.156207786
1.156128624
1.156068511
1.156045658
1.155822259
1.155836133
1.155861406
1.155889259
1.142878589
1.139246436
1.157517991
1.156853375
1.156236635
1.155776519
1.155391859
1.155231115
1.154957581
1.154994113
1.155065987
1.155145181
0.8997591084
0.9093240026
0.9943763138
1.158160357
1.156751711
1.155720737
1.154898479
1.154518328
1.154130787
1.154148085
1.154253853
1.154390246
0.6149358287
0.6309427242
0.7104648834
0.8572763469
1.089336323
1.156283939
1.154768257
1.153999585
1.15337151
1.153341683
1.153453875
1.153627012
0.3674690934
0.388680146
0.4712342785
0.6069243617
0.811540453
1.11915371
1.155190662
1.15375576
1.152719339
1.152555586
1.152645586
1.152855316
0.1832038321
0.2121845609
0.2985556639
0.4281437532
0.6128204477
0.8864401455
1.156297548
1.153854634
1.152239733
1.151825377
1.151848032
1.152063187
0.0660365292
0.1033255951
0.1911136693
0.3128251491
0.4817947298
0.7207092893
1.102451731
1.154375043
1.151867853
1.151128009
1.151035725
1.151238682
0.05706139906
0.1406913216
0.2505404266
0.404334363
0.6222690424
0.9770824011
1.155272563
1.151676026
1.150516736
1.150249712
1.150412748
0.06659298068
0.1346446388
0.2295271927
0.3689904828
0.5679438925
0.8997143751
1.156462389
1.151652465
1.149983212
1.149503124
1.149611653
0.09163061359
0.1503251784
0.2364926297
0.3656913083
0.549788385
0.8589486227
1.157826358
1.151843087
1.149621228
1.148882832
1.148912564
0.1241295125
0.1794156762
0.2629626929
0.3869156253
0.561139403
0.8518737936
1.159289695
1.15220424
1.149410788
1.148409601
1.148357209
0.1611012499
0.220780762
0.3078531231
0.4316833039
0.5992568387
0.8735351748
1.160720424
1.152780832
1.149426599
1.148156468
1.148009473
0.05905608872
0.04969619465
0.08319491936
0.06184400212
0.116783307
0.0871602012
0.1477133929
0.1217717586
0.1515806849
0.067121885
0.05152608928
0.09772641893
0.03010208219
0.02112110881
0.06425044285
0.1141395741
0.1197859357
0.04407737852
0.04971127342
0.08836693482
0.128242907
0.1159921411
0.07339188838
0.05408773744
0.1199625864
0.1558742092
0.1342062288
0.1255283453
0.0971371789
0.02432613802
0.1388881563
0.1333548185
0.04813903484
0.03136396727
0.05165269847
0.03319718886
0.04621326953
0.05360365809
0.04388298941
0.07298472292
0.06260034689
0.0698591063
0.04738378204
0.06290979194
0.07155963614
0.09300488411
0.07502039393
0.104149661
0.0966131952
0.1140868658
0.07048421419
0.09346272604
0.09968896277
0.1324457152
0.1264294118
0.01655219139
0.0143689885
0.1403029244
0.02755030833
0.01656456228
0.008985594044
0.009586636446
0.1539947524
0.1922914334
0.1641614234
0.009921273573
0.08109938136
0.07104306005
0.02424473042
0.03150583316
0.05033093777
0.06893436798
0.05028300854
0.1364740682
0.1261009406
0.1343710668
0.1153159564
0.1248894333
0.1331974675
0.02646937447
0.02150257645
0.0339742476
0.02517652984
0.0157490535
0.02425405062
0.0219641882
0.01080741984
0.01759134001
0.02297073928
0.05508070038
0.05591058738
0.06399913146
0.06264972586
0.02460546306
0.01122512737
0.1143257917
0.02075039213
0.03915152689
0.01021405408
0.0175289404
0.1098347728
0.1013422565
0.08630190916
0.0103209001
0.03880918534
0.0384360944
0.05149202299
0.05111543481
0.06674750408
0.06965021337
0.06503644791
0.07612349639
0.07121848139
0.06711109987
0.05743716203
0.05755656876
0.05256796483
0.06336918494
0.05892772946
0.05900802129
0.08808682027
0.009935423165
0.08645406136
0.04188524712
0.06155870148
0.1304543251
0.04683302538
0.02654300803
0.006649665795
0.1064608417
0.003569853012
0.02531077283
0.01876328128
0.006286072
0.01614674126
0.01165591694
0.01073068414
0.009327259421
0.01413290527
0.009966860984
0.04730423754
0.02100336269
0.01971913387
0.05442660642
0.06888796358
0.02126901716
0.02908031426
0.0134264127
0.01330598763
0.05636194194
0.04441587536
0.02368422763
0.02119881218
0.03835592613
0.04488534042
0.04078814978
0.05102268867
0.04630775258
0.03948082678
0.05253285396
0.01404987225
0.01350688478
0.0457526669
0.03086828612
0.03369519002
0.07951249653
0.1059949369
0.1041043625
0.09624169982
0.0780994255
0.08386410064
0.07803811749
0.09337609215
0.08616303246
0.07944953236
0.1316702418
0.06451168832
0.08538580156
0.01074456282
0.01268052463
0.006482754579
0.01246442222
0.009739249239
0.009590363119
0.03764806844
0.02844955272
0.006615476703
0.01142622051
0.008003281405
0.01183025146
0.01181666751
0.01707506974
0.05890140282
0.01034207771
0.009433384796
0.02222902977
0.02210284194
0.01917627208
0.03089580108
0.0235004087
0.01876072141
0.01688038915
0.01311366799
0.01815887974
0.01417322314
0.04984883733
0.05616795581
0.01938637403
0.01824738986
0.01978934512
0.02055619549
0.0673014352
0.01174880205
0.01213065951
0.01608221809
0.01199730234
0.01230265656
0.0578481499
0.01277666246
0.01933392181
0.01653457806
0.01459573505
0.0276861352
0.07191187115
0.06570302696
0.01336221057
0.05475244358
0.04722876207
0.06342834528
0.05732514798
0.01418984436
0.01313165671
0.050558223
0.04136141566
0.0325639332
0.03098849185
0.04313658187
0.02264068635
0.02272018605
0.01811146043
0.03228412617
0.03254654604
0.02355583079
0.03256747002
0.03512686506
0.03744896294
0.03407822764
0.01494351933
0.01431286864
0.05223968017
0.0475777672
0.01484303146
0.0151597331
0.0346267326
0.0292039873
0.04503791245
0.03757618166
0.009546016221
0.01838214805
0.01714638294
0.02722538424
0.01913388477
0.006788396675
0.03810533624
0.009454526348
0.01040571367
0.00945138387
0.03523109052
0.009735624217
0.05904736478
0.126775458
0.1660029338
0.009634067299
0.009615292071
0.2033988271
0.006641017794
0.1388240146
0.144461468
0.1616085654
0.005197298063
0.008341414751
0.006112911644
0.005038494335
0.006254881306
0.004934458751
0.0634613906
0.04012428565
0.02476513948
0.02709853606
0.02381888907
0.02733892794
0.06210641895
0.05372952602
0.01516600738
0.09038856018
0.1051796519
0.1357536812
0.0289184905
0.03475476604
0.03378129408
0.0109876559
0.01252401634
0.009928768194
0.01025977626
0.06448422412
0.01430737687
0.009941040076
0.0133263238
0.01197766088
0.009953164669
0.03121582154
0.03948757993
0.080379416
0.03951224109
0.03606625262
0.02660053114
0.06160136743
0.02003525814
0.02816471443
0.02578763054
0.01628609851
0.01093587826
0.0217794332
0.02008729285
0.01854017347
0.02143320347
0.02600705957
0.02245976776
0.01226728297
0.01334182796
0.007768874169
0.009587195284
0.01271266648
0.08057931858
0.07399774778
0.03024219013
0.009878014825
0.01844770213
0.01653241325
0.01126831416
0.01837178104
0.015581154
0.0102980238
0.01041386992
0.01585243855
0.01505934023
0.009991820707
0.01033249451
0.009973969068
0.08110909346
0.03504326637
0.04300374994
0.00980771101
0.009800193657
0.009872789434
0.0113250653
0.01201082624
0.02083300872
0.006873701491
0.004584433928
0.008444009454
0.01392472618
0.009528003455
0.01054817354
0.009473688607
0.009778883023
0.0122941236
0.01105712828
0.007317592196
0.005462165239
0.01805223606
0.01862559227
0.01739410958
0.01761801875
0.02043081328
0.03077984967
0.03119561439
0.03022138833
0.03060089954
0.02023826972
0.01319060543
0.02360531584
0.02354475134
0.02438955781
0.02376655687
0.01292699124
0.02257925654
0.03430664397
0.03790124133
0.03154440236
0.03250395717
0.02190052609
0.01397722842
0.02353765624
0.02350161056
0.0234947955
0.02352503251
0.01374407375
0.01671235689
0.01711226689
0.01614985104
0.01689788219
0.009906659001
0.006797245247
0.009925592577
0.0113269364
0.006668604916
0.009208510306
0.0082380465
0.01523765956
0.004055510555
0.009486382354
0.007343129669
0.005211738629
0.006471968372
0.00967735358
0.008555199101
0.009679974678
0.01130973097
0.01030109823
0.00895468247
0.009670611642
0.00666764222
0.009753391613
0.02778118877
0.02197291839
0.02500579117
0.02742914209
0.03082211931
0.02699492493
0.02502733639
0.02680710448
0.0172825826
0.02735538666
0.0290109808
0.01992247727
0.02748467559
0.01834736877
0.01898599876
0.02965293692
0.03003674104
0.02900975081
0.02951857758
0.01875085501
0.02001987754
0.03510122973
0.03455130954
0.01192716681
0.01202577904
0.01379706272
0.01074238737
0.01111444478
0.01154817673
0.01221116661
0.01173414007
0.01544974855
0.02917268384
0.0260860932
0.03366114924
0.03197480036
0.01808540883
0.009490239201
0.01092176483
0.01966267017
0.007294278293
0.009476779034
0.009478029881
0.01393277718
0.009575946386
0.0098292392
0.0243062002
0.0215663641
0.01149251862
0.0324795219
0.0440609952
0.04224127819
0.04191837771
0.04328911912
0.0307152457
0.02154822162
0.02297234095
0.03433712425
0.02451834111
0.02343040363
0.02594757552
0.02475364531
0.03421024963
0.02410906256
0.02470776294
0.01990358936
0.02568964234
0.01465125963
0.02351408579
0.02350385278
0.02354591443
0.02354735916
0.01456453696
0.01534019544
0.02172514041
0.01891818143
0.02335521244
0.02290759772
0.01524562505
0.01024106877
0.0106292305
0.009843461519
0.01415693034
0.01209093079
0.01796860057
0.01101821585
0.01086630767
0.01110224334
0.01108121278
0.01764612672
0.02433855819
0.01275694083
0.01500103276
0.011147128
0.01072013031
0.02105446558
0.009724009583
0.0136914775
0.01293281543
0.01847614561
0.0153154366
0.009593789445
0.009436763534
0.009732162034
0.01196908828
0.01070255774
0.006945337112
0.01005057351
0.9773945512
1.147528413
0.9695715972
0.9681407565
1.134998285
0.9759855283
1.037702364
1.157681851
1.062466982
1.158049316
1.157016972
1.1577351
1.156809702
1.156372046
1.156544774
1.15585391
1.155874156
0.691616116
0.9081631128
0.6846444597
0.6894719559
0.9003361012
0.6993517739
0.7533432224
0.9674533778
0.7793564094
0.8857986027
1.114832351
0.9311478182
1.102350759
1.157070383
1.157836747
1.156440244
1.155928383
0.429988686
0.6215814983
0.4238143513
0.4324233492
0.6207838997
0.4435880496
0.4990609555
0.6848055995
0.5243519266
0.6226724643
0.813564685
0.6624178328
0.8138750211
1.024466862
0.8746673579
1.086528481
1.156737018
0.2285853389
0.3735469885
0.223079765
0.2365697655
0.3768796053
0.2496710245
0.309935437
0.4457816784
0.3352315023
0.4292844522
0.56706613
0.4666554767
0.6014620428
0.7533208242
0.6555846319
0.8508819947
1.021436139
0.08061877445
0.1888296143
0.07956461903
0.1101344579
0.197925947
0.1246703153
0.187060476
0.2730806576
0.2122714199
0.3014959158
0.391250587
0.3360774651
0.4600422926
0.5603120644
0.5092437133
0.686072028
0.8041731357
0.03253100393
0.04178436383
0.07099367284
0.07890311724
0.1043282728
0.1226182526
0.1486133913
0.2299762695
0.2785825092
0.2618152852
0.3747873513
0.4338956289
0.4193776311
0.5789717321
0.653229979
0.05702498081
0.08132686779
0.08525776981
0.1335628214
0.2034142745
0.2195834516
0.2316795901
0.3337764704
0.3607788397
0.3743968778
0.5207477523
0.5601208874
0.07564819232
0.09366355907
0.08771598917
0.1449787371
0.206775481
0.2021093719
0.2326131989
0.3265281167
0.3292144051
0.3640604325
0.499672158
0.5119980245
0.1032796394
0.119457584
0.1091351829
0.1710707358
0.2302282264
0.2113401686
0.2545424329
0.3438031254
0.3286335426
0.3795094337
0.5068098585
0.4988683262
0.1365449376
0.1540017203
0.1406798731
0.2090333006
0.2701224839
0.238675426
0.2948089874
0.3833299479
0.35158636
0.4181679364
0.539424391
0.51313016
0.1685388366
0.1863973891
0.1748787469
0.2829360171
0.3968582395
0.5526417053
0.05621639353
0.04944154116
0.05370578792
0.04123441504
0.04104414162
0.04900361864
0.07981570372
0.07462494065
0.07989913581
0.05527234015
0.06077906203
0.06405344925
0.1127699657
0.1097834987
0.1144844847
0.0820360987
0.08697677388
0.09114116575
0.1445726504
0.1405270699
0.1429705486
0.1183603659
0.1225818728
0.1259571809
0.1451797551
0.1474532808
0.1541237092
0.003175217946
0.003758662898
0.003341143759
0.03459468136
0.003188633817
0.002923167622
0.05415358558
0.04596292208
0.04242944506
0.07547360061
0.04692783742
0.07003939927
0.02932974575
0.02860963361
0.02925944382
0.01813272803
0.01811824591
0.02129398474
0.08504461669
0.0825950696
0.05820112958
0.1138256499
0.09636639112
0.09756300405
0.09948597519
0.09702115765
0.1155064416
0.04455266306
0.02853772459
0.02830970128
0.04562634872
0.04472777344
0.05136179914
0.1052070611
0.0970689495
0.07727258162
0.1232012155
0.1092760796
0.1147418752
0.1003267708
0.1043039507
0.1191131886
0.07179775088
0.05724942581
0.05916811835
0.0385055314
0.03876006517
0.05461628915
0.1360842231
0.123920052
0.1074048529
0.1481063044
0.1356752537
0.1437258657
0.1209206071
0.1280194564
0.1408844501
0.1234336231
0.09449352557
0.09916619302
0.06246002285
0.06833748147
0.1012263964
0.03672924725
0.03362647062
0.02119347523
0.1367387393
0.1103618005
0.1252723798
0.1322891485
0.1326980116
0.1328705118
0.04681544623
0.04829020426
0.04658092538
0.03025274511
0.03094622398
0.03195472875
0.04404650934
0.04781069023
0.05384249346
0.03487036427
0.03666828878
0.03494835317
0.04715776706
0.04558794349
0.04357187132
0.05321964867
0.03817410201
0.0382844752
0.0282141482
0.02819891281
0.04395925168
0.06795914442
0.07189595195
0.08150805843
0.06345120223
0.06556898397
0.06059415425
0.07424273329
0.07236906889
0.06841776911
0.05128658882
0.05052892848
0.04879184214
0.06003502604
0.05659541551
0.0654576892
0.06447902009
0.06155608546
0.06603644087
0.08908991262
0.05407282292
0.06048133527
0.0608608873
0.06232580739
0.07649447601
0.09947334702
0.1057391256
0.1086370911
0.1001280622
0.09732829459
0.09461691484
0.1119729382
0.1068737145
0.1081341579
0.07292020121
0.07808776923
0.07616475327
0.09176857632
0.0877936271
0.08485457649
0.09530351807
0.08975763368
0.09585344567
0.132707898
0.1308596132
0.1317805661
0.10370547
0.1083940139
0.1278526722
0.1270202683
0.04028026261
0.007682789772
0.00970282197
0.009351773735
0.1645363318
0.1619450827
0.1404198301
0.182175875
0.1697715571
0.1795762322
0.1521120027
0.1605130701
0.1730363113
0.07622185684
0.04269986592
0.05200017684
0.05963455624
0.06145196679
0.07376216452
0.02557957091
0.03497211578
0.03532884509
0.0333644421
0.03204117416
0.02984618945
0.04902491644
0.04128575539
0.0423485901
0.06646264746
0.053784931
0.05641281235
0.03477959686
0.03783838479
0.0530373226
0.1342018455
0.1377643597
0.1402205277
0.1308674748
0.1321445645
0.133106232
0.13907653
0.1358456943
0.1346686767
0.1192713631
0.1206651538
0.1160203555
0.128935761
0.1228875983
0.1206544613
0.1296268635
0.1267252001
0.1302981748
0.01387716876
0.02247849749
0.01912630049
0.01830143316
0.03022177551
0.01890763323
0.02901503881
0.01337836419
0.01679032064
0.02711797752
0.02093295303
0.02310158846
0.02575465929
0.01155916061
0.01632714771
0.014658178
0.01702330858
0.01550089324
0.0161314564
0.02178018109
0.01917277637
0.02022889394
0.04094927576
0.03942564148
0.05377617677
0.05692489881
0.0420142807
0.04116645663
0.04948742662
0.05039130579
0.06500922089
0.0612508529
0.04664263022
0.0483019359
0.085638379
0.0900485725
0.1187697149
0.02358596277
0.03808733428
0.03496572003
0.05483154026
0.052463501
0.03645286076
0.03183899715
0.02944134403
0.01559527982
0.1056523511
0.07065815309
0.07432402064
0.0962748872
0.07296705782
0.07811622512
0.05549423856
0.06181834141
0.09112833565
0.03864148442
0.04052033717
0.0401849209
0.03796058712
0.03622419047
0.0371798826
0.03786975399
0.03789478662
0.05174238101
0.05046743742
0.03711911875
0.03769017585
0.06672174823
0.06495439916
0.06448926401
0.06835948043
0.06612183099
0.06769940839
0.06255054455
0.06313850164
0.0667008937
0.07449170006
0.07222621763
0.0738888471
0.06905673996
0.07059744411
0.07281692134
0.06801119602
0.07051874775
0.0686804494
0.05400718466
0.05224629975
0.05271058998
0.05588105023
0.05381002933
0.05547743179
0.05045624239
0.05213841691
0.05424130904
0.06193524909
0.06103428794
0.06176920418
0.056983518
0.0589995929
0.06042638913
0.06496758536
0.05670022725
0.05575140132
0.04543135813
0.05157563901
0.09677340294
0.08454269952
0.07035042046
0.07201702188
0.05084653107
0.08192183325
0.08218563608
0.09120677096
0.08659034513
0.05373261458
0.1299238432
0.113242793
0.1180688107
0.04378518124
0.02836212708
0.03145705905
0.01403960075
0.01582125708
0.02902243851
0.08337692431
0.02277668894
0.01257728061
0.01386790935
0.01237672675
0.009386524264
0.006363741264
0.01079440953
0.0150720976
0.00794463393
0.009884648672
0.009733793712
0.008257608976
0.007807112864
0.01214090475
0.008560838226
0.01184815791
0.006213020258
0.007286413685
0.01071204988
0.03099193573
0.02928771501
0.04553173314
0.05286917559
0.04415684886
0.04341407338
0.05359889573
0.05532064504
0.07017382714
0.02313540472
0.03935164429
0.03740849137
0.04455184466
0.04198188534
0.02629627336
0.05536679139
0.03926974542
0.04017358511
0.04745180539
0.04880301497
0.04568431656
0.04077841599
0.03832358297
0.03667536288
0.04346092006
0.04050910632
0.0421187683
0.03749733256
0.03899888467
0.04218111988
0.04944158304
0.04716824273
0.0488208815
0.04371828614
0.04546732093
0.04793175578
0.04259557047
0.0440135113
0.04260278048
0.03798046625
0.03806097544
0.0528498858
0.04445340573
0.02866897997
0.03014239123
0.03193713328
0.0479913189
0.0465399074
0.05055899338
0.04929529366
0.03280394515
0.07800885197
0.0637451086
0.06513366417
0.1024821111
0.09995261605
0.1033068591
0.1016827459
0.09898710265
0.1017375703
0.0934011024
0.09618857653
0.09877265519
0.08172920343
0.07994216738
0.07417519674
0.08192787297
0.07930679088
0.08123199106
0.07564239686
0.07745094754
0.07986321911
0.09095778005
0.08799681387
0.09065583867
0.08330514467
0.08561730223
0.08835474103
0.0827909219
0.08567311362
0.08365007857
0.1229818246
0.1278279201
0.1316750573
0.06969455609
0.1008055755
0.09609769246
0.1107193672
0.1057012713
0.08064960999
0.0108793524
0.01088363867
0.01296881597
0.03479578879
0.02170177181
0.02432813769
0.0164794831
0.01920982081
0.03157491064
0.00797934394
0.01274683044
0.02392189037
0.02138140532
0.02972746068
0.02664387564
0.01433838287
0.05647320583
0.04107714479
0.04435164864
0.02081780409
0.02084979169
0.02367752888
0.01776098871
0.01935975317
0.02005836251
0.02553247407
0.02824566344
0.02534283661
0.01778096724
0.01594613147
0.01697107191
0.01527191925
0.01542597195
0.01708986919
0.01458981078
0.01404480563
0.01346149433
0.05206007703
0.03811405
0.03450361083
0.04299382941
0.0422987335
0.05767971993
0.03631693319
0.03562772261
0.02022051088
0.0662910289
0.05130232777
0.05230093302
0.04199028173
0.04436289423
0.05949947376
0.04346348618
0.04095144274
0.02579485834
0.06992108977
0.05679753134
0.05910447704
0.05134904251
0.05414371526
0.06772345708
0.05234453338
0.03594100285
0.03885643876
0.03063977551
0.03292457521
0.04953866524
0.06161385655
0.04591910586
0.04845859055
0.04145490668
0.04358561982
0.05914756282
0.01496848968
0.0277576785
0.0262307711
0.02356296582
0.02080301416
0.01170534968
0.04800106155
0.03369463883
0.0368338375
0.02755670955
0.0306271643
0.04412712667
0.04169297172
0.0427280079
0.04523464918
0.03405357483
0.03527226428
0.03579615341
0.04010472658
0.03620419698
0.03435214231
0.04021400375
0.03818997786
0.03570229914
0.05199443954
0.03792210285
0.03793722017
0.03306604383
0.03573033129
0.04928997493
0.03231851516
0.01746130245
0.01947436483
0.01595644743
0.01676510269
0.03071573362
0.04297991881
0.02744183192
0.02895669644
0.02266722492
0.02547381745
0.04050308012
0.02385269703
0.02582681973
0.0407330022
0.03212244081
0.01893478857
0.02167787168
0.08778862471
0.09387697527
0.07352418018
0.1361032103
0.1143067429
0.103445042
0.1429544012
0.1263930778
0.1493604688
0.189057431
0.1990190958
0.2156389774
0.135135061
0.1451199983
0.1417523692
0.149234469
0.1472693424
0.1412384975
0.006001617968
0.004345147665
0.004000232591
0.007455497946
0.006047254904
0.006842369377
0.004512310309
0.004724642683
0.007024937679
0.004361813046
0.003864570312
0.003314685729
0.005483057759
0.004180847123
0.005364301834
0.003838623397
0.003875219233
0.004990748089
0.03414385671
0.04168811444
0.04693090167
0.03598404192
0.03678793949
0.03115089713
0.02687220988
0.02759379134
0.02763582993
0.02473837775
0.02664414727
0.025913643
0.0279495163
0.02705440265
0.02586631321
0.05930919375
0.04681044215
0.04983209448
0.04016355945
0.04345427406
0.05646828278
0.01803453639
0.03019748328
0.02684563572
0.09508665311
0.12070612
0.1157249932
0.1301229599
0.1257999283
0.1001724102
0.03056576276
0.02991648487
0.02882597474
0.03270759568
0.03109074686
0.03237714387
0.03318961591
0.03196376873
0.03289709702
0.05325919283
0.03381655162
0.04804577285
0.04554392169
0.05391564246
0.05151972669
0.03652819918
0.07545156662
0.0653975318
0.06518664433
0.0382333937
0.03483951641
0.0361131445
0.02786396429
0.03074440657
0.02966921609
0.0476462654
0.0506467102
0.06404980991
0.02246303058
0.0358914256
0.03298784727
0.04204567369
0.03912786021
0.02523996273
0.02245082024
0.02037949312
0.02401518234
0.0143960284
0.01732453062
0.01918907035
0.01500869737
0.01610457662
0.01277434506
0.07811789729
0.06649327041
0.06805485226
0.06164942699
0.06377713568
0.07615493065
0.03322788061
0.04919911656
0.0464024142
0.0667340156
0.06836908091
0.08281558726
0.03717853738
0.05412874568
0.05219581132
0.05856153773
0.05652114863
0.04015622762
0.01029515537
0.009069120935
0.01074451122
0.006449058198
0.007656659025
0.00860586567
0.006550155987
0.006999649681
0.005618756399
1.157384417
1.157416824
1.156568989
1.157327737
1.157175353
1.15651805
1.156966348
1.156746088
1.156401443
1.156532231
1.156330486
1.156265532
1.156153373
1.15600585
1.156160425
1.155881481
1.155789098
1.156092551
1.15571622
1.155663661
1.156053077
1.095607197
1.08056877
1.130177907
1.090764441
1.118517377
1.157953421
1.157945496
1.157712658
1.15735197
1.157082546
1.156853774
1.156681838
1.156297777
1.156117983
1.156101578
1.155683503
1.155291638
1.15550923
1.155109451
1.154964376
1.155295723
1.154858995
1.154805214
1.155197328
0.8282557951
0.8242108027
0.8946965472
0.8398644804
0.8543215855
0.924485025
0.9229399227
0.9567779661
1.030745165
1.086062958
1.140530217
1.157817323
1.157023247
1.156666914
1.15644695
1.156057094
1.155215105
1.155212678
1.154775767
1.15446348
1.154677399
1.154238036
1.154107629
1.154417619
0.5478750364
0.545845455
0.6126070928
0.5651438057
0.5794311339
0.645086677
0.6446710092
0.6740743957
0.7404227572
0.7877043215
0.8359446866
0.9068341335
1.013289703
1.086034765
1.156428267
1.157356101
1.155722234
1.155398851
1.154903559
1.154288607
1.154322257
1.153850824
1.153576942
1.153779373
0.3152327475
0.3141064478
0.3661480447
0.3383367909
0.3542946423
0.4043483296
0.4214063018
0.4502484937
0.5001888591
0.5567965002
0.5991871155
0.6515756908
0.7544298234
0.8166259726
0.875266658
0.9230810051
1.157157837
1.156332738
1.155673818
1.154560389
1.154350859
1.153771546
1.153231949
1.153359923
0.1470064871
0.147961866
0.1830504754
0.1788723885
0.1966310345
0.230029597
0.266104061
0.2940975488
0.3270944859
0.3936751145
0.4331364863
0.4680350113
0.5740713632
0.6305875274
0.6707181462
0.7456159921
0.9859473049
1.07434467
1.157162091
1.155382769
1.15488115
1.154074165
1.153127846
1.153132669
0.05361038747
0.0536455611
0.06566169022
0.1735576971
0.1999134129
0.2181369514
0.2929393225
0.3290551655
0.3499825731
0.4577961818
0.5085609166
0.5338005086
0.6376706121
0.851676608
0.914025148
1.03253621
1.156715748
1.155979134
1.154779257
1.153336931
1.153153515
0.05651050998
0.06512958753
0.06616074282
0.1360066506
0.1592467021
0.1648460776
0.2419576499
0.2747400319
0.2842062099
0.3919373235
0.4383938895
0.4517737588
0.5767895148
0.7597312582
0.7991432813
0.9337699253
1.132934751
1.157511185
1.155826
1.15383087
1.153510693
0.06969300662
0.07574111507
0.07315933999
0.1370018218
0.1564451661
0.1548005119
0.2290356223
0.2583953165
0.2596925394
0.3654784685
0.408242337
0.4126186228
0.551520503
0.7142323579
0.7318110136
0.874754424
1.062173348
1.093450413
1.157100166
1.15457768
1.154146801
0.09527753255
0.09976279481
0.09632745424
0.156500495
0.1744754565
0.1684808495
0.2413428474
0.2686311833
0.2642257974
0.3688116395
0.4088244272
0.4062802525
0.5542638344
0.7042858464
0.7052613294
0.8515966454
1.022341003
1.038711076
1.15848931
1.155525689
1.155019038
0.1283483572
0.1333827472
0.1291674399
0.1884916231
0.2064076989
0.1972587409
0.2722308315
0.2991484196
0.2897425003
0.3959894082
0.4343389617
0.4256409686
0.5825971764
0.7236566529
0.7106593579
0.8592385726
1.012954312
1.014561053
1.159922381
1.156625123
1.156067976
0.1607128971
0.1684704164
0.1636804745
0.2336384611
0.2529770706
0.2395661838
0.3226348134
0.3500913596
0.3352268733
0.4465311405
0.4839597543
0.4692832435
0.7425957986
1.020427885
1.15721966
0.05533101886
0.0710760912
0.06906853878
0.06191769055
0.09327806181
0.09036894623
0.08474224653
0.1246376099
0.1204871754
0.1158837107
0.1374362607
0.1370830369
0.1338541981
0.04582043084
0.04527136977
0.0452234169
0.06249596755
0.06738476339
0.06655911457
0.07668594888
0.07669638778
0.069339616
0.04867930689
0.04765175869
0.04696746696
0.06544665321
0.06450139494
0.06355827554
0.1109305238
0.1089296058
0.1127426611
0.07113947995
0.07862668222
0.07859466952
0.1377569474
0.1598991098
0.1557137724
0.1532730392
0.02439781706
0.02808750625
0.02834261315
0.1280377173
0.128318759
0.1270644358
0.1388837358
0.1366595855
0.1365497674
0.1166322898
0.1150543947
0.1133578947
0.1252546962
0.1241753189
0.1234535769
0.0277856357
0.02384769508
0.02151114791
0.02114085873
0.02083675317
0.02500165817
0.01046666007
0.01213582969
0.01238662226
0.07051122639
0.07032806117
0.06627812257
0.06737064839
0.07195591791
0.07216896115
0.05408307812
0.0531503495
0.05586605771
0.06076226739
0.0566532472
0.05558732783
0.07416523605
0.0754254914
0.09018450532
0.04474374756
0.05996380709
0.0578468802
0.07379102365
0.07150160272
0.05914366495
0.03823289146
0.03718702568
0.0373652045
0.04049582797
0.04089128539
0.04020414619
0.0837905464
0.08403844295
0.07689316236
0.08045457688
0.08564428356
0.08570595463
0.06627982578
0.07848862228
0.07587930107
0.06835757136
0.07065362051
0.06201841507
0.1366793346
0.1422596626
0.1401001358
0.1581587364
0.1509759157
0.1550681555
0.05459350558
0.04964792704
0.05838755593
0.02873324896
0.02938469258
0.0258616571
0.1340906467
0.1327233931
0.1336532195
0.03280491961
0.03376593165
0.03739985593
0.01265481899
0.01301134688
0.01196797757
1.040944861
1.096737035
0.962639617
1.025423468
1.03636037
1.032312145
1.025811952
0.9628103248
1.130003259
1.081348696
1.088830743
0.9930375752
1.059225198
1.037175281
1.107107172
1.069775772
1.008941185
1.157798153
1.123459386
1.158117111
1.1037016
1.158149033
1.124443696
1.157615242
1.157920625
1.137003703
1.157195985
1.157500938
1.157273404
1.157387448
1.15709281
1.157358181
1.156606615
1.156857708
1.157101036
1.156528816
1.156669416
1.156462351
1.156287182
1.156178865
1.15639693
1.155821781
1.155999474
1.156062348
1.155986607
1.155976683
1.155827846
0.7635444115
0.836230182
0.6819001005
0.7528192372
0.7561205303
0.7597305862
0.7541283309
0.6835870332
0.8951761456
0.8251163179
0.8304681726
0.7133773443
0.7835182624
0.7693756825
0.8241172213
0.801353023
0.7311744318
0.9421487242
0.8722218161
0.8959827247
0.8101811992
0.8827025673
0.8506033863
0.9611624765
0.9186162625
0.8451647489
1.067381959
0.993440036
1.038390804
0.982930804
1.062117385
1.007950232
1.15786059
1.11780722
1.03933602
1.157422465
1.15785384
1.157429716
1.157342719
1.156957843
1.157407055
1.156213433
1.156566778
1.156854812
1.156173142
1.156337916
1.156045818
0.4902772968
0.5542977299
0.4222406654
0.4822405564
0.4840056345
0.4916476653
0.4848363062
0.4251934616
0.6146133779
0.5481819332
0.5546915134
0.4584763608
0.5171473041
0.502486613
0.5571347194
0.5353451769
0.4770184354
0.662945185
0.5974224406
0.6192082728
0.5531267212
0.6114860095
0.5824707367
0.6818936774
0.6443342708
0.5859282818
0.774528657
0.7074283696
0.7451998869
0.707200858
0.7709144482
0.7248417976
0.877424253
0.8208633203
0.7571345313
0.9623714528
0.8897796484
0.9477325376
0.9401631351
1.011321779
0.9424068805
1.157566955
1.084584131
1.012452573
1.157254226
1.154640194
1.157135505
0.2729213617
0.3212138444
0.2226477685
0.2662709534
0.2670691847
0.2789521526
0.270283871
0.2272678402
0.3693317874
0.3177917531
0.3260112295
0.2663671219
0.30834462
0.291934795
0.3505210594
0.3277821295
0.2867458058
0.4234254103
0.3734621453
0.3957610575
0.3635251211
0.4044120782
0.3762832233
0.4710240306
0.4357985765
0.3951388566
0.532399653
0.4815147989
0.5164811188
0.507269484
0.550817342
0.5097494715
0.6474494996
0.596476443
0.5524214493
0.6986444312
0.6451377836
0.6978861841
0.7148102198
0.7631523519
0.702687333
0.9018690579
0.8296117654
0.7799808081
0.9453685074
0.8850403913
0.9580636308
0.1213210317
0.1510983549
0.08433063054
0.1160446792
0.1152892442
0.1334935668
0.1234134246
0.09710074385
0.1881648279
0.1535876969
0.1643772121
0.1413544965
0.1677957139
0.1490574185
0.2116539465
0.1882837091
0.1634459904
0.2503769994
0.2171683603
0.2402997012
0.239651871
0.2648430255
0.2372838509
0.3275948014
0.2948844553
0.2693231225
0.3579152899
0.3243853816
0.3573001413
0.3740224418
0.401942796
0.3631615775
0.4894626435
0.4436621864
0.415266082
0.5123262515
0.4761820742
0.5231682027
0.5625965862
0.5948711932
0.5397126239
0.7225180525
0.655246428
0.6212937569
0.7339878367
0.6927413398
0.761393498
0.03361604993
0.04333323563
0.04252296439
0.04993351246
0.04540961944
0.03697699338
0.06811388902
0.05590301059
0.06077417812
0.1733922415
0.1851725597
0.1595345125
0.2431660437
0.2132121995
0.200759274
0.2471716395
0.2285558383
0.2593203487
0.2963467706
0.3112290121
0.2758999105
0.3914565968
0.3497158308
0.3339408898
0.3904173952
0.3685080261
0.4111282635