/*--------------------------------*- C++ -*----------------------------------*\
| =========                 |                                                 |
| \\      /  F ield         | OpenFOAM: The Open Source CFD Toolbox           |
|  \\    /   O peration     | Version:  v2012                                 |
|   \\  /    A nd           | Website:  www.openfoam.com                      |
|    \\/     M anipulation  |                                                 |
\*---------------------------------------------------------------------------*/
FoamFile
{
    version     2.0;
    format      ascii;
    class       volScalarField;
    location    "1.44";
    object      k;
}
// * * * * * * * * * * * * * * * * * * * * * * * * * * * * * * * * * * * * * //

dimensions      [0 2 -2 0 0 0 0];


internalField   nonuniform List<scalar> 
3259
(
37.00532919
37.0033605
36.99199587
36.98023792
36.9697339
36.96234929
36.95834977
36.95601365
36.90986459
36.90907341
36.90867876
36.90842199
37.03050418
37.02507386
36.98925716
36.93073804
36.87777014
36.84064913
36.79677074
36.78327258
36.73188661
36.72922516
36.72793882
36.72724356
37.09604018
37.08640774
37.02828076
36.92817809
36.81326059
36.72784705
36.65019819
36.619335
36.55907917
36.55284316
36.54990037
36.54870066
37.25279204
37.23708176
37.14603623
36.99354527
36.82200869
36.6643642
36.53177043
36.47125504
36.39293541
36.38096734
36.37517098
36.37291093
37.60378388
37.57399226
37.41304972
37.16193936
36.89964869
36.6713368
36.45628173
36.34431262
36.23621351
36.21353241
36.2031448
36.19910358
38.43055705
38.33402741
37.93777353
37.49178023
37.07144552
36.73109794
36.4310856
36.24374591
36.09119252
36.05060557
36.03315719
36.02632843
40.32905717
40.14808681
38.90383301
38.03341577
37.35224778
36.85029958
36.44602563
36.17436831
35.956939
35.8927138
35.86504619
35.85428387
43.05791407
40.46062022
38.80670582
37.73753224
37.02383583
36.48899085
36.13271656
35.83632874
35.74132668
35.69986101
35.68393676
47.87220847
42.36289816
39.73100015
38.19899043
37.23673658
36.55254786
36.11318029
35.72985544
35.59847483
35.5402983
35.51805848
51.20883137
44.08822242
40.64438797
38.6656252
37.46212175
36.62959803
36.11138762
35.63913956
35.46771909
35.39020119
35.36051773
52.84835258
45.36201064
41.39719216
39.07677632
37.67509887
36.70943212
36.11867152
35.5631551
35.35102411
35.25331644
35.21537018
53.55520026
46.17387246
41.94045934
39.39908039
37.85798754
36.78310276
36.12811416
35.50251307
35.24944209
35.13144811
35.084923
48.4209957
43.4490551
52.10663325
48.88072715
53.81564869
52.41295957
54.50709614
53.92908424
54.54894152
40.29334843
42.93966287
40.05119805
52.48267145
45.19880462
47.33897667
42.8193865
41.05434501
56.23495939
58.45389743
50.90325403
44.96966146
43.394844
54.87657453
54.35433466
52.71586175
46.52766512
45.41388066
56.46426145
55.5322506
39.88204674
57.37209602
57.12926765
58.3715396
52.82511751
46.26889539
51.74836215
56.97634167
54.44970973
56.00169055
50.69269691
57.15689056
56.10468009
57.18031446
57.27333843
50.44279817
55.35867965
54.96802823
53.34878077
56.62784929
56.88826788
56.04850487
56.58245571
53.15994954
57.08293026
56.56452992
41.4584237
42.69881657
57.4018341
39.70458471
65.08279706
48.48150116
50.7239357
53.51408824
47.50952254
46.8149089
59.67198954
48.86324227
47.21306592
44.79013525
50.72407767
45.62419715
46.74520936
42.85114632
54.29639003
57.15669787
57.27603964
56.92102416
57.13779619
54.22606965
41.97131373
44.55950653
42.01238108
41.99207726
70.19217626
49.31778772
64.72266366
47.37185967
60.80762265
48.42541407
57.93523787
58.09024522
54.53020501
54.49680658
41.09594385
47.05775076
56.11254447
41.621789
41.86836051
49.04256818
41.90924292
55.98976534
52.01777375
49.78351861
52.93794661
56.44200354
56.0465553
55.33962939
55.47646126
56.65914971
54.90857988
54.3065152
55.4939066
55.07299781
56.57560788
57.87324189
52.9329616
51.86144491
54.07415534
53.24671544
57.86052397
55.54435587
49.81512976
55.47124227
42.21909667
45.87202685
56.82828373
42.24775141
40.95486514
61.16446873
52.65864835
64.54698473
40.04404692
40.83903183
56.06295796
41.49082295
46.16890732
43.76107875
47.39387755
43.53858536
43.91303569
57.04055234
60.35460388
58.94607996
58.46967915
54.64703959
44.7499106
44.90097241
48.68968422
48.12938035
54.21095763
57.78718882
61.95170342
60.71536432
54.37720497
49.64980949
48.10993279
51.45921239
50.13191616
54.75797282
54.78852781
49.7128016
49.03429372
55.6136801
45.05841557
45.26574152
55.17212079
56.74939253
56.22004743
56.14331561
56.0394506
55.87792284
55.6034367
56.10888615
55.94465721
56.0506921
56.89895321
46.52308065
50.87995005
53.79281752
58.03978749
57.38020043
56.82042339
50.73124521
50.55460471
39.90401308
39.93295915
60.04512603
61.10638852
49.95405354
61.57973597
45.6117736
41.39470918
44.5068847
50.08375906
55.8064118
70.47114252
57.12463307
53.11354929
61.27824407
58.00573931
52.34141827
49.04284743
55.05037882
56.47616057
55.72030776
57.35454287
58.3981298
58.52076943
57.03388504
45.93624017
45.00091899
54.58408273
48.14923634
48.01308082
45.33394773
47.65827408
47.91949404
54.26155084
47.90663882
46.31564929
41.90984631
42.5851528
41.29496392
50.72344807
49.70532314
44.31752419
47.5530708
46.01945277
49.30333414
48.08701303
43.35985743
43.60463607
40.87712593
40.04977711
61.84785939
61.17385313
57.48289986
62.97141176
64.01052937
63.89337175
63.08070316
62.28911923
64.34618931
62.89278247
54.68924168
60.85219304
61.95082732
50.72470329
49.8509657
54.92091562
55.62611531
52.34557921
51.1273305
43.8785194
43.47257036
45.58723452
44.26668808
49.96271702
43.74615032
44.84081348
43.36276442
43.45137941
55.77539015
41.26526233
54.64208112
49.28382265
54.28866795
41.06529125
60.82376148
42.5867118
40.51038059
39.15880837
58.71304762
58.21805792
47.67324501
58.73685192
57.28802463
57.33322507
54.69126396
46.0459416
45.43417901
49.12735738
55.31831352
45.95507859
46.15072776
41.46976348
41.82527803
44.32373427
51.02740212
55.04289955
58.00542134
42.9906983
41.37936642
41.84469416
51.60275898
53.35588129
57.28012341
58.86240762
60.61460805
54.27615779
49.70967781
44.96842385
62.22903491
55.04260504
43.53133306
65.71023922
50.43823629
43.17945446
45.0802816
58.73965172
40.12771992
40.24722252
49.21721456
47.57487768
45.91798643
48.1177691
45.09823631
40.84087058
40.20844319
43.19787534
43.53228352
46.62856759
66.82869628
61.64795898
58.89006867
69.88354983
66.83568141
41.25305529
44.7777543
43.61458818
52.07523055
51.43911687
44.44073238
51.95035953
51.07189793
41.31275089
49.43257943
42.28857372
42.60269007
48.05935287
40.79482994
41.65987848
49.28201043
48.93227654
43.05528813
43.55188213
49.54533058
48.84002091
49.25057028
55.24475895
45.41436069
46.72437674
61.33026238
58.53385141
57.66003823
46.82515906
45.14358935
40.44650788
57.51135893
58.7415192
61.7705983
42.68565634
56.69259566
51.00273031
57.05703411
55.80284489
44.18027595
44.90257524
45.73218057
50.91485586
54.22572768
54.6416292
53.57693379
53.89074893
59.93842536
59.21255598
59.54377509
58.50965559
58.84937744
59.41422052
48.51312966
47.44863614
47.7557016
47.01483584
47.22614777
48.48867365
61.42651241
60.35707438
60.39108046
59.87698121
60.15698717
61.06415004
49.31278977
48.64820048
48.98442839
48.02729588
48.34989595
49.111451
52.84216259
52.97771123
52.07197892
52.24901312
64.18738034
63.55815416
61.21610987
48.09697826
64.12202695
62.62001538
68.66749161
62.88590155
65.43473682
60.75406835
51.92741885
67.20120581
61.69938818
51.25933536
50.83696174
60.12519904
47.35067864
52.06230922
57.9282718
55.48751733
56.98989425
54.63127824
65.88488168
62.12457786
66.37061991
60.04288593
63.06053109
65.85365278
67.40323862
66.73515698
55.88605335
56.28214923
56.63403705
55.40612908
55.64830995
55.55694204
57.98207634
57.79226468
58.13515737
57.05682306
57.39461257
57.51987957
45.61537321
47.68560678
47.66246202
48.00140216
48.08113803
46.24903966
48.57390645
48.24870361
47.66683806
48.28246993
48.71079666
47.20214025
47.08149968
47.00160444
47.5683083
47.35698368
46.6748811
51.75347164
47.71052265
41.50327605
53.33913064
53.26388708
52.92612666
43.3708817
51.76140254
51.24056421
41.93476194
42.05057224
46.38277003
61.65294053
60.31774075
60.24803105
60.31310109
60.33787838
61.40925766
63.3955635
63.63917342
62.96929326
66.31321182
66.1947227
66.25223269
66.34328234
62.8217734
64.56871972
65.61986266
67.54789721
64.64781337
50.55163186
49.98394691
50.34257308
49.29848225
49.65146571
50.11654645
51.82893298
51.29275031
51.56612945
50.6850929
51.01631816
51.53395497
48.57495463
48.47876543
49.48604684
44.34584736
46.06653454
44.06666711
48.50676334
48.81147032
48.32466254
48.4471993
44.45677561
43.2764511
46.06804869
44.64097559
48.14802538
48.23827729
43.27606064
53.67985773
42.87836314
43.89424772
41.19812078
41.951145
54.4223109
53.17937415
52.58588038
45.23821977
48.57652365
54.80545774
59.90768515
37.07008307
37.02805604
37.07365569
37.07080598
37.02878497
37.06537384
37.03027853
37.00467571
37.01340811
36.94715568
36.94680046
36.92360821
36.84487188
36.89016661
36.82327354
36.76605441
36.84881846
37.19449615
37.09175521
37.20193066
37.19867123
37.09281992
37.18885197
37.13153592
37.04722776
37.10523877
37.00631424
36.95518208
36.96909068
36.8528665
36.84027711
36.8148755
36.70466954
36.74469199
37.47864346
37.24441968
37.49369251
37.49323436
37.24855272
37.47366312
37.36840022
37.17650482
37.32587149
37.16708974
37.0349804
37.10758046
36.92908671
36.86479865
36.87205804
36.71459473
36.70116242
38.12644686
37.58498415
38.15565325
38.1502545
37.59139922
38.07807938
37.85832232
37.46710146
37.77320894
37.48902268
37.2289671
37.39066017
37.10700959
36.96305435
37.01887734
36.78255605
36.72560619
39.95731041
38.37375005
39.9858911
39.74989248
38.34935553
39.39933288
38.81797179
38.04584945
38.61391981
38.04730995
37.60505473
37.87501611
37.40865353
37.17028355
37.27150531
36.91585308
36.80902889
41.53460714
41.55060756
40.32512942
40.95405789
40.28055001
39.79762687
40.02178025
38.89157536
38.23326383
38.59000071
37.84221877
37.50554291
37.63438973
37.11612937
36.96017333
44.90879621
43.50677958
42.16482379
41.89037439
39.95731993
39.14813363
39.48341588
38.37304152
37.96678902
38.07893549
37.36868087
37.17594394
49.3598726
46.64471282
45.4997321
43.7008158
41.04800096
40.24586539
40.40587984
38.93252977
38.51726632
38.55014251
37.64208808
37.43702478
51.98570098
48.88559012
48.17373189
45.09931052
41.9807041
41.31586305
41.21260451
39.4359867
39.07170998
38.98001303
37.90235184
37.7092885
53.20437193
50.15575783
49.80231872
46.02782254
42.65731342
42.18471987
41.81313395
39.83999867
39.5552346
39.32772643
38.12555293
37.96142076
53.71579892
51.27732005
51.1455367
42.79767408
39.9217305
38.17311258
47.64612866
49.11746812
50.33722719
43.73598737
44.59046098
44.12191237
51.75958715
53.90212138
54.36289471
50.71452424
51.73511759
49.61224816
53.67071047
55.38064928
55.59779848
54.48374783
54.82017118
52.69257208
54.43583326
55.44784735
55.49471904
55.16676888
55.23271541
54.04207589
55.52652082
55.57143565
54.60737392
53.37161405
54.19375921
54.97296615
41.54508431
55.33159261
52.58901941
42.36479606
42.52727378
43.17968893
40.21357997
41.46551109
41.17484818
51.89419876
52.69504483
53.33620204
45.91009591
46.76186663
46.07784419
45.15315726
43.83888597
45.50180961
42.22297092
43.24913085
43.96973767
41.80673394
42.52296564
41.63436239
56.47645391
54.60082935
54.21280177
59.21541562
59.07507337
58.50240824
47.89787647
46.96654495
49.77820259
44.47603083
45.92255795
46.47950713
44.66201596
45.31727543
43.95525636
54.78360546
52.67067884
52.87877794
51.41189691
51.26834423
54.27495637
49.62444174
49.10678318
52.19131447
46.19152678
47.81858109
48.16391862
46.97821958
47.42432182
45.82839526
56.35128309
54.33565383
54.67308804
50.36328186
51.2944433
55.69278216
39.59790971
39.59607251
40.24521053
57.29050401
53.8482109
55.05374336
56.48603249
56.62122573
57.18341701
58.24187072
59.39646667
59.34523038
53.948315
54.58511411
53.37023243
47.29757929
48.67526537
47.08138372
52.32274706
50.81790017
50.13408278
54.33450204
53.83487089
56.1570948
54.55363934
51.75338115
51.57662466
53.84220683
53.4918869
55.81371987
53.09813557
53.73055218
51.12165065
56.8856895
56.79080151
56.71211953
57.3005655
57.28018853
56.27556206
57.62255388
55.18419198
54.76242437
56.63887695
56.45606162
57.60556319
49.78944355
52.03501281
52.86643745
55.17038554
48.83989361
50.03433731
53.02022233
53.13109039
55.0389393
55.19435985
55.34661663
53.52561947
56.66826427
57.32379628
57.33341146
56.27290162
56.23205071
56.77928252
55.97155849
57.32222109
57.31413238
57.34448359
57.3499939
56.13216007
52.93616428
54.90382763
55.13938343
57.02442189
56.18894323
56.34734468
54.91314945
55.16664725
56.66386454
55.38507668
39.6406292
49.86517609
54.46033518
51.27930728
50.99539252
50.31777019
53.2802459
47.30167315
48.9561305
49.15291338
48.46520484
48.72681521
47.08056076
47.93863765
40.46035475
41.5231894
43.98095715
44.39528847
47.78183182
47.09766046
45.35129434
43.93949221
49.36755155
48.67639802
50.01016223
44.80847184
45.35754286
46.80330913
46.19361591
42.82605576
43.32494939
40.66726978
40.79430116
43.30171488
55.37200021
55.41745758
54.38321332
57.21464222
56.56854077
56.27728734
56.572756
56.56905784
57.22217847
57.02805296
56.28658493
56.27914325
56.28394368
56.28752435
57.05892795
54.12913338
55.2800214
55.33206442
43.18248844
44.0342877
44.30819939
44.82422756
41.96950147
43.03618982
42.77626637
43.18235421
43.14017882
41.99777243
51.06415872
54.15005604
50.63761153
52.98458286
48.5000045
46.59602839
57.50048601
55.81228012
60.23706825
46.99408405
48.61427463
50.42438377
57.45446718
57.26508257
57.80261863
58.19262115
57.99611677
57.81345635
52.16626884
52.17691665
54.54282721
54.43812984
51.91763118
52.10461834
53.60437881
54.00251446
56.23597244
41.46369909
42.38485418
42.08876002
45.33261448
44.84641602
41.61732458
41.87278456
41.81793221
42.2624287
55.8510864
51.62007257
52.02203302
51.31920622
46.09734033
47.14624415
42.10836198
43.21496953
50.55863604
58.23436602
58.5397419
56.81155313
55.61303981
57.40669253
57.87507723
52.91282604
52.71730145
55.19871635
55.57885983
53.19225251
53.083195
57.15779993
57.08901175
56.82829213
54.72219154
55.99315077
56.14012698
55.61553004
55.82643993
54.52666155
55.36414828
56.49546051
56.58868351
56.2718211
56.39101869
55.22920153
56.35258025
57.25149052
57.21114707
55.87308766
55.52283792
57.72353077
52.59837369
53.92729046
54.26481489
53.15088462
53.55124994
52.24025363
53.81534584
55.14701508
55.4031413
54.59212089
54.87062279
53.54380389
57.70786877
56.42081882
56.12377908
47.19438122
48.36427036
55.93238868
55.39737033
53.68120519
53.81180942
43.65968841
51.75692441
52.18400502
52.89077665
52.37729978
44.21912089
56.74476924
55.40416626
55.62449047
41.87757722
40.6037511
40.60491021
42.70188672
41.92426024
40.93422405
48.1542785
40.22050337
43.81220709
42.47123972
43.71466117
44.63538225
45.22371621
44.66902992
43.4990102
47.82493693
45.1050996
46.16076243
46.6653834
48.23098532
43.75657718
44.84077075
44.46429092
45.21047351
45.05725908
43.87290354
55.57964698
55.03949921
56.7527396
58.49743367
58.87466801
58.70590996
52.29869558
52.47315437
54.68983676
44.66688237
48.12763646
47.83935748
49.03988377
48.56429334
44.7410629
54.22069841
51.15934489
51.15147431
59.24802305
59.39286933
58.04896026
52.15608837
51.47549917
53.33971412
49.15094374
50.14339039
50.7139323
48.95435825
49.56692913
48.63917648
51.03774321
52.25935889
52.72065294
51.25390358
51.77342444
50.59398776
55.82310334
53.31955774
52.74896627
52.12519271
51.93810823
54.67019134
55.6525438
53.20229851
53.02387844
45.15349773
49.61632708
49.388778
49.95766005
49.79113848
45.20365165
55.10930989
53.21132739
53.30143288
57.30488071
57.3128242
56.70282233
56.19853814
57.04227114
57.04176216
57.02254742
57.03430573
56.17638774
57.33157459
57.32765459
55.97773127
55.79430754
56.80368432
56.85735474
56.67035741
56.74195537
55.70868816
56.06016582
56.97735113
57.00321778
56.90445359
56.94451788
56.01074219
56.09818951
57.34009496
57.33709413
55.82906083
56.02153829
56.96914111
47.62462283
53.80018176
53.42103022
54.58192199
54.20609433
50.11562653
52.8133728
56.13490096
62.92385785
39.85818816
40.23294935
39.98502732
41.2908326
40.61297646
39.84668771
51.9558893
43.78770381
40.60949375
40.83624067
40.37659034
40.47513879
42.4601428
44.01746398
41.05823692
41.38440971
55.53218657
58.38410102
60.4393444
55.46588241
57.49316189
54.70176616
61.44963854
63.03500509
59.39089626
50.88538668
52.70624338
54.48802194
50.2272975
51.58965693
50.18124814
56.87795419
53.69965156
52.44752309
57.59819521
56.75516642
56.23991465
58.46522042
58.28718732
58.31751976
47.73336817
47.6879895
45.26731052
54.56911208
52.18311708
52.21932385
51.29927047
51.60270789
54.34969042
43.16444426
42.80576661
41.35340478
50.43267985
46.8023491
47.28599138
45.66240536
46.23433182
50.04448177
47.04567212
43.03002504
43.40228681
42.62395717
42.73116662
46.47408724
48.94174088
44.61081446
45.09008096
43.81998943
44.18798173
48.46627314
42.84078146
41.80969806
41.86329051
39.97446474
40.30467925
45.62493115
40.64735303
39.70658689
39.7191183
39.87207942
39.73302173
40.22616702
57.15003241
58.79452369
59.05063542
56.31065509
56.8923528
55.15741499
61.45169609
59.256407
58.67947704
60.10268471
59.73610279
61.89477878
55.05494573
52.52046231
52.32091698
53.08167979
53.18935437
55.63304387
43.65385569
43.13210597
42.84902775
43.94230971
43.55124261
43.54441933
45.1970709
42.59164734
42.60268455
42.66832531
42.6156044
44.73519934
40.85248054
40.69433285
41.47245757
40.96419873
41.32061493
41.0481494
41.90773645
41.09068302
41.25275946
40.00540886
40.4570148
41.11746476
39.43713449
39.92406681
39.55974522
49.31796973
49.46555092
47.82733484
57.36112155
56.58508088
56.5759003
56.61803535
56.59550534
57.29331135
45.6230264
46.79669706
47.26981692
46.21928576
46.71447996
45.46439996
53.45213192
48.18589865
48.26046442
49.26853477
52.53384275
60.94839955
46.06472314
47.3120072
46.9180671
47.70813387
47.66156629
46.11240455
42.49024416
42.2640037
41.74608922
43.62155841
42.80494858
43.01721489
51.5069104
52.09619953
51.58625515
56.12058838
53.87189895
53.05225491
55.47752399
54.62598219
57.00512115
42.42766314
40.1946232
40.48788125
39.78073259
39.91332213
41.84744943
40.84374505
39.68083221
39.80793743
52.21408421
55.21767272
54.91158116
55.74273714
55.4905479
52.80939809
59.65336468
56.97348047
56.20899102
58.16241714
57.54146119
60.05938993
53.74799849
55.15994376
55.75397764
40.95874026
40.11779906
41.39889388
41.12667367
42.29052679
41.96951804
40.15764035
48.13558937
45.2541707
45.10879414
47.02327738
47.71113331
48.33807937
48.90206649
47.84405823
47.17547621
41.82248176
42.27337079
45.64835725
40.52952068
40.42940817
40.3834533
40.74192841
40.55813302
40.35318522
43.24097246
43.64437947
43.51087749
44.01919366
43.94263948
43.38965073
45.55803379
44.50497811
45.09049577
51.66569393
48.8254454
49.1366961
47.82763128
48.268184
51.34329546
41.40017256
44.17816803
43.6948711
53.4038166
53.5318123
55.31278014
45.70893248
50.48150878
50.18413958
51.18587522
50.85997577
46.19433921
45.07899574
45.9554827
45.60638852
46.60816566
46.36352662
45.39138712
49.45152973
47.30639327
48.00525448
37.01740159
37.01655033
37.00501934
37.01203517
37.00253307
36.99959189
36.98550194
36.96372108
36.98619758
36.94386508
36.92643742
36.97459672
36.91154504
36.89954166
36.96569773
36.89078807
36.88241393
36.96015011
36.87649506
36.87233187
36.95704366
37.04165003
37.04262985
37.03114542
37.03553228
37.0291544
37.02060942
36.99474093
36.98084212
36.97934644
36.92356339
36.90410791
36.91678931
36.85624283
36.84170711
36.86751296
36.75306709
36.73582665
36.80600269
36.72082627
36.70928824
36.78912615
36.70117213
36.69700754
36.77921986
37.1243056
37.12633047
37.09778876
37.11350656
37.1019422
37.07641611
37.04778488
37.02343633
37.00626604
36.93712196
36.90495065
36.89896423
36.80938807
36.77838488
36.7875072
36.67503505
36.61967704
36.67359259
36.58621251
36.5619526
36.63269333
36.54465704
36.53456647
36.60995822
37.31891585
37.3226304
37.25664372
37.30345638
37.28102469
37.22274457
37.19429738
37.15663117
37.11193398
37.02447348
36.97691468
36.95078598
36.83349001
36.78796899
36.78013559
36.66549401
36.55084903
36.57940754
36.48729944
36.44007958
36.49722104
36.40660943
36.38555654
36.45275077
37.75547358
37.7609815
37.61375862
37.72111677
37.66351822
37.55625969
37.51286346
37.44692304
37.35568247
37.22672683
37.15149109
37.09475268
36.93305826
36.86564947
36.83890752
36.71272001
36.54807376
36.5432694
36.4358075
36.35178873
36.39104353
36.29206273
36.25207099
36.31198584
38.79845736
38.8070977
38.44337243
38.60060073
38.47505042
38.27255035
38.13281356
38.0000596
37.82905305
37.60472319
37.47894631
37.38139383
37.1315566
37.02752183
36.97838455
36.81641398
36.58346053
36.56037177
36.43544134
36.30438334
36.32246043
36.20630485
36.13706671
36.18868772
40.65473597
40.67370848
40.40835084
39.23829138
38.94595088
38.66617282
38.20335709
37.99144795
37.84598244
37.44081891
37.28402743
37.21047398
36.9764759
36.65657806
36.61555518
36.46493619
36.29598302
36.29512217
36.15075103
36.04425292
36.08523728
43.63802867
43.31484541
42.80619034
40.928199
40.34111474
39.96082454
39.02072579
38.67975056
38.49888586
37.84858985
37.62340163
37.53020023
37.18117112
36.76450455
36.70715526
36.51867271
36.30979273
36.30047327
36.12076229
35.9729048
36.00464837
48.40409739
47.46157292
46.98666419
42.8327256
41.92251443
41.53151444
39.95268831
39.46512536
39.27708667
38.31669551
38.01435511
37.91519028
37.40614789
36.89351003
36.82775654
36.59026197
36.33681486
36.32175648
36.11057036
35.92077632
35.94464038
51.49386644
50.37797844
50.08917631
44.46033394
43.32138542
43.00139527
40.82757437
40.21203543
40.05311491
38.77514278
38.40075475
38.30680908
37.62489272
37.02664418
36.96083976
36.66997279
36.3724635
36.35346337
36.11486168
35.88561371
35.90289273
52.98531032
51.92687294
51.77719481
45.61724059
44.35759277
44.13300797
41.53445905
40.82549878
40.70691505
39.16867963
38.73765688
38.65690485
37.81626969
37.15094497
37.09075885
36.74781237
36.41131651
36.39090963
36.12526988
35.86321797
35.87582495
53.62370645
52.63983747
52.59000152
46.33695643
45.03754505
44.88358971
42.03547083
41.26359929
41.18361507
39.45448551
38.98662882
38.9378004
37.20648962
36.42865115
35.85720153
40.66711859
46.49963551
45.98421877
46.73508962
49.79018526
49.45830523
50.56577903
51.64034584
51.46498777
52.55378425
57.33762714
57.10895504
57.18587484
55.89861316
55.63951467
56.74132735
57.05421755
57.39820473
57.41887691
56.92656997
56.94429484
56.15086237
57.34857067
56.31772736
56.09573575
57.45309734
57.47011957
57.38487819
57.27696354
57.28100247
56.85901422
56.01506618
56.88779186
56.89888313
57.24379422
52.51136045
52.44935864
53.43427351
45.46890265
45.0165805
44.53753438
57.18550827
57.25158497
57.24290176
57.20199005
57.20862918
57.25211115
56.95667183
57.26488482
57.2685084
57.24471892
57.24570348
57.11240297
41.9639044
42.23517659
42.32093887
42.30843743
42.30979698
42.04393333
49.34331179
47.79332608
46.80755882
57.19321372
57.22943063
56.72274895
56.50273024
57.11318868
57.14969088
57.19966451
57.07610234
57.85330721
57.83263694
57.38629637
57.2889047
53.95757591
54.0392039
55.6079105
42.62475547
46.45852321
45.98119153
49.27779797
48.85387535
45.34422703
53.78711104
53.50258825
53.98494998
55.12169585
54.342335
54.01943809
56.88224788
56.87308862
56.01693304
56.06718153
56.8990835
56.88763311
46.92713994
50.10712233
49.67754044
42.36638417
41.92037288
42.08181726
57.31287717
57.18886457
57.19455018
54.6436618
55.60472337
55.64277602
41.58738462
42.12611924
41.9848259
44.03159009
43.61978285
43.76488837
57.21964343
56.73662981
56.85680069
46.44778811
47.06131629
46.46990097
46.32772358
45.55973247
45.71446809
37.05277951
37.03907969
37.07518964
37.05699891
37.05572456
37.05312639
37.05627582
37.07438487
37.03045462
37.04195092
37.03944852
37.05636378
37.04080387
37.04861024
37.01780084
37.03141831
37.04545011
37.01265487
37.02076235
37.00906453
36.99363625
36.98505913
37.00258186
36.94324546
36.96588962
36.97231323
36.96162303
36.96272308
36.9421177
36.89642455
36.89655771
36.92181097
36.85524507
36.87675338
36.87058089
36.90235724
36.88769436
36.87043437
36.80141945
36.81954173
36.83782727
36.7902171
36.80498952
36.78335467
36.85730384
36.82989236
36.81815577
37.15246455
37.11908013
37.20474471
37.16096182
37.15847492
37.1547332
37.15974142
37.20364533
37.09681319
37.12526574
37.12097422
37.17343432
37.1338677
37.14611193
37.09734271
37.11796522
37.1544251
37.06396413
37.08745472
37.06891081
37.07520343
37.04625858
37.07347655
36.98403429
37.01661934
37.04226193
36.98242501
36.9968954
36.96723102
36.93039907
36.91538328
36.95054999
36.8450242
36.88040119
36.89175759
36.8708878
36.87376641
36.841256
36.77708343
36.77558385
36.81078402
36.71354879
36.74291985
36.73945191
36.7653253
36.75172183
36.72752243
37.38136007
37.30831323
37.49828722
37.39967146
37.39348501
37.38755587
37.39778326
37.49827983
37.25523079
37.32190637
37.31653536
37.43806201
37.35680983
37.37250571
37.295324
37.33057646
37.40435012
37.20273652
37.25575154
37.22725609
37.27716971
37.21165801
37.25531997
37.11476017
37.16474436
37.22398414
37.07492314
37.11526022
37.07073503
37.04729635
37.00946584
37.06284001
36.90191142
36.95540888
36.98770402
36.90791359
36.929015
36.88075301
36.81721286
36.80031145
36.85009767
36.7065446
36.75271371
36.76485616
36.7404321
36.74456475
36.70256864
37.89266605
37.73440944
38.1637712
37.93836022
37.92525147
37.89148168
37.92601212
38.16509978
37.60963602
37.76160761
37.75667636
37.98929011
37.84753339
37.87647081
37.7084181
37.78306193
37.92965191
37.51758129
37.61922982
37.5710384
37.68125473
37.55418628
37.63284355
37.38913566
37.47263324
37.58636237
37.29430717
37.37566656
37.30174753
37.2938583
37.21775275
37.30338366
37.05165028
37.13387153
37.19903121
37.02851748
37.07709875
37.00368451
36.93521771
36.89761114
36.97265095
36.75936621
36.82675863
36.85655214
36.78105303
36.80167107
36.74091292
39.18888839
38.75138762
40.00777207
39.28203474
39.2702762
39.07268043
39.19179527
39.87815208
38.41039884
38.80672132
38.75731876
39.19515019
38.89522015
39.03402018
38.51758502
38.68934235
39.02394965
38.15826173
38.37685941
38.2604897
38.41607927
38.19448683
38.35470122
37.88389376
38.03778241
38.22747424
37.71769188
37.86658908
37.73496878
37.71040581
37.5897228
37.7336589
37.32100161
37.45263784
37.55492713
37.27388047
37.3575547
37.24150356
37.14366877
37.08188359
37.19705101
36.87555112
36.9751811
37.02535122
36.89128003
36.93047718
36.84028961
41.53464225
41.15323779
41.11871749
41.05739976
41.11053019
41.59885625
40.38651078
40.72981722
40.71551743
39.59742067
39.25690865
39.60790518
38.65796085
38.94292419
39.22386264
38.44389072
38.67846339
38.4325795
38.31771544
38.1520184
38.3944033
37.72241761
37.92810707
38.06924029
37.67010329
37.79421156
37.61092386
37.44496429
37.36086178
37.53351064
37.06103197
37.20392314
37.2725246
37.08021088
37.14023169
37.00865756
44.38957474
43.83440618
44.22208078
42.98690059
43.39634544
43.87916475
41.13492007
40.73667294
41.40387852
39.68891189
40.1735099
40.50047491
39.52806522
39.83995332
39.40549179
39.06872135
38.88272934
39.2621925
38.23878996
38.54293202
38.70117174
38.21957051
38.3738342
38.09805116
37.81528481
37.7203907
37.96561585
37.30347648
37.50047933
37.57935536
37.34392189
37.42076544
37.23817723
48.33613253
47.90347659
48.88662385
46.26354983
47.0243138
47.4215513
46.1896209
46.62077739
45.9255646
42.6610493
42.3002302
43.27337265
40.79823425
41.48846271
41.79035268
40.8374593
41.16207172
40.51407012
39.85049883
39.67385901
40.19999142
38.80009477
39.20962919
39.36363785
38.87451334
39.03625856
38.655655
38.21034303
38.11472778
38.43706922
37.57509355
37.82848844
37.90886037
37.6621911
37.74503084
37.5058434
50.87826375
50.63112807
51.74795828
48.67287014
49.59693031
49.84290247
49.07220356
49.35400694
48.42351086
43.88944703
43.61501104
44.78626637
41.7778746
42.62717506
42.86252652
42.09106938
42.36219634
41.54077687
40.54096248
40.39591651
41.04028441
39.32456573
39.82730695
39.95235794
39.53116561
39.67343804
39.19676426
38.57506261
38.48933243
38.8805811
37.8398078
38.144024
38.21737177
37.98949413
38.0693677
37.77688117
52.16280985
52.03148745
53.08663601
44.73996759
44.55672061
45.8217456
42.53031216
43.47474284
43.62632135
43.088958
43.27815933
42.34500372
41.07417819
40.96298443
41.69766515
39.74981455
40.31803859
40.4192853
40.09645456
40.19972852
39.651791
38.87519875
38.8053485
39.24814701
38.07203543
38.41505803
38.47634031
38.28692079
38.35699709
38.02179836
43.7734357
43.90521681
42.91198795
40.51353466
40.58563509
39.98502118
38.53077933
38.5749935
38.21552685
49.53641232
48.75593372
48.31536456
49.46369138
49.06774435
49.94695927
54.07206764
53.00888879
52.82552852
53.33687406
53.17616398
54.21495023
51.07244697
50.12976205
49.76910377
50.74275803
50.4239261
51.41368795
55.42040445
54.67596311
54.63363794
54.61110115
53.62287699
53.48474327
53.87258953
53.75285563
54.71118386
41.05988147
40.66256026
40.60823057
40.21697321
41.34066537
40.90869822
40.92821054
40.71402088
40.81106222
41.26995865
44.68577088
45.29288075
45.75261207
44.35177249
44.83095434
44.34028413
46.16375435
45.4658884
44.92048033
47.60478383
48.46897554
48.78869773
47.78571902
48.14479174
47.30376839
50.20119276
49.11440266
48.73284826
49.48146164
50.4262892
50.60736653
50.04551161
50.25802732
49.28452815
52.38828463
51.29545127
51.08613979
50.67310544
53.25358379
53.10086761
53.59874046
53.44644841
51.01825514
56.95010789
57.04333021
57.31250575
54.29501579
56.18472
55.96912213
56.5420579
56.36965092
54.70081458
47.76113759
47.21257054
46.70048175
47.99843663
47.52731681
48.23087451
56.46438496
55.41485739
55.12322004
53.32720888
52.2375445
52.00810556
52.63819022
52.42650739
53.52651559
57.33978555
57.35266924
56.95205505
56.83170701
57.16349526
57.25317002
57.07112955
57.13427989
56.75309597
56.21908802
56.97804827
57.00277644
56.67262586
56.48490984
57.49597931
56.58196513
56.92173786
57.00916992
56.68410484
56.82076423
56.51265767