/*--------------------------------*- C++ -*----------------------------------*\
| =========                 |                                                 |
| \\      /  F ield         | OpenFOAM: The Open Source CFD Toolbox           |
|  \\    /   O peration     | Version:  v2012                                 |
|   \\  /    A nd           | Website:  www.openfoam.com                      |
|    \\/     M anipulation  |                                                 |
\*---------------------------------------------------------------------------*/
FoamFile
{
    version     2.0;
    format      ascii;
    class       surfaceScalarField;
    location    "2.37";
    object      meshPhi;
}
// * * * * * * * * * * * * * * * * * * * * * * * * * * * * * * * * * * * * * //

dimensions      [0 3 -1 0 0 0 0];
oriented        oriented;


internalField   nonuniform List<scalar> 
6464
(
0
0
0
0
0
0
0
0
0
0
0
0
0
0
0
0
0
0
0
0
0
0
0
0
0
0
0
0
0
0
0
0
2.971842521e-07
0
7.251341949e-09
-2.526334168e-07
0
0
0
0
0
0
0
0
0
0
0
0
0
0
0
0
0
0
0
0
0
0
0
0
0
0
0
0
0
0
0
0
0
0
0
0
0
-1.583661591e-06
9.325824575e-05
3.360429008e-06
-9.223333082e-05
-8.507311238e-06
7.402299153e-05
1.570366913e-05
-6.383141309e-05
-3.962535078e-06
2.862500964e-05
1.085730045e-05
-1.789545903e-05
0
5.360173263e-07
2.480379343e-07
0
0
0
0
0
0
0
0
0
0
0
0
0
0
0
0
0
0
0
0
0
0
0
0
0
0
-1.61972698e-05
0.0003787169229
2.338717684e-05
-0.0003775087231
-5.045075212e-05
0.0003397814601
6.595747415e-05
-0.0003164493699
-4.956757927e-05
0.0002215451942
6.743089022e-05
-0.0001847358296
-1.91645342e-05
7.763306289e-05
3.198166405e-05
-4.836619283e-05
0
1.2214392e-06
6.8804576e-07
0
0
0
0
0
0
0
0
0
0
0
0
0
0
0
0
0
0
0
0
0
0
-5.078257497e-05
0.0007475403631
6.007149841e-05
-0.0007465163721
-0.0001187544333
0.0007026664961
0.0001363944683
-0.0006735147666
-0.0001298390535
0.000541102389
0.0001518457702
-0.0004833885142
-9.114484461e-05
0.0003012164845
0.0001129291982
-0.0002370977318
-1.972972811e-05
7.132616077e-05
3.080777178e-05
-3.552605259e-05
0
0
0
0
0
0
0
0
0
0
0
0
0
0
0
0
0
0
0
0
0
-7.923771428e-05
0.00100395447
8.099928624e-05
-0.001003708512
-0.0001838328019
0.000991973248
0.0001932410325
-0.0009748704956
-0.0002420991417
0.0008885305165
0.0002567188209
-0.0008223732748
-0.0001672420223
0.0005717259317
0.0001865108178
-0.0004822479731
-7.032796496e-05
0.0002206003338
8.398372316e-05
-0.0001473139018
1.013836395e-05
-2.026997076e-06
3.549494655e-06
-1.55830384e-07
0
0
0
0
0
0
0
0
0
0
0
0
0
0
0
0
0
0.0005507738192
-3.699291834e-05
3.715985639e-05
-0.0005509407573
0.0005690736364
-0.0002295700394
-0.001149117045
0.0005851913058
0.0001095427712
0.0001148793709
0.001083902498
-0.0002749936692
0.0002849639596
-0.001041043317
-0.0002375284564
0.0008162241251
0.0002498941357
-0.00071472821
-0.0001205199305
0.0003818226028
0.0001321329893
-0.0002808361488
5.642427263e-05
-1.578659688e-05
2.042941239e-05
-1.794200533e-05
0
0
0
0
0
0
0
0
0
0
0
0
0
0
0
0
0
0.0006157547494
-9.907223686e-05
9.81286788e-05
-0.0006148111913
0.001221779945
-0.0003008379439
0.0003036700808
-0.001196470286
-0.0002763493462
0.0009842181523
0.0002809459835
-0.0008778290546
-0.0001571856998
0.0005112339585
0.0001616765373
-0.0003907583742
0.0001062116303
-3.117858777e-05
3.588883294e-05
-4.658748416e-05
0
0
0
0
0
0
0
0
0
0
0
0
0
0
0
0
0
0.0006630891729
-9.620319568e-05
9.585687492e-05
-0.0006627428521
0.001328969738
-0.0003053941322
0.0003054427611
-0.001312564162
-0.000294457156
0.001110769173
0.0002970214906
-0.001001336238
-0.000175491852
0.0006088169575
0.0001784870105
-0.0004748319674
0.000141378062
-4.177643474e-05
4.36987896e-05
-6.875485477e-05
0
0
0
0
0
0
0
0
0
0
0
0
0
0
0
0
0
0.0007111194323
-9.47680179e-05
9.450032716e-05
-0.0007108517416
0.001424328487
-0.0003037979488
0.000302912642
-0.001405217053
-0.0002947424766
0.001184902065
0.0002932347853
-0.001066958279
-0.0001762612938
0.0006460552397
0.000175060317
-0.0005033752504
0.0001490633208
-4.235304598e-05
4.174780128e-05
-7.210207968e-05
0
0
0
0
0
0
0
0
0
0
0
0
0
0
0
0
0
0.0007604127634
-9.359997705e-05
9.331659866e-05
-0.000760129385
0.001518314855
-0.000297684045
0.0002951700754
-0.001483403888
-0.0002802821508
0.00121046347
0.0002756309999
-0.001082958213
-0.0001607592649
0.0006300783313
0.0001564553046
-0.000481372661
0.0001258474388
-3.317917302e-05
3.120825559e-05
-5.40543987e-05
0
0
0
0
0
0
0
0
0
0
0
0
0
0
0
0
0
0.0008078983527
-9.222961088e-05
9.212358603e-05
-0.0008077923279
0.001590029681
-0.0002866088682
0.0002826525988
-0.001529848225
-0.0002555939079
0.001195700748
0.0002470126901
-0.001048683495
-0.0001362974777
0.0005662509912
0.0001263418319
-0.0004162708095
8.664756596e-05
-2.096988726e-05
1.792720325e-05
-2.822458603e-05
0
0
0
0
0
0
0
0
0
0
9.00278273e-05
-0.0006556994744
-9.038960625e-05
0.0003293975026
0.0003266637507
-9.578952201e-05
0.0006183973519
9.314691944e-05
8.739745011e-05
-0.0007056445421
-8.776196596e-05
0.0003537445023
0.0003522645557
8.890648237e-05
0.0003329478051
0.0003312627127
8.655274577e-05
-0.0007535007398
-8.608422347e-05
0.0003771541531
0.0003758780644
8.713241723e-05
0.0003560260629
0.0003553584023
8.450274356e-05
-0.0008012882778
-8.505573668e-05
0.000801841271
0.0007607920119
8.617349732e-05
0.0008081362978
8.426479848e-05
-2.930433855e-05
2.91393158e-05
-0.0006124143146
-9.47203426e-05
0.0006113451352
-9.951695178e-05
0.0005643032679
0.0001042873202
1.593418153e-05
-0.0001600992684
-1.59970838e-05
0.0001601621707
-0.0003116842955
-3.571078016e-05
0.0003125289389
3.486613677e-05
-0.0006554337106
-9.646895942e-05
0.0002835907561
-0.00130140436
-0.000285358927
0.001303543668
-0.0002880063443
0.001229863599
0.0002848568979
1.769001175e-05
-0.0001708645688
-1.757166843e-05
0.0001707462255
-1.580089859e-05
-0.0001655025991
0.0001654688968
1.583460086e-05
-0.000705451409
-9.496115098e-05
0.0002812792349
-0.001402166318
-0.0002819132251
0.001402869462
0.001329832727
0.0002828614873
1.535587925e-05
-0.000183350291
-1.544229298e-05
0.0001834367047
-1.646572234e-05
-0.0001772696706
0.0001768640277
1.687136533e-05
-0.0007535285709
-9.357214591e-05
0.0002775687483
-0.001494427974
-0.000279046502
0.001498692059
0.001425242305
0.0002806002903
2.915905038e-05
-0.000389569788
-2.931646637e-05
0.000389727204
-2.994622216e-05
-0.000379613757
2.912386926e-05
0.0001906102973
0.0001898258126
0.0002089158794
7.938134382e-06
-0.0002082931443
-8.560869418e-06
2.819729309e-05
-0.0004140103566
-2.809493396e-05
0.0004139079975
-2.87983748e-05
-0.0004033736283
0.0004033813483
2.879065483e-05
-0.0001651818726
-1.574823404e-05
0.000165129208
-0.0001600309038
0.0001601741703
1.579091498e-05
-9.14965871e-05
-0.0006394603018
9.081066105e-05
0.0003214631787
0.0003186830491
-3.452063728e-05
0.0001600078153
3.394646488e-05
-0.0003194645467
1.62976481e-05
-0.0001652094257
-1.627009502e-05
-0.0001765674032
-1.60250266e-05
0.0001761267075
-0.0001718105242
0.0001715771284
1.792340754e-05
-4.508962127e-05
-0.0003434189944
0.0003434923539
4.501626175e-05
-1.786638605e-05
1.792236737e-05
-0.0001718665056
1.657723719e-05
-0.0001768292834
-1.631535697e-05
1.629914037e-05
-0.0001655040913
-0.0001709818505
-1.774910436e-05
-0.0003413643588
-4.509520975e-05
0.0003413699472
-0.0003775578884
-2.987436598e-05
0.0001889387968
0.0001885472354
-0.0001836527381
0.0001836119939
1.539662349e-05
-8.618037723e-05
-0.0007349155004
8.625547242e-05
0.0003679154732
0.0003669249321
-3.204904019e-05
0.0001835095404
3.175419331e-05
-0.0003668674316
3.16136321e-05
-0.0003775026912
-3.166882932e-05
1.683442406e-05
-0.0001775268575
0.0001826841874
-0.0003656532095
-1.590120841e-05
-1.652910061e-05
-0.0007289940827
-8.682457384e-05
0.0003655294348
0.0003641088444
-0.0004020753999
-2.884321159e-05
0.0004021202367
-0.0003914106824
0.0003914154431
2.915428958e-05
-6.23645136e-06
-0.0002078138773
0.0002071092962
-7.414402864e-06
0.0002100938309
0.0004150713237
-0.0002078074713
2.896358677e-05
-0.0001552355997
-3.194745658e-06
0.0001294667586
-0.0001599373648
-1.62551921e-05
0.0001621422667
1.405029019e-05
6.22677792e-05
-0.0001939620839
-2.73242834e-05
0.0001590185881
-0.0008010287464
-9.248914229e-05
0.0002728102477
-0.00157556301
-0.000274666191
0.001596508206
0.001523822214
0.0002772472562
6.098662945e-05
-0.0002050361281
-2.40341298e-05
0.0001680836284
2.122568636e-05
-0.0004080000832
-2.14961549e-05
0.000204307513
0.0002039630387
-1.106286778e-05
-0.0002015533886
0.000201520438
1.10958184e-05
-3.937536708e-05
3.678891079e-05
-0.0003090978393
0.0001591456592
-0.0003185785347
-3.518703025e-05
-0.0006327722572
-9.028576734e-05
0.0003167398645
0.0003148215729
-0.0002015191404
-1.122634137e-05
0.000201682614
-1.336181218e-05
-0.0001989664272
0.0001995611566
1.276708276e-05
-8.572403272e-05
-0.0007830613722
0.0007833574921
8.542791284e-05
-3.118952861e-05
3.103881822e-05
-0.000391259972
3.070237079e-05
-0.0004019651626
-3.081260816e-05
3.135673968e-05
-0.0003793568646
-0.0003895703609
-3.118895572e-05
-0.0007779544022
-8.583539319e-05
0.0007780657627
-0.0002872109864
-1.426185623e-05
0.0002872156047
1.425723792e-05
-0.000309395938
-3.613940823e-05
0.0003098245661
-0.0006065995721
-8.130559277e-05
0.0003047903869
0.0002911897386
4.134954804e-05
5.057549144e-05
-2.206202489e-05
2.249036212e-05
-0.0002876393236
-0.0001970488846
0.0002260124714
-3.32694386e-05
-0.0003158987768
3.264857065e-05
0.0001583344202
0.0001581852246
-1.608062487e-05
-2.142953317e-05
-0.0001595387265
-1.491715378e-05
1.382496262e-05
-0.0001588451736
-0.0001589047084
-1.241151619e-05
-0.0003132270259
-3.230139072e-05
0.0001565529497
0.0001557060283
-1.549751732e-05
-0.0001683079685
0.0001683301783
1.547530748e-05
-0.0001682070446
-1.556034677e-05
0.0001682698741
-1.513265544e-05
-0.0001809735626
0.0001808933592
1.521285884e-05
-0.0001811449774
-1.539951574e-05
0.0001814118377
-0.0001947061326
1.336751314e-05
-1.195155908e-05
0.0001932901786
-0.0001973760344
0.0002510636765
8.580137074e-06
-2.95606168e-05
-0.0003848019016
0.0003847993933
2.956312506e-05
-1.553346925e-05
1.276421479e-05
-0.00019460678
1.371138534e-05
-0.0001951008243
-1.33166937e-05
-1.39208032e-05
2.714344272e-05
-0.0001875693275
0.000174346688
-0.0001928557407
-1.663981242e-05
-0.0003835478023
-2.960837294e-05
0.0001919317796
0.0001916637789
2.047910962e-05
-0.0004138492045
-2.061664769e-05
0.0004139867426
-0.0004094049796
2.093092465e-05
0.0002051075205
0.0002045922208
0.0002646694428
5.197156246e-06
-0.0002088799696
-1.621422353e-05
-0.0001629535826
0.0001626059938
1.656181226e-05
-0.0001621514662
-1.625678318e-05
0.0001621940258
-1.444023063e-05
-0.0001747691847
0.0001746963225
1.451309281e-05
-0.0001745087445
-1.450216069e-05
0.0001745706746
1.537781326e-05
-0.0001744050225
-1.548153532e-05
3.783566209e-05
-0.0003476011257
-3.791908141e-05
0.0003476845451
-3.806289539e-05
-0.0003436704671
0.0003437101114
3.802325112e-05
3.768765967e-05
-0.0003538570853
-3.772243941e-05
0.000353891865
-0.0003494357338
0.0003494782304
3.779316549e-05
1.537274718e-05
-0.0001747641186
1.60594981e-05
-0.0001681378627
-1.612868001e-05
3.819806998e-05
-0.0003356320321
-3.823456171e-05
0.0003356685238
-3.83822207e-05
-0.0003314539372
0.0003314909805
3.834517748e-05
-0.0003414794086
-3.80988169e-05
0.0003415153302
-0.0003370628256
0.0003370869689
3.81739267e-05
1.608598303e-05
-0.0001683344534
-1.547963079e-05
-0.0001865968037
0.0001866624311
1.541400341e-05
-0.0001846524005
-1.059118117e-05
0.0001813227784
-0.0001861754965
-1.562343094e-05
0.0001863192966
0.000195300559
1.416274788e-05
-0.0001957519216
0.000199083816
1.284578393e-05
-0.0001986816706
-1.324792934e-05
2.893868877e-05
-0.0003961056494
-2.914573335e-05
0.000396312694
-1.396870843e-05
0.0001996907122
0.0001940824679
1.458560424e-05
-2.180110101e-05
0.0002864705438
-0.0004148656967
0.0004147230471
-0.0001865394607
-1.253455765e-05
0.0001990740183
1.30710568e-05
-0.0002028093996
-1.297263605e-05
0.0002027109788
-8.594114583e-06
-0.0002014217131
0.0002009202034
9.095624294e-06
0.0001747821217
1.665950694e-05
3.118751631e-05
-0.0002226291449
-0.0002024854942
-1.04703094e-05
0.000204361689
-6.071113927e-06
-0.0002014465171
0.0001993844441
8.133186923e-06
-0.0002931877565
-8.742171035e-06
0.0002957789686
6.691550637e-06
-5.405917007e-07
-0.000160518663
-1.75541389e-05
0.0001618176098
-0.0003122590331
-3.904177215e-05
0.0003051621683
4.613863695e-05
-2.552928947e-05
-0.0002972962738
1.609297187e-05
1.354483488e-05
-1.665494931e-05
-0.0001692439154
0.0001687251894
1.717367528e-05
-1.330108373e-05
1.32591158e-05
-0.0001653437692
0.0001653857371
1.315974641e-05
-0.0001669679151
-1.328761691e-05
0.0001670957856
1.581766995e-05
-0.0001668563222
-1.583886865e-05
0.0001668775209
-1.604562839e-05
-0.0001820451942
0.0001818834013
1.620742129e-05
-1.695306143e-05
0.0001810481649
1.74741155e-05
-0.000181569219
1.254296582e-05
0.000185810891
-0.00018482536
-1.352849681e-05
-1.311176885e-05
1.29744172e-05
-0.0001758427116
0.0001759800633
2.762795852e-05
-0.0001785165366
-1.583516725e-05
0.0001667237453
1.740989431e-05
-0.0001784384737
-1.754855946e-05
0.0001785771388
-1.621146126e-05
-0.0001634076918
0.0001637703319
1.584882116e-05
-1.5381109e-05
0.0002014719042
-2.154984757e-05
-0.0001645409477
-0.0001647840184
-1.19646886e-05
0.0001634476232
1.640312409e-05
-0.0001620443022
-1.651028811e-05
3.852577489e-05
-0.0003228221053
-3.867872871e-05
0.0003229750591
-3.869314176e-05
-0.0003196207282
0.0003195534631
3.876040689e-05
-0.0003295829186
-3.844578045e-05
0.0003296464783
-0.0003254797466
0.0003255072186
3.849830297e-05
1.651252675e-05
-0.0001630629852
-1.50678131e-05
-0.0001755468419
0.0001752734504
1.534120459e-05
-1.226755766e-05
1.273809469e-05
-0.0001745756766
0.0001741051395
-0.0001751657159
-1.262012275e-05
0.0001746740698
1.68303885e-05
-0.0001736823316
-1.756811604e-05
0.0001744200591
0.0001822004257
1.347123987e-05
-0.0001831286997
0.0001820057065
1.735265957e-05
-0.0001832308396
-1.612752642e-05
1.590201165e-05
-0.0001843267836
-1.576758455e-05
0.0001841923565
3.155896097e-05
0.0001854169272
-0.0003713059442
-3.184544041e-05
-0.0003709150624
3.690862647e-05
-3.712819823e-05
0.0003711346342
-3.726496334e-05
-0.0003668780589
0.0003668866621
3.725636018e-05
1.52973081e-05
-0.0001806937329
-1.574855264e-05
3.767577379e-05
-0.0003598902178
-3.763498355e-05
0.0003598494276
-0.0003555087899
0.0003555736284
3.762282115e-05
-0.000365758212
-3.725023327e-05
0.0003657434819
-0.0003615001386
0.0003618681498
3.730776256e-05
1.516100527e-05
-0.0001808372597
-0.0003972627557
0.0003973000896
2.890135488e-05
1.249544359e-05
-0.0001986160868
2.295913828e-05
0.0002012686347
-0.0004023048828
-2.344203062e-05
-6.109250126e-05
-0.0002114170614
0.0002672330659
5.276496713e-06
-1.355581048e-05
-0.0001614786366
0.0001598577293
1.517671772e-05
-2.450588865e-05
1.96363132e-06
-0.0001639972033
-0.0001602986185
-1.223093442e-05
0.0001589737425
-5.075087742e-06
-0.0001858440382
9.926076407e-06
0.0001809930496
-0.0001904872883
1.648641125e-05
0.0001689257893
1.184706982e-05
-0.0002046628038
-1.206306595e-05
0.0002048787999
-0.0002038830447
0.0002047860221
1.216807942e-05
-2.1015416e-05
-0.0002625927575
0.0002836081735
1.095477507e-05
-4.10906919e-05
-0.0001286540711
1.095052954e-05
-3.358723593e-06
-0.0001320520691
0.0001983845288
-7.752710141e-06
9.825789651e-06
-0.0002004576083
0.0002039790937
1.017293702e-05
-0.0002018390892
-1.231294157e-05
1.183626601e-05
-0.0002000668137
-1.224434259e-05
0.0002004748903
-6.081797794e-05
0.0002587259577
1.879814731e-05
6.50820557e-06
0.0001730781759
-0.0001994333157
-2.845170309e-05
0.0002278850188
1.3398938e-05
-0.0001592042216
-1.362373495e-05
0.0001594290186
-1.365793021e-05
-0.0001580686188
0.0001583193134
1.340723555e-05
1.30404424e-05
-0.0001600074112
-1.453382505e-05
0.0001615007938
-0.0001588025583
0.0001590243425
1.317715375e-05
-0.0001570933068
-1.48221944e-05
0.000158257571
-1.468832032e-05
-0.0001558403773
0.0001562776637
1.425103389e-05
-1.588845371e-05
1.38268067e-05
-0.0001594169896
-1.311251865e-05
1.26709638e-05
-0.0001688994197
0.0001693409745
-0.0002041032768
-2.560048328e-05
0.0002297037601
-0.0001690723045
-1.605312235e-05
0.0001684704775
-0.0001669207147
0.0001669876741
1.575071053e-05
1.326001981e-05
-0.0001671138167
0.0001670135433
-0.0001685141292
-1.310844509e-05
0.0001685100556
0.0001782850434
-1.203168796e-05
1.331129304e-05
-0.0001795646485
0.0001785176346
-0.0001798167791
-1.565391692e-05
-0.0001812239576
-1.593991905e-05
0.0001811182483
1.547389665e-05
-1.289474882e-05
0.0001759384867
-1.058416783e-05
1.140248467e-05
0.0001774667265
1.029381166e-05
-9.930075972e-06
0.0001854471553
2.773864922e-05
0.0001687834124
-0.0001801494395
-7.823764723e-06
0.0001773890364
-0.0001792980392
0.0001799026292
1.680530429e-05
6.108439445e-05
-0.0001820913894
0.0001486349535
-0.000181148656
-1.103247151e-05
-1.530124389e-05
-0.0001949957689
0.0001956755289
1.462148387e-05
-0.0001929325186
-1.30042932e-05
0.000190635568
1.470129671e-05
-0.0001942725063
-1.336130904e-05
1.365176102e-05
-0.0001945720136
-1.379059816e-05
0.0001947108507
-1.460594422e-05
-0.000192208625
0.0001926494585
1.416511076e-05
9.438418331e-06
-0.0001915683883
-8.357318351e-06
1.409357452e-05
-0.0001907077135
-1.421492554e-05
0.0001908290645
-1.429647385e-05
-0.000189833294
0.0001896722166
1.445755118e-05
-0.0001919888221
-1.475976753e-05
0.0001921426454
-0.0001906227478
0.0001904747795
1.424154286e-05
1.217802725e-05
-0.0001885836471
0.0002066685911
1.189718465e-05
-0.0002068078512
-1.175792454e-05
1.041626543e-05
-0.0002060657265
-1.069458513e-05
0.0002063440462
-0.0002052969826
0.0002057944868
1.134956562e-05
0.0001612344673
-1.401152026e-05
1.466457431e-05
-0.0001618875213
0.0001633942497
-0.0001635196386
-1.52557201e-05
-0.0001627098523
-1.652862611e-05
0.0001630270171
2.847500284e-05
-1.480717273e-05
0.0001497264196
-1.145959669e-05
1.33242349e-05
0.0001593698291
0.0002299469071
1.582572248e-05
-0.0001593794987
-1.468316022e-05
0.0001582369364
-0.0001600443821
0.0001604948486
1.258997588e-05
-0.0001614335853
-2.73964766e-06
0.0001527136363
-0.0001614438796
0.0001611997528
1.606984924e-05
-1.603251996e-05
-0.0001618285028
0.0001617021063
1.615891647e-05
-1.614464084e-05
1.577013442e-05
-0.0001610693732
-0.0001616915667
-1.375353884e-05
-1.240715213e-05
1.204801708e-05
-0.000174590479
0.000174949614
-0.0001748657231
-1.247901765e-05
0.0001750771831
-0.0001755556445
-1.481011421e-05
0.0001752979456
-0.000174170006
0.0001752554934
1.574490108e-05
-8.151067513e-06
-0.0002243401757
0.0002324912432
-0.0001741094643
-1.210560389e-05
0.0001738079161
1.545202145e-05
-0.000188360135
-1.628724625e-05
0.0001891953598
-1.33597073e-05
-0.000186345906
0.0001852339431
1.447167015e-05
-0.0001886998829
-1.39682397e-05
0.0001883716487
-0.0001890550579
0.0001905288323
1.397824699e-05
-1.557016295e-05
-0.00024596207
0.0002615322329
1.723239154e-05
-1.554090161e-05
0.0001803142165
0.0001802949653
1.219927209e-05
-0.0001878307548
-1.41020167e-05
0.0001885730642
-0.0001839762627
0.000183144727
1.806392722e-05
-0.0002573923292
0.0002761904765
-1.317998431e-05
-0.0001968326478
0.0001963526794
1.365995277e-05
-4.213530258e-06
1.17531962e-05
-0.0001914539461
0.0001839142801
-0.0002030038341
-6.21412052e-05
-0.0001955463533
1.853016921e-05
0.0001728026538
-0.0001969499219
-1.349869583e-05
0.0001972686334
-2.377197593e-05
0.0001693480658
-0.0006131096199
-9.837693154e-05
-0.001199723627
-0.0002901542557
0.001211988036
-0.0002681456295
0.001110541012
0.0002738838979
-2.075657999e-06
1.014062703e-05
-0.0001942855841
0.0001862206151
2.099289451e-05
-0.0001988844517
0.0001758158992
0.001618096119
0.0002704893261
-0.0002597271688
0.0002807200633
3.065797816e-05
-0.0004033292357
-0.0008257155337
-6.300740682e-05
0.0004122043483
-0.0008254319043
-8.420784823e-05
0.0008254164204
-0.0001475103694
-6.18609773e-06
0.0001510418814
2.654585748e-06
1.347432583e-05
0.0001555247547
-1.5347843e-05
-0.0001536512375
0.0001690612176
-0.0001635997898
1.119807918e-05
-0.0001635336635
-2.877850187e-05
0.0001797776078
-0.0001558653567
-2.097632529e-05
0.000153107445
2.373423704e-05
-1.521044591e-05
1.709062056e-05
-0.0001493905441
-0.0001020394701
-0.0005872851019
0.000592400464
9.692410796e-05
-9.06411415e-05
8.553550106e-05
-0.0006014939317
-0.0003100074157
-3.876388945e-05
-0.000157703549
-1.637657614e-05
0.0001574960278
1.658409736e-05
-1.364695345e-05
1.341398721e-05
-0.000158569592
1.439904473e-05
-0.0001602142343
-1.419222162e-05
8.870541809e-06
-0.0002071961161
-9.06505534e-06
0.0002073906296
-0.0002064804255
0.0002069960246
9.900666402e-06
9.471123031e-06
-0.0002089909997
0.0002019029853
2.294709528e-05
-0.0004034443309
2.290877927e-05
-0.0004078387067
-2.30701558e-05
2.845493569e-05
-0.0004074971913
-2.85320879e-05
0.0004075743435
1.448802799e-05
-0.0001601333653
-0.0001600312206
-1.549291894e-05
-0.0001610749826
-1.592020137e-05
0.0001609626641
-2.070506388e-06
0.0002041862556
0.0002086783248
-7.114892554e-06
-0.0002089778351
5.748590503e-05
-1.68983548e-05
0.0001680907745
0.0002655092295
-0.0002073374333
0.0002073529977
2.374387617e-05
-0.0001551139379
0.000128175316
-1.383540027e-05
-0.0001883345061
0.000174845623
-1.211686746e-05
1.208704865e-05
-0.0002050063093
0.0001995331982
-8.734318639e-06
-0.0002029157471
-4.950184452e-06
0.0001804492529
-1.023381473e-05
1.043547773e-05
-0.0002016233761
1.234205676e-05
-0.0002029236258
-1.222783058e-05
1.090835556e-05
-0.0002028339644
-1.083300463e-05
0.0002027586134
-0.0003178889853
-3.883530268e-05
0.0003180311463
-3.965020167e-05
-0.0003135403021
0.0003131098067
4.008069711e-05
-3.531467915e-05
3.433748608e-05
-0.0003149215837
-0.0002000915013
0.0002005008407
1.142692656e-05
1.00689435e-05
-0.0002013425236
-0.0002021082432
-1.061106574e-05
-4.277093503e-05
-0.0003018492202
0.0003071202305
3.749992466e-05
-4.269702472e-05
4.019575749e-05
-0.0003097577658
-0.0001582126344
-1.722318231e-05
-0.0001575835003
4.6305581e-06
0.000131523409
-1.333732226e-05
1.405191643e-05
-0.0001582980945
-1.366927265e-05
-0.0001592067761
-3.000535529e-05
-0.0001995134659
0.0002295188212
-0.0001576644445
-1.355079221e-05
0.0001412098814
0.0001956977952
-1.212728156e-05
-0.0001955220727
9.361568089e-06
-7.831217042e-06
0.0001941674442
0.0001898734637
1.2778283e-05
-1.678447183e-05
0.0002678481484
-0.0001937233797
5.006704037e-06
0.0001719322038
9.805543375e-06
-0.000194948786
-0.0001950917665
1.336168183e-05
-1.340503692e-05
0.0001951351216
-0.0001945435755
0.0001946183857
1.357695083e-05
1.460115408e-05
-0.0001948956263
-0.0001925592104
6.148234709e-05
0.000158220306
-1.610691754e-05
1.493542102e-05
-0.0001913877138
-1.468691337e-05
-0.0001889893316
-0.0002057695586
0.000202953637
8.013077808e-06
-9.886004029e-06
1.05612133e-05
-0.0002064447679
-0.000206678925
-1.085885727e-05
1.458017789e-05
-0.0001821792081
0.0001784578875
-6.109303909e-06
-0.0001827957445
0.0001780461911
-1.234353327e-05
-0.0001869957806
0.0001843994909
-9.810324233e-06
-0.0001869326999
-5.578086364e-06
0.000179386396
1.439295677e-05
-0.0001877496715
0.0001672474108
-0.0002433889746
0.0002577819313
-0.0001848758618
0.0001849244695
1.585340391e-05
1.781655783e-05
-0.0001844401609
1.457733876e-05
-0.0001870070973
-1.540099621e-05
4.383581516e-06
0.0001767689545
-2.529190061e-05
6.161121975e-05
-0.0002031150068
0.0001667956877
-0.0001965127998
0.0001813615262
6.443788222e-06
-4.408036504e-06
-0.0001984665286
1.062473273e-05
1.120833582e-05
-0.0002005792402
-9.310288072e-06
0.0001638831999
-0.0001233853955
-8.146583406e-06
-0.0002144825615
0.0002076907664
-0.0002170010545
0.000202261247
-1.082223859e-05
-0.0002019093178
5.977351633e-05
-2.371932348e-05
0.0001662070541
5.617106699e-06
1.971959042e-05
0.000174047747
-0.0001975804395
0.0001794782227
-0.0002002694912
-2.166559163e-05
-0.0001556699922
0.000157879131
1.94564528e-05
-2.790183146e-05
2.995011126e-05
-0.0001579136365
-0.0001621713093
-2.586824286e-05
-4.391122146e-06
1.285777912e-05
-0.0001690236036
0.0001605569466
2.264451412e-05
-0.0001681028204
0.0001410671841
-1.413039833e-05
1.374629314e-05
-0.000170787989
0.0001711720942
-0.0001697212638
0.0001684486446
-0.0001658517718
1.340868087e-05
0.0001657022067
-1.496575593e-05
1.506571799e-05
-0.0001659517339
-1.490483881e-05
-0.0001654046863
-1.501745139e-05
1.498553051e-05
-0.0001669359942
0.0001666203978
-0.0001665721312
0.0001667414618
-0.0001758856862
1.347647343e-05
0.00017538363
-1.580632113e-05
1.665195489e-05
-0.00017673132
-1.537896893e-05
-0.0001762700638
-1.742171071e-05
1.760057018e-05
-0.0001786953961
0.000176403574
-0.0001771733298
0.0001740448802
-0.0001650388524
3.324545256e-06
0.0001401644596
-1.470058708e-05
1.441732219e-05
-0.0001647555875
-1.518717376e-05
-0.000164054361
-1.469155627e-05
-0.0001649973009
0.0001646375293
-0.0001649117634
0.000155997386
-0.0001752607202
1.262406326e-05
0.0001753747516
-1.424131116e-05
1.449876434e-05
-0.0001755181734
-1.391407949e-05
-0.0001749029082
-1.490423382e-05
-0.000175640451
0.000175287179
-0.0001756926484
0.0001752911195
-1.437520224e-05
1.577925992e-05
-0.0001723232903
0.0001709192326
-0.000171099156
0.0001704702469
-2.669451193e-05
5.999074423e-05
-0.0001751825035
0.0001418862712
-0.0001735278357
0.0001626125837
2.347524584e-05
0.000177895061
-1.988701207e-05
0.000287120078
-0.0002080851554
0.0001712997885
-0.0002099235512
0.0002889844753
1.975613768e-05
1.943830115e-05
0.0001206632905
-0.0001989428668
0.0002186990045
-0.0001600222729
-0.0002069263291
0.0002088899604
-1.957898678e-05
-2.094469973e-05
-0.0001664026426
-0.0001648555716
-1.872061853e-05
-1.978021615e-05
-0.0001932051272
0.0002129853433
-0.0001555323645
0.0001148074486
-0.0001854355264
0.0001815262025
-0.0002478591569
0.0002643455681
-0.0002017178179
0.0001757522174
-6.172266378e-06
-0.0002042798701
-0.0002071538042
3.921064584e-06
-2.464336112e-05
-0.000201054777
0.0001648801602
0.0002784455482
-0.000196307668
0.0001781725125
-1.513902918e-05
-2.316432685e-05
-0.0001611299596
0.0001574938493
-0.000158580962
0.0001336727043
0.0001587590122
-1.385298783e-05
-0.0001594398495
1.551142658e-05
-1.441685885e-05
-2.250124549e-05
-1.479499376e-06
-0.0001562062354
0.0001441349425
-0.0001590432319
0.0001343994057
-0.0001684267427
1.391301828e-05
0.0001671846882
-1.416757384e-05
1.385062815e-05
-0.000168109797
-1.457452597e-05
-0.0001684924675
-1.378201638e-05
-0.0001676767463
0.0001676349569
-0.0001675663452
0.0001559474919
-0.0001675966325
1.334958083e-05
0.0001675070715
-1.493028458e-05
1.4877352e-05
-0.0001675436999
-0.0001670585708
-1.46724907e-05
-0.0001684161644
0.0001682949239
-0.0001680900626
0.0001685360596
-0.0001784484683
0.000177255525
1.450423634e-05
-1.418073797e-05
-0.000179484629
1.521689872e-05
-1.327856475e-05
-0.0001804668217
-1.232269963e-05
-0.0001775624229
0.0001769903737
0.00017633531
0.0002398944095
-6.158872313e-05
-0.0001882357623
-1.33775753e-05
0.0002532719848
6.252954777e-06
0.0001658166252
-0.0001853353381
0.0001514852642
1.172307552e-05
-0.0001827625343
0.000163215694
-0.0002346728668
0.0002463959424
-0.0001844133745
1.082490211e-05
-1.634080274e-05
1.399806303e-05
-0.0001820706348
-0.000180831622
-1.296704086e-05
-0.0001814601799
0.0001829701037
-0.0001819390815
6.18165141e-05
-2.655108156e-05
0.0001604100964
-0.0001986479219
0.000252633219
-0.0001961537196
-1.781960986e-05
0.0002704528289
-4.581142688e-06
1.202634753e-05
0.0001824282588
0.0001717666916
0.000189360464
-0.0001925592138
1.223960403e-05
0.000182127564
0.0001763240904
-1.241137165e-05
-0.0001911801785
1.202316183e-05
0.0001947341281
-0.0001922100788
-0.0001628567054
1.509007682e-05
0.0001624312029
-1.534125573e-05
1.54013804e-05
-0.00016291683
-0.0001622911438
-1.493763331e-05
-1.537447656e-05
-0.0001633323358
0.0001634493944
-0.0001634224905
0.0001632837511
-1.341977583e-05
0.0001618963542
0.0001623356619
0.0001575409963
-1.348221968e-05
-0.0001587419369
1.290150039e-05
-1.080059718e-05
0.0001554400931
1.583061563e-05
0.0001553078212
1.693138917e-06
0.0001363004642
-0.0001583122328
0.0001492047746
-0.0001592044766
2.19860962e-05
-0.0001628274068
0.0001381016629
2.971050692e-05
0.0001473198615
-0.00020189531
0.0002316058169
-0.0001638393646
-0.000174108547
1.249916229e-05
0.0001736574018
-1.325876708e-05
1.354700638e-05
-0.0001743967863
-1.324332927e-05
-0.0001746059168
-1.374383344e-05
-0.0001750359691
0.0001746458387
-0.0001748426657
0.0001746659833
-0.0001764012532
8.992137794e-06
0.0001592580479
-1.257153081e-05
1.236812299e-05
-0.0001761978454
-0.0001769209623
-1.285686942e-05
-0.0001744959242
0.0001742241741
-0.0001747129205
0.000171110708
-2.76084981e-05
6.165024132e-05
-0.0001905663714
0.0001565246282
-0.000185133524
0.0001721052038
-0.0001889179917
0.0001677697424
-8.819232448e-06
-0.0001899090835
-0.0001931310611
0.0001794133949
-1.394715665e-05
-0.0001810071399
1.252715999e-05
-1.182947574e-05
0.0001787157107
1.540849782e-05
0.0001774328787
1.055297656e-05
0.0001759949435
-0.0001789993532
0.000177722854
-0.0001807472378
0.0001911385027
-1.673929779e-05
-0.0001885012216
1.002741603e-05
-6.227788794e-05
1.085080869e-05
2.805507169e-05
0.0001704981531
-0.0001880150553
0.0001537922391
-0.0001866904259
-0.0001934737064
2.644243784e-05
0.0001787844648
-1.26940863e-05
1.523937515e-05
-0.0001960189953
-9.227272401e-06
-0.00019492076
-1.469033636e-05
-0.000200573369
1.225987126e-05
0.0001994956313
-0.0001989465925
0.000163796864
-2.637961458e-05
6.182385173e-05
-0.0001972860519
0.0001618418148
-0.0001917747387
0.0001774214717
-7.499846034e-06
-0.0001972737796
0.0002546961656
-0.0002003721599
0.0002732263348
-0.000200635869
0.0001812474745
-5.087645854e-05
-1.117183389e-06
7.159604785e-07
-1.483897628e-08
-5.006651051e-05
-6.135449037e-07
-3.726986832e-05
7.826728992e-06
-3.44660972e-06
4.304806123e-05
0
2.824125413e-08
3.664937311e-09
-3.043822814e-05
-3.521042817e-06
-9.306862579e-06
5.937827055e-06
-1.375726693e-06
1.581480104e-05
0
0
0
-4.289114172e-06
-4.881762609e-07
0
2.155593965e-08
0
4.896002899e-08
0
0
0
0
0
0
0
0
0
0
0
0
0
0
0
0
0
0
0
0
0
-0.0002930147387
4.50720767e-06
-1.402709523e-06
-1.13433e-06
-0.0002917671922