/*--------------------------------*- C++ -*----------------------------------*\
| =========                 |                                                 |
| \\      /  F ield         | OpenFOAM: The Open Source CFD Toolbox           |
|  \\    /   O peration     | Version:  v2012                                 |
|   \\  /    A nd           | Website:  www.openfoam.com                      |
|    \\/     M anipulation  |                                                 |
\*---------------------------------------------------------------------------*/
FoamFile
{
    version     2.0;
    format      ascii;
    class       volScalarField;
    location    "0.43";
    object      k;
}
// * * * * * * * * * * * * * * * * * * * * * * * * * * * * * * * * * * * * * //

dimensions      [0 2 -2 0 0 0 0];


internalField   nonuniform List<scalar> 
3259
(
36.99074082
36.99164083
36.98571577
36.97703723
36.96868948
36.96222896
36.95850034
36.95615269
36.91008441
36.90915522
36.90870634
36.90842731
36.96996161
36.97720055
36.95287988
36.91229698
36.87124735
36.83941057
36.79733647
36.78398182
36.73236768
36.72953903
36.72809117
36.72732647
36.99359581
37.0040196
36.96577764
36.88856916
36.7952542
36.7231382
36.65059769
36.62067864
36.5604538
36.55367616
36.55046254
36.5491308
37.09674871
37.10669884
37.04522716
36.9318505
36.791556
36.6532245
36.53152597
36.47337475
36.39528704
36.38275616
36.37652776
36.37404699
37.3636686
37.36489162
37.24584884
37.06115983
36.85545327
36.65558545
36.45578349
36.34804438
36.24041401
36.21683108
36.20567245
36.20127043
38.01798481
37.96888261
37.65857699
37.32440952
37.0032602
36.71358422
36.43332491
36.24997377
36.09764963
36.0555615
36.0370091
36.02964832
39.68090315
39.47233505
38.44125985
37.77046752
37.2508916
36.83082015
36.45056179
36.18469022
35.96598838
35.8993064
35.86999274
35.85843245
42.07214343
39.7393933
38.42116251
37.60021634
37.00507162
36.49890029
36.14800539
35.84764746
35.74873807
35.70510865
35.68809005
46.30887031
41.36469361
39.21753905
38.02471954
37.22211824
36.56961262
36.1329837
35.74269345
35.60580078
35.54459314
35.52094635
49.36872767
42.86010074
40.02602315
38.47439527
37.45938779
36.65450157
36.13463682
35.65195651
35.47330583
35.39206175
35.36068653
50.9020266
43.98554244
40.73716321
38.89530394
37.69086994
36.74173079
36.14417481
35.57424074
35.35378384
35.25128314
35.21137345
51.54370938
44.73841074
41.29450486
39.25072025
37.89472615
36.82128087
36.1547097
35.50971637
35.24762867
35.12438618
35.07563254
46.76307657
42.41969712
50.18035194
47.19758186
51.82881373
50.47182408
52.47930601
51.93968063
52.51492646
39.60315969
41.99717887
39.41875774
49.69160668
43.77306986
45.82711449
41.73722524
40.23060533
54.63291541
55.34155372
49.08345497
43.61087508
42.24083384
54.05474145
53.54267074
50.77853515
44.97821257
44.00740213
55.14347041
54.54001148
38.99614566
55.74852598
55.55321414
55.19231979
49.99449667
44.84892235
49.16610707
53.90724875
53.59709598
54.49257929
48.86656719
55.19398609
54.70291335
54.13161464
55.2389849
48.63376856
54.42737829
54.12287864
51.3743065
55.16232484
55.34599769
54.67866171
55.11687134
51.1910398
55.52209758
55.20391484
39.35526245
39.8334961
55.7741897
39.0217251
58.46879263
45.87740465
43.92485961
51.50813083
45.84515979
45.24145268
48.60379646
50.07571638
48.80221098
43.42211507
48.31135865
44.26800373
48.43779417
45.0060525
52.28974956
55.47197955
55.57076427
55.35823242
55.45885219
52.22377982
41.10513614
43.34737509
41.18796043
41.17389363
62.24470608
46.99476127
58.1019318
45.1857141
55.20638854
46.23124531
55.57185103
55.62444057
53.74833928
53.71599227
40.84399382
42.61955263
54.92991659
41.19883316
43.5651993
43.84928633
41.19129454
54.85882951
52.46267434
50.77172376
44.93262571
53.1405395
52.76864817
54.12457063
54.20770718
54.9477909
52.5012034
51.89739178
53.11745659
52.67224112
54.90994043
55.17439603
50.58138984
49.5954673
51.6683363
50.87573541
55.24937532
54.5470995
44.33871472
54.49670254
44.1017397
47.799869
55.36105287
44.3280791
40.96354089
49.63615453
52.92762354
56.60318632
39.39708286
39.55741947
50.04082645
39.73760735
41.52168646
42.63537928
45.20987605
42.41842273
42.62386309
55.11119
57.17710733
56.33184558
55.61764116
53.8673333
45.85183524
46.42488028
48.15762798
47.39443784
53.47802485
54.47210458
58.03313287
57.38462351
51.45113887
47.62599294
46.28704347
49.23194847
48.04959255
51.79126852
53.79382293
49.32168229
48.47020504
54.28178564
46.69735575
47.04063338
54.28240497
55.2667691
53.98881525
53.87337035
54.7342506
53.54609191
53.23832113
53.82634995
53.62559519
54.75010802
55.40119372
48.28954399
51.4672001
45.51358445
52.84813511
51.63289842
51.91396615
44.24941953
44.3602358
40.45159645
39.50822132
48.77428964
54.55439705
46.88641546
54.91611461
41.37533828
39.88533727
46.67352485
43.27261817
46.10985516
62.90586742
52.93557835
49.75036623
56.41714891
53.64830005
49.13891564
46.4680394
50.81349249
54.80906932
54.2412896
55.2962197
55.65683755
56.06539073
55.13605502
46.51688517
45.95264302
53.8121876
46.17171947
46.71370778
45.05001177
45.89290203
46.91671617
53.52208518
47.28087939
46.69433413
40.75906259
40.98006316
41.6749687
51.27373675
50.55953911
42.3044317
49.09706273
47.88723914
50.27905271
49.46741101
41.89554805
40.15214622
42.78199464
41.09084006
57.7530164
57.47744064
54.14465357
58.64735059
59.27618112
59.3252957
58.33795179
57.25204259
59.4629942
58.25479461
51.5852233
56.54838615
57.77602478
50.43015427
49.52882032
53.87289148
54.29542169
51.68162286
50.7537938
45.66862132
44.81341606
47.52851645
46.17776612
44.89343698
44.19848038
44.82611429
44.51840176
44.05332278
46.11919397
42.64217523
45.49568369
42.90911866
45.34138016
42.11580712
49.4538278
41.68698774
39.77065955
38.64703421
47.89437715
47.59576585
46.00742429
47.78483123
55.57579981
55.43888438
52.63357067
44.18305906
43.75101984
45.92470717
50.04263552
44.15333535
44.28388146
40.69647331
41.01629868
43.09352453
48.44306938
51.41835546
53.88204345
45.19446406
43.42952537
39.49067958
52.0061253
53.26278523
55.66789211
54.59768071
56.25884737
51.22198011
43.2704246
40.8206644
50.44150721
46.28217151
45.71695874
58.83913651
43.95010263
40.04147585
40.84537969
48.13715378
40.08225503
41.21999195
50.25777157
45.82411414
44.39724747
46.0555477
47.16093427
39.73740043
39.83586213
42.16827298
42.41961741
44.69794705
59.9157241
56.05490378
53.91725959
62.82255989
60.66821701
40.75848246
41.46478435
41.01203444
44.88394312
44.23885976
41.71947258
52.1558838
51.52278677
42.01467789
43.88244238
42.01848123
42.11251576
42.36647583
39.28408047
39.49963593
44.78282531
44.84931514
42.39043276
42.6374618
44.32016916
45.00197242
45.33804009
54.33249892
47.21556571
48.48858817
49.77882172
47.79105964
47.40000638
41.74521454
40.88407397
39.41348406
51.77642559
51.27397968
55.21315154
40.04645988
46.53449356
43.72699475
46.80681839
46.14624657
40.61894251
43.45503242
43.93309131
47.15788268
53.25858209
53.54695839
52.81451996
53.04769923
56.92054923
56.37393492
56.57195092
55.97064069
56.17792207
56.61265873
47.8763699
48.61688689
48.80813096
48.32440044
48.42447709
47.72034039
57.76965517
56.97205622
56.95154836
56.74887804
56.90077738
57.57356955
48.93778609
49.46407837
49.67999383
49.02552294
49.23523168
48.70252552
52.2126142
52.39037386
51.64744285
51.8130598
51.91291361
51.31420599
49.88710906
42.38400597
51.7978557
56.04497788
61.05149192
56.46783124
57.50398217
54.41175476
47.97732322
59.8400828
54.98418027
44.39439766
44.74827051
48.84742881
42.02403397
44.3789941
51.82890946
45.79438705
46.78411457
45.47364436
59.45201348
56.48243513
59.63762213
55.35384399
57.67257256
59.89174038
60.96984495
60.28075722
54.38809916
54.62304895
54.86328732
54.06753976
54.24971553
54.18467237
55.73885326
55.54529352
55.76637963
55.09658045
55.32338808
55.44529792
46.31653675
49.16539047
49.16678175
46.31988695
46.60133694
45.31528424
46.11741655
45.91302534
45.79963594
47.26537791
47.57237534
46.93149551
48.55945066
48.33302166
49.11166121
48.90758225
46.82720964
44.09722617
42.55157839
40.70111122
45.1641421
44.86475692
44.76321939
41.33528371
44.31213733
43.99679881
42.19148109
42.04415393
42.87890649
57.67724941
56.51474045
56.3862261
56.7689224
56.71976611
57.59814539
58.9239131
59.06441161
58.04889258
60.53423562
60.48697552
60.33228633
60.50992894
57.83839232
59.56738963
60.15791356
61.40054701
59.56794623
50.18053767
50.37068449
50.60042833
49.91052566
50.13954356
49.82453565
51.35221348
51.19487438
51.32501423
50.82801602
51.03130183
51.1024032
44.21681078
44.49187516
44.56986403
43.01745902
43.47673829
44.38657164
45.38410868
45.30668641
45.68926698
45.6490275
44.61430904
44.19810158
44.2172059
43.8359227
45.03174434
44.83169688
44.06245206
44.9327819
40.39079187
40.81172234
39.94018726
40.12488098
45.19234464
44.63418949
44.48131099
41.39364577
42.7177095
45.69991428
49.01284874
36.97272463
36.96253505
36.98215502
36.99378122
36.97853786
36.99220008
36.9696832
36.9615051
36.95775199
36.9066442
36.92367463
36.88709373
36.82629829
36.8813167
36.8088105
36.76068135
36.84666384
37.04715719
36.98318784
37.06062751
37.07495211
37.0060009
37.07072003
37.03521143
36.9792352
37.0165297
36.94283371
36.9097424
36.91408949
36.81939326
36.81647753
36.787119
36.69125437
36.73769393
37.25727017
37.08258646
37.27826665
37.29389879
37.11042211
37.27837351
37.21094352
37.06653562
37.17959684
37.06346229
36.96351489
37.01897765
36.87926181
36.8280101
36.83219501
36.69466163
36.68479892
37.76962819
37.3443232
37.81278032
37.81500131
37.36917723
37.74869962
37.59239873
37.28397158
37.52717141
37.31641958
37.11137839
37.2433974
37.02739557
36.90719662
36.95740265
36.758518
36.70461641
39.3409301
37.98394286
39.35391522
39.13799938
37.97705921
38.83827916
38.36432944
37.74001492
38.20178089
37.76870252
37.40822154
37.63899904
37.28659916
37.0808746
37.17920869
36.88584915
36.78360175
40.71321787
40.77024631
39.6819837
40.2240212
39.58352832
39.16486797
39.36707572
38.47259854
37.92032598
38.24117535
37.66537718
37.37042892
37.50278812
37.08015342
36.92790519
43.66400076
42.40635265
41.23253751
40.95519784
39.38540496
38.68470117
39.01543359
38.14763873
37.77908631
37.91487411
37.32988393
37.13805022
47.65957229
45.20334796
44.18543026
42.516546
40.34142628
39.6242297
39.83602974
38.66988772
38.27552443
38.36370004
37.60845447
37.39769078
50.09519983
47.2102743
46.57452024
43.73913247
41.18362947
40.56273034
40.57586372
39.16702941
38.79691097
38.79593543
37.8853185
37.67869112
51.22980122
48.3304906
48.02262316
44.57488508
41.8459983
41.36548405
41.17282593
39.5897963
39.27869102
39.1695279
38.1336013
37.9504481
51.67750541
49.32681059
49.220881
41.97856735
39.68080861
38.18810507
46.08080854
47.24395529
48.32611062
42.66506156
43.39306366
43.00504623
49.85082294
51.64195225
52.10484806
48.66300642
49.58765343
47.84392835
51.68789506
53.22680771
53.46057412
52.23217327
52.5840237
50.74023932
52.41624124
53.39883167
53.44426928
53.08302426
53.15836483
52.04846296
53.47404725
53.51504483
52.56456893
48.51169063
49.71749933
50.38997255
40.74104405
49.79282757
47.9188692
41.48391335
41.63151192
42.21032159
39.59354769
40.7215771
40.43453547
49.20324822
49.80676565
50.32856706
44.25416336
44.83957617
44.50608625
43.86933067
42.7117507
44.19426805
41.22779837
42.13307783
42.76045471
40.88420781
41.50012341
40.71958292
54.77478721
53.54826811
53.31621871
56.22461888
56.18682637
55.4580724
46.32573362
45.49516433
48.04252447
43.18425783
44.49117532
44.9806829
43.37356096
43.94960425
42.72338391
53.97636709
52.42535038
52.57835537
51.52939409
51.42977859
53.49952516
47.86629734
47.40777232
50.28789937
44.69135495
46.17536503
46.47481809
45.42903401
45.82091433
44.36400759
55.07388411
53.78286649
54.00514799
51.00552037
51.628617
54.65353508
39.69701149
39.43223578
39.07350135
55.67970353
53.61216962
54.44492383
55.22548447
55.31832448
55.58954981
55.0069028
56.18146811
56.23231211
50.84039522
51.36014653
50.45000279
45.64872109
46.85902023
45.56091953
49.69905127
48.48114888
47.87495898
51.63220951
51.16713988
53.07789249
53.65591053
51.76638456
51.64433415
53.05892028
52.86312761
54.37912574
50.85964698
51.46918886
49.2768446
55.0632329
54.25284742
54.12783219
55.15589458
55.08377091
54.77549115
54.67712006
52.44392699
52.03290514
54.0271367
53.78703103
55.32514938
48.02623184
49.86388499
50.63824732
54.29802148
50.01999437
50.79782774
52.68175488
52.77630083
54.18163508
53.00295063
53.18308665
51.54632984
55.20144529
55.47002853
55.46624226
54.08887604
54.0117454
55.28677811
54.65464308
55.26964321
55.21972587
55.4608993
55.45144027
54.84013942
50.97457994
52.67773503
52.93694067
55.48185505
55.02683483
55.13361498
54.18855747
54.35213804
55.26387636
54.67113998
40.22323823
46.61995857
49.79618659
47.81663577
49.09360927
48.46809314
51.29920044
45.67290108
47.17308232
47.33755761
46.74527627
46.96763498
45.46541401
49.35064463
41.77861413
43.5711543
46.17655732
46.54436122
49.2062585
45.19575021
43.96846045
42.84050517
47.22035797
46.60663455
47.66963574
43.55700096
43.97785995
45.22637647
48.02933936
45.02861759
45.56332225
41.40298233
41.91781431
45.54734254
53.3182203
53.3665201
52.36868173
55.52157172
54.49062988
54.18378085
54.49838834
54.49223336
55.52974098
55.40208122
54.14811333
54.10933678
54.18582228
54.16145216
55.41237261
52.13247996
53.21510002
53.27239314
42.03598178
42.87403605
43.08374708
43.45888671
41.11283039
41.98369793
41.83422328
42.09724675
42.11162303
41.09536157
48.24196325
50.71607936
48.10049938
49.20116739
46.01537775
44.67958032
52.85313105
51.53182926
54.73016084
45.07360495
46.24015504
47.72419873
55.35256775
55.23609527
55.52058693
55.64983364
55.66443875
55.55359541
52.05198671
52.06350702
53.76626909
53.66451259
51.88631379
52.00867232
53.2692488
53.54446436
55.00309615
41.32494268
44.2102782
43.62768738
47.38878144
46.95314249
43.0426538
43.10372485
42.75720084
41.32978668
54.74822315
51.84503368
52.14471022
51.94399572
47.93213744
48.81783116
44.27475786
45.51581843
51.37139415
54.64238917
54.94527501
53.48004767
52.39279683
53.83819202
54.25618522
52.57494117
52.43982169
54.03965452
54.26957757
52.77071105
52.69578396
54.79618208
54.67295512
55.03164155
52.31235449
53.48472148
53.65447752
53.07477218
53.2974852
52.11533358
52.97920841
54.08517339
54.20311906
53.81103655
53.95514875
52.83481099
54.8091255
55.00075743
54.90536383
53.14056204
52.77717149
54.82908363
50.27061818
51.39501234
51.7222354
50.66788674
51.04378987
49.94123483
51.41786531
52.59113279
52.84977394
52.03538169
52.31632163
51.15659913
55.3385996
53.73880327
53.40639036
48.85988148
49.69462108
54.80411068
54.44314296
53.21963415
53.32851615
45.85420647
52.0276069
52.32799102
52.84404447
52.46540869
46.39346714
55.3111285
54.50648381
54.6517515
43.73232009
40.57557564
40.91154141
40.62873915
40.38328842
41.20702577
49.63259181
39.37186791
40.2503278
39.72111056
42.43656857
43.17979246
43.54995093
43.09712561
42.35195684
45.30135944
43.49319956
44.37463297
44.73350289
45.6254908
42.53328309
43.38629215
43.09849967
43.60727989
43.46545984
42.60525126
54.18057836
53.84277325
54.93878187
55.55242591
56.11551584
56.03051876
52.16608768
52.29218111
53.90242792
45.84210348
49.49371247
49.25949798
50.19160519
49.84262519
46.05458009
53.47299275
51.35556026
51.35264729
55.83466705
56.04612916
54.76200788
49.65975613
49.05445191
50.54628464
47.19017721
47.96645001
48.47188044
46.92697188
47.4622577
46.74468464
48.85335498
49.85181099
50.27460092
48.94901999
49.41541201
48.45851018
52.76232208
50.70013209
50.18430179
52.02543597
51.89642845
53.72482469
54.29160993
52.65326727
52.59801549
46.84264595
50.55166175
50.41583585
50.74156158
50.64398684
46.94090781
54.23176415
52.84164555
52.92227512
55.46893396
55.47002725
55.23211302
53.95353372
54.84321959
54.85549246
54.80089416
54.82565885
53.91934572
55.3509111
55.31692924
54.66527027
53.4514795
54.48636231
54.55970205
54.30905973
54.40326739
53.35357501
53.76542086
54.72942149
54.76971912
54.6248256
54.68198547
53.70327885
54.8080381
55.4130834
55.39143369
54.78573695
54.91333946
55.44611607
49.11297402
53.48093559
53.2056932
54.00871511
53.75271928
50.91040121
48.95402534
51.02766187
56.28390422
40.11901129
39.18398919
39.18786634
39.46784318
39.29108418
39.71200652
47.95499626
40.58177124
39.95607877
39.91768515
40.2456849
40.04512094
40.14718984
46.20683139
42.5175807
43.15023411
51.6643596
53.76536462
55.39606883
51.47232126
53.05374667
51.00116414
56.23397014
57.5737936
54.79066051
47.97916205
49.31469562
50.70622781
47.34453418
48.438291
47.41227285
52.18000795
49.93623057
48.91869668
55.42348567
54.92947186
54.61368055
55.91980011
55.81354227
55.66049902
49.18157357
49.15442876
46.13088455
53.79400523
52.07554508
52.10622173
51.46382423
51.67801334
53.59468447
45.25944708
44.76995641
41.49255141
51.06306588
48.51097585
48.8763907
47.60834144
48.08347469
50.79233661
48.71376837
44.78635775
45.33627231
43.91761091
44.26624994
48.27231459
50.04839886
46.6502975
47.10708361
45.8309874
46.23181097
49.7242777
41.61239272
42.53353383
42.36117364
39.07051371
39.12054854
41.05385641
42.29500084
39.66366736
40.00213191
39.24968009
39.38358587
41.53561913
53.81803919
55.26598004
55.54634662
52.84980201
53.34401503
51.987539
57.17369016
55.27044624
54.73311392
56.12217906
55.77750195
57.60990764
53.95290297
52.30101718
52.16310333
52.6675353
52.76808562
54.30174771
45.29436111
43.05994969
43.00566912
43.51208477
43.29840003
45.04589348
47.168849
43.48315529
43.67648421
43.06465757
43.25755059
46.72195943
40.32997305
40.39563962
43.1379785
41.62001452
40.2632355
40.27867632
40.99524489
40.28690134
40.48075876
39.35121421
39.73029573
40.29050872
38.87208584
39.28207145
38.97565385
47.48369971
47.60541978
46.13448026
55.65107272
54.51165855
54.50135313
54.53760225
54.5194407
55.42455674
43.98804659
44.77508628
45.00161313
44.1643061
44.72857733
43.78545276
49.66901797
45.39874323
45.29167208
46.14119918
48.05552432
53.13344939
44.23796195
45.03736931
44.77346713
45.26397073
45.23653972
44.26662996
41.61195157
41.43478507
40.9559256
42.5799142
41.87783618
41.9551726
48.82374991
49.3140689
48.92427559
52.30990412
50.61926678
49.95180253
51.92269785
51.22475471
53.02146429
44.62024302
41.62717633
42.2003478
40.48300866
41.00363109
44.00589147
39.21845827
39.19060865
39.0961411
52.43322323
54.4511474
54.23591491
54.81750272
54.63878343
52.87156709
55.31193166
53.18054328
52.53467125
54.23803607
53.6903697
55.71090362
50.78034259
51.8564105
52.34875788
42.90705985
40.36409386
43.29722085
42.8058751
44.4820544
43.99467891
40.77018227
49.48985122
47.26440278
47.20323108
45.35092318
45.85040127
46.39537801
46.74851117
45.90792682
45.31246085
43.79954594
44.410667
47.60307024
39.69162524
41.04545234
40.64732048
42.11549491
41.60844315
39.72661114
42.23680213
42.56942477
42.47456043
42.77911949
42.75744182
42.31484899
43.93178933
43.16143558
43.58679832
51.95436397
49.95605227
50.17877643
49.25557257
49.57912463
51.72461426
42.4628269
46.35751176
45.82239249
53.00210322
53.10864001
54.38440455
47.53180074
51.07711265
50.87841485
51.53249887
51.32034594
48.01277909
43.65636925
44.17508977
43.98068585
44.65227281
44.37934508
43.80597427
46.1624456
45.14698036
45.46442606
36.97471213
36.97818935
36.99223479
36.97686367
36.97082267
36.98924476
36.96053589
36.94747889
36.98154789
36.9337296
36.92032425
36.97266182
36.90820811
36.89799557
36.96522603
36.89024975
36.88245128
36.9602281
36.87686655
36.87279824
36.95720417
36.97113536
36.97689158
36.97489689
36.97937718
36.97601664
36.97442891
36.95182303
36.93858886
36.9443952
36.89974172
36.88517051
36.9020417
36.84753623
36.83543436
36.86271702
36.74943757
36.73528036
36.80603048
36.72133393
36.71023174
36.78986531
36.70223499
36.69815036
36.77983911
37.00989364
37.01782845
37.00113926
37.02044922
37.01444607
36.99884188
36.97773105
36.95934476
36.94872382
36.892797
36.86708459
36.86452625
36.78647453
36.76155265
36.77395501
36.66572914
36.61725931
36.67236527
36.58621029
36.56319531
36.63384765
36.54646271
36.53664007
36.61131628
37.14472423
37.15517241
37.10635503
37.15233702
37.13962145
37.09818213
37.08090778
37.05343777
37.02059928
36.95502573
36.91816976
36.89835339
36.80045649
36.76099523
36.75531466
36.65033787
36.54584238
36.57559637
36.48630325
36.44185851
36.49869941
36.40955534
36.38888138
36.45498148
37.48635672
37.49759914
37.37815136
37.46778041
37.43200934
37.35033256
37.32305686
37.2745216
37.20437108
37.11245062
37.0557837
37.01038058
36.88387131
36.82773589
36.80434952
36.69556022
36.54195707
36.53702566
36.43541491
36.35499337
36.39374473
36.29702015
36.25755062
36.31607394
38.34327898
38.34321707
38.04503571
38.17358292
38.08071519
37.91675107
37.81330514
37.7124947
37.57599017
37.41675107
37.32271842
37.24190676
37.05507943
36.97178644
36.92784175
36.79796994
36.57961945
36.5546475
36.43839296
36.31042889
36.32769228
36.21449395
36.14550977
36.19493949
39.95362308
40.00217627
39.75249236
38.71489896
38.48532347
38.2532313
37.91503217
37.75356046
37.62956023
37.32861507
37.2038468
37.1378103
36.95838373
36.65779336
36.613791
36.47184403
36.30798823
36.3055181
36.16386296
36.05667727
36.09486597
42.59443436
42.28990899
41.85896012
40.13506799
39.65538734
39.33060333
38.61406927
38.34976261
38.18604804
37.70092953
37.52065254
37.43506419
37.16566571
36.77276256
36.71094037
36.532168
36.32671806
36.31488485
36.13856533
35.98922935
36.0182527
46.79081186
45.9674552
45.54344228
41.76472808
41.00455312
40.66775577
39.42798434
39.04501926
38.86468182
38.13759061
37.89326771
37.79683058
37.39987853
36.91179018
36.84002971
36.6112573
36.35850462
36.34095586
36.1330135
35.940336
35.96195996
49.63491623
48.6109928
48.34856601
43.1779855
42.22524461
41.94348998
40.22232629
39.73391461
39.56297283
38.58401508
38.277627
38.18322712
37.63534688
37.0570425
36.98437641
36.69872217
36.39884261
36.37758361
36.13928355
35.9063255
35.92272692
51.02885716
50.02550945
49.88910491
44.2024925
43.1604405
42.9544891
40.89642196
40.33209143
40.18899079
38.99140412
38.63270215
38.54898108
37.84834672
37.19237355
37.12654572
36.78327001
36.44143898
36.4194102
36.15136703
35.88319744
35.8959637
51.60193895
50.65381959
50.61074823
44.86881001
43.80291382
43.67002111
41.40953019
40.79903254
40.69248033
39.32880585
38.93129267
38.8619002
37.25243505
36.46026303
35.87613972
39.97758193
45.10683151
44.64977771
45.28903398
48.07446804
47.77357126
48.770625
49.76505743
49.60516701
50.62725279
55.72433846
55.64122677
55.69694787
52.96317176
52.71046152
53.65700205
55.1491993
55.14588475
55.12498729
55.15296855
55.16030962
54.72158865
54.33297562
53.38908085
53.16191436
55.10587829
55.0737616
55.27692673
55.45321572
55.45771243
55.33352723
54.66542833
55.15031336
55.15107145
55.73978019
50.54518299
50.49163884
51.43805178
43.9932039
43.60800551
43.28680349
55.49414859
55.36479028
55.36428589
55.2810217
55.29542017
55.55488269
55.37423068
55.43746381
55.44366894
55.38170588
55.3899355
55.44028886
41.04034053
41.36533057
41.36134756
41.38059735
41.39782094
41.17547408
46.4086865
45.50619546
44.83274752
55.19104551
55.19127815
54.97771255
54.87648357
55.18553008
55.18871131
54.40775283
54.253169
55.0760438
55.30830606
54.6651795
54.53127515
53.43714123
53.50836296
54.58982726
44.66611697
48.26783182
47.89619087
50.26814251
49.99046268
47.36848452
50.99309935
50.72064704
51.1082147
52.11872472
51.49975291
51.20652404
55.20081306
55.18778088
54.70800962
54.77079062
55.23283368
55.21655915
48.59830829
50.86921762
50.58380246
41.46225448
41.07272018
41.21809547
55.58799301
55.25485672
55.26757889
52.59464856
53.54523124
53.57821825
40.80024122
41.29307045
41.15777302
42.84379313
42.54870778
42.59214069
55.61437444
55.38969556
55.47455685
44.76051141
45.29799068
44.87362057
44.50602158
43.93900495
44.04145984
36.96635502
36.96338734
36.98946995
36.98145857
36.97471497
36.98548219
36.98467922
36.99296965
36.97826519
36.98016326
36.98069894
36.98755064
36.97997706
36.98415523
36.96411093
36.97381818
36.98055255
36.96892513
36.9703276
36.96165204
36.94217288
36.93910014
36.95357901
36.90617191
36.92459809
36.92639703
36.93383777
36.92655415
36.91242647
36.86505536
36.87279226
36.89061824
36.84050707
36.85755768
36.84635902
36.89096513
36.87265126
36.85901098
36.79074893
36.81131248
36.82648714
36.78623707
36.79901898
36.77554334
36.85404074
36.82542663
36.81523627
37.01929437
36.99847621
37.06972866
37.03991788
37.03157165
37.04515079
37.04428353
37.07482706
37.00500488
37.02206673
37.02309045
37.06239967
37.03564437
37.04225524
37.01128755
37.02538849
37.05071183
36.99090181
37.00542303
36.99274124
36.99445442
36.97436205
36.99446031
36.92736862
36.95226947
36.97000599
36.93081031
36.93939558
36.91639025
36.88342023
36.87300673
36.90121918
36.81474201
36.8445213
36.85185961
36.84045785
36.84109914
36.8130823
36.75347845
36.7543221
36.78482037
36.70248516
36.72752264
36.72027879
36.75533797
36.73917661
36.7185918
37.18480473
37.12851029
37.28960784
37.21259317
37.20121867
37.21304622
37.21584917
37.29708651
37.11103255
37.16154159
37.16009297
37.2573288
37.19767574
37.20855355
37.15362381
37.17808822
37.23681406
37.08452266
37.12422071
37.10461951
37.14400735
37.09437205
37.12569572
37.02328507
37.0601736
37.10520005
36.99339901
37.02307701
36.99002207
36.97285551
36.94340362
36.98430818
36.85716073
36.9007221
36.9262496
36.8637912
36.87999569
36.84037393
36.78555696
36.77116844
36.81393593
36.68810438
36.72913964
36.73968129
36.72003452
36.72278296
36.68519558
37.59169636
37.45705396
37.8208279
37.63535187
37.61553036
37.60676358
37.62506833
37.83248684
37.37680901
37.50615294
37.50018286
37.69044373
37.57812729
37.60333013
37.47145128
37.52475802
37.64910977
37.31934561
37.40391499
37.36693073
37.45866449
37.35855106
37.41661192
37.23659441
37.29835807
37.38839324
37.15958763
37.22244088
37.16814122
37.17090598
37.10907867
37.17307523
36.98086105
37.04501935
37.09894388
36.95913491
36.99866954
36.94094514
36.88923637
36.85598915
36.91782397
36.73644376
36.79559568
36.82296616
36.75410743
36.77274875
36.71900224
38.64727881
38.27632837
39.40424743
38.73334383
38.70611013
38.5720583
38.65155744
39.27041812
38.0143216
38.35488268
38.30930296
38.67938578
38.41540112
38.53883577
38.12120018
38.25282582
38.53528519
37.82295422
38.00849869
37.91307161
38.04925851
37.86903061
37.99359632
37.63324358
37.74897021
37.90521987
37.49225487
37.61231736
37.51365391
37.51617522
37.41381695
37.52144722
37.21012936
37.30997843
37.39899968
37.1606245
37.23108831
37.14168202
37.07692482
37.02176443
37.11416132
36.84733669
36.93297254
36.97919394
36.85470302
36.89150774
36.81388466
40.77058753
40.4112731
40.39672008
40.34955131
40.38224044
40.8301527
39.73028019
40.06307487
40.03813507
39.02650864
38.74241692
39.02435848
38.27245407
38.49427575
38.7313512
38.0804699
38.27820942
38.08925789
38.03207879
37.88727387
38.07110595
37.56005191
37.71748686
37.84093938
37.49642733
37.60267561
37.46146419
37.35203087
37.27572156
37.4130156
37.02529678
37.14665192
37.21152171
37.03030811
37.08606609
36.97480783
43.23690398
42.75248852
43.06708486
41.95891019
42.33159217
42.7675836
40.32876303
39.98779354
40.54288508
39.1430251
39.52941767
39.81556463
38.98347365
39.25367312
38.91224955
38.69184137
38.51548634
38.80866872
38.01916336
38.25436984
38.40481847
37.97327519
38.11237829
37.8974095
37.70285501
37.60956562
37.80520545
37.26325148
37.42944285
37.50849293
37.28126137
37.35395347
37.19955304
46.755005
46.36634738
47.22792939
44.86688581
45.57433588
45.92850969
44.82562772
45.21052373
44.55960159
41.64626728
41.33043271
42.15067514
40.1042735
40.66213122
40.9348917
40.09946104
40.38533006
39.86873486
39.39736851
39.2179514
39.62860294
38.53735061
38.85769201
39.01184481
38.55353434
38.70766395
38.40743034
38.08746753
37.98975756
38.24987084
37.53732595
37.75311907
37.83668568
37.58852381
37.67065409
37.46723904
49.06849076
48.84353664
49.87276403
47.02117753
47.8916707
48.11012886
47.41883233
47.6694271
46.79702584
42.73011729
42.4873805
43.47301924
40.98753838
41.67298862
41.89227928
41.19198975
41.44086629
40.78336858
40.04705264
39.89025605
40.40025777
39.04618621
39.44268347
39.58126478
39.15722555
39.3043642
38.92414284
38.46182776
38.37109481
38.69135189
37.81744673
38.08094448
38.15953519
37.91898647
38.00018305
37.74830793
50.23822077
50.11819416
51.12235144
43.51494447
43.34605872
44.40319548
41.69473575
42.45613793
42.61837294
42.09476445
42.28708456
41.54150179
40.58090753
40.45898221
41.03592899
39.49284931
39.94840509
40.05732785
39.70661942
39.83423128
39.39002419
38.78981311
38.71430695
39.08375602
38.07512904
38.37939476
38.44571033
38.2352972
38.30799658
38.01365103
42.76185561
42.89187802
42.1010844
40.1587508
40.25541442
39.76796552
38.50905381
38.57028068
38.24168277
47.61608303
47.00532306
46.6180196
47.63889586
47.28620711
47.97760342
51.80974478
50.91347895
50.73667765
51.23421279
51.07785066
51.95691198
48.98550474
48.23753265
47.91423214
48.79455022
48.50349054
49.29475721
53.27724565
52.60496802
52.56106546
52.36196415
51.51718175
51.38112235
51.76808727
51.64828992
52.47064156
40.28820459
39.99339799
39.95374488
39.58055754
40.62665495
40.205598
40.23481118
40.0224134
40.09688111
40.52155875
43.46138541
44.02305002
44.43433956
43.18327266
43.61306336
43.1455315
44.77530434
44.18781415
43.7083128
46.06593228
46.87433482
47.16003949
46.25873824
46.57886674
45.79371029
48.43384731
47.45989052
47.11560852
47.74021405
48.63735593
48.79673585
48.29555204
48.48361069
47.56574166
50.47221739
49.45013141
49.25941758
51.21251049
53.00044565
52.88211016
53.26423271
53.14518372
51.43593768
55.5300201
55.59395372
55.70196753
53.92140345
55.11642896
54.97107918
55.35797222
55.23933578
54.19759262
46.06027261
45.63558282
45.19088779
46.33276764
45.91950296
46.4652599
53.37809454
52.49482248
52.22106179
51.07764395
50.17478615
49.96001948
50.55434452
50.35507363
51.27235903
55.17799718
55.15710036
55.09807677
54.30149371
54.71826212
54.87495667
54.55486668
54.66176102
54.18497357
54.75085317
55.16532993
55.17138374
53.7723071
53.56904255
54.51439446
53.95402595
54.33345646
54.45801734
54.03990302
54.20123294
53.86206085
55.30528707