/*--------------------------------*- C++ -*----------------------------------*\
| =========                 |                                                 |
| \\      /  F ield         | OpenFOAM: The Open Source CFD Toolbox           |
|  \\    /   O peration     | Version:  v2012                                 |
|   \\  /    A nd           | Website:  www.openfoam.com                      |
|    \\/     M anipulation  |                                                 |
\*---------------------------------------------------------------------------*/
FoamFile
{
    version     2.0;
    format      ascii;
    class       surfaceScalarField;
    location    "1.69";
    object      meshPhi;
}
// * * * * * * * * * * * * * * * * * * * * * * * * * * * * * * * * * * * * * //

dimensions      [0 3 -1 0 0 0 0];
oriented        oriented;


internalField   nonuniform List<scalar> 
5975
(
6.388465665e-06
-0.0001787129735
-6.042150288e-06
0.0003576252256
-0.0001792585675
-0.0007165198063
8.996710546e-05
-0.0001886892406
0.00144081402
-0.0007239936088
9.842153026e-05
0.0002669349953
-0.001358049562
-0.0002541595143
0.00127384918
0.0002022021136
-0.0009347800891
-0.0001947133187
0.0007976323191
0.0001008011751
-0.0003870964413
-9.538291098e-05
0.0002682935448
-3.071059273e-05
8.650031664e-06
-6.832741206e-06
3.033029554e-06
0
0
0
0
0
0
0
0
0
0
0
0
0
0
0
0
0
2.099801887e-05
-0.0003901542388
-2.099799803e-05
0.0007826154278
-0.0003924612098
-0.001572635854
0.0001912905019
-0.0001896339969
0.001567522332
0.000231673857
-0.001375326611
-0.0002248328755
0.00126905538
0.0001714509084
-0.0008536105816
-0.0001581134318
0.0007019935593
7.236071947e-05
-0.0002848357227
-6.598284773e-05
0.0001831262278
-4.473400688e-06
1.367726325e-06
-6.22895144e-07
0
0
0
0
0
0
0
0
0
0
0
0
0
0
0
0
0
0
5.080340502e-05
-0.001697372947
-5.080340503e-05
0.001697372947
0.0001776818005
-0.001663689719
-0.0001706506429
0.001614187738
0.0001946706536
-0.001323311159
-0.0001838511066
0.001186725138
0.0001271242328
-0.0007200608334
-0.0001186374336
0.0005639635042
4.210856647e-05
-0.0001734657504
-3.406699037e-05
9.059221336e-05
0
0
0
0
0
0
0
0
0
0
0
0
0
0
0
0
0
0
0
0
0
4.736097318e-05
-0.00171282551
-4.355028015e-05
0.001682978329
0.0001402247061
-0.001506415858
-0.0001273555301
0.001414942207
0.0001433751568
-0.001053216397
-0.0001280112708
0.0009122627674
8.612455543e-05
-0.0004825883062
-7.356980261e-05
0.0003522903265
1.482917392e-05
-6.503666269e-05
-9.005487007e-06
1.787410861e-05
0
0
0
0
0
0
0
0
0
0
0
0
0
0
0
0
0
0
0
0
0
2.718499301e-05
-0.001277559264
-2.140441395e-05
0.001234123595
8.463554505e-05
-0.001021929821
-7.030826661e-05
0.000927717918
7.987785281e-05
-0.0006028497822
-6.410637426e-05
0.0004899920438
3.492599639e-05
-0.0001860038265
-2.326499933e-05
0.0001088189891
1.353696828e-07
-4.686916795e-07
0
0
0
0
0
0
0
0
0
0
0
0
0
0
0
0
0
0
0
0
0
0
0
7.70055406e-06
-0.0005863658437
-4.826833176e-06
0.0005554776086
3.210655766e-05
-0.0004095142873
-2.193033868e-05
0.0003487362877
2.270227148e-05
-0.0001615608937
-1.247817821e-05
0.0001066158922
1.238082595e-06
-6.141591395e-06
-3.50419955e-09
6.625890459e-08
0
0
0
0
0
0
0
0
0
0
0
0
0
0
0
0
0
0
0
0
0
0
0
0
0
5.957803491e-07
-7.138253942e-05
-1.602479523e-07
6.220452273e-05
2.348832996e-06
-2.466586286e-05
-1.983953647e-07
1.358656761e-05
0
0
0
0
0
0
0
0
0
0
0
0
0
0
0
0
0
0
0
0
0
0
0
0
0
0
0
0
0
0
0
0
0
0
0
0
0
0
0
0
0
0
0
0
0
0
0
0
0
0
0
0
0
0
0
0
0
0
0
0
0
0
0
0
0
0
0
0
0
0
0
0
0
0
0
0
0
0
0
0
0
0
0
0
0
0
0
0
0
0
0
0
0
0
0
0
0
0
0
0
0
0
0
0
0
0
0
0
0
0
0
0
0
0
0
0
0
0
0
0
0
0
0
0
0
0
0
0
0
0
0
0
0
0
0
0
0
0
0
0
0
0
0
0
0
0
0
0
0
0
0
0
0
0
0
0
0
0
0
0
0
0
0
0
0
0
0
0
0
0
0
0
0
0
0
0
0
0
0
0
0
0
0
0
0
0
0
0
0
0
0
0
0
0
0
0
0
0
0
0
0
0
0
0
0
0
0
0
0
0
0
0
0
0
0
0
0
0
0
0
0
0
0
0
0
0
0
0
0
0
0
0
0
0
0
0
0
0
0
0
0
0
0
0
0
0
0
0
0
0
0
0
0
0
0
0
0
0
0
0
0
0
0
0
0
0
0
0
0
0
0
0
0
0
0
0
0
0
0
0
0
0
0
0
0
0
0
0
0
0
0
0
0
0
0
0
0
0
0
0
0
0
0
0
0
0
0
0
0
0
0
0
0
0
0
0
0
0
0
0
0
0
0
0
0
0
0
0
0
0
0
0
0
0
0
0
0
0
0
0
0
0
0
0
0
0
0
0
0
0
0
0
0
0
0
0
0
0
0
0
0
0
0
0
0
0
0
0
0
0
0
0
0
0
0
0
0
0
0
0
0
0
0
0
0
0
0
0
0
0
0
0
0
0
0
0
0
0
0
0
0
0
0
0
0
0
0
0
0
0
0
0
0
0
0
0
0
0
0
0
0
0
0
0
0
0
0
0
0
0
0
0
0
0
0
0
0
0
0
0
0
0
0
0
0
0
0
0
0
0
0
0
0
0
0
0
0
0
0
0
0
0
0
0
0
0
0
0
0
0
0
0
0
0
0
0
0
0
0
0
0
0
0
0
0
0
0
0
0
0
0
0
0
0
0
0
0
0
0
0
0
0
0
0
0
0
0
0
0
0
0
0
0
0
0
0
0
0
0
0
0
0
0
0
0
0
0
0
0
0
0
0
0
0
0
0
0
0
0
0
0
0
0
0
0
0
0
0
0
0
0
0
0
0
0
0
0
0
0
0
0
0
0
0
0
0
0
0
0
0
0
0
0
0
0
0
0
0
0
0
0
0
0
0
0
0
0
0
0
0
0
0
0
0
0
0
0
0
0
0
0
0
0
0
0
0
0
0
0
0
0
0
0
0
0
0
0
0
0
0
0
0
0
0
0
0
0
0
0
0
0
0
0
0
0
0
0
0
0
0
0
0
0
0
0
0
0
0
0
0
0
0
0
0
0
0
0
0
0
0
0
0
0
0
0
0
0
0
0
0
0
0
0
0
0
0
0
0
0
0
0
0
0
0
0
0
0
0
0
0
0
0
0
0
0
0
0
0
0
0
0
0
0
0
0
0
0
0
0
0
0
0
0
0
0
0
0
0
0
0
0
0
0
0
0
0
0.0001785554067
-2.497171382e-06
2.552701075e-06
-0.0001786109363
-0.0001780683273
0.0003561883173
6.823882231e-06
-8.061878942e-05
0.0007097291811
8.066439613e-05
-0.0007097747878
0.0003885724792
-7.196216937e-06
7.196284757e-06
-0.000388572547
-0.0001789146153
-2.295529513e-06
0.0007748415141
-0.0003546780417
-9.254579029e-06
-1.338395257e-06
-0.0001417375633
0.001521749921
-0.0007724209369
-0.0007601349196
7.243608157e-05
8.010741778e-05
-0.0007165706302
-8.056796551e-05
0.0008370256027
-1.219043086e-05
1.219043085e-05
-0.0008370256027
-0.0003901542781
-7.196177614e-06
-4.501629142e-05
0.0007096694745
4.496670968e-05
-0.0003555490225
-0.0003540708702
1.342482701e-06
0.0003699710057
-0.0003702648804
-1.048608039e-06
0.000368342063
1.853177071e-06
-0.0003688527574
-4.751795426e-06
0.0003680650245
5.028833935e-06
-4.808274102e-05
0.0007377367456
4.66272754e-05
-0.0007362812799
0.0007166377231
-4.511997594e-05
-0.0003590739363
-0.0003574601023
4.334473598e-06
0.0001758022385
-0.0001764007852
-3.735926906e-06
-2.662968719e-06
0.0003624897117
2.825424839e-06
-0.0001813636034
-0.0001812885644
0.0001752873771
4.792598111e-06
-0.0001757455016
-4.068383466e-06
0.0001750002429
4.355517625e-06
-1.409332124e-05
0.0003490356158
1.426598651e-05
-0.0003492082811
0.0003643319993
-0.0003644509437
-2.544024312e-06
0.001665893935
-0.0008288683324
2.099799506e-05
2.980540998e-05
0.001654478272
-0.0001529566943
0.0001558337967
-0.001665633501
-0.0001564926516
-0.0007900204263
-0.0007678603396
-1.370968581e-05
0.0003555150596
1.383480053e-05
-0.0003556401743
0.0003505752659
-0.0003506592379
-1.400934918e-05
-3.713269564e-06
0.0001754471246
-4.742064924e-05
0.0007598973155
4.40129301e-05
-0.0007564895963
0.0007451518222
-0.0007427307156
-5.050384754e-05
-4.447530604e-06
0.0003696667409
0.0008059335586
-1.219043078e-05
1.219043059e-05
-0.0008059335584
2.2190682e-05
0.0002211288372
-0.0002433195192
-4.062899873e-06
0.0001737217347
4.357897777e-06
-0.0001740167326
6.920472039e-06
0.0003769297751
-8.376185734e-06
2.488341753e-06
0.0003747450488
-8.733487328e-07
-0.0003763600418
-0.0001757306742
-3.114337598e-07
-1.335695794e-06
0.0001773778038
-0.0001755205714
-2.037661353e-06
0.0001763711892
1.187043496e-06
-3.068570423e-06
0.0001764484581
3.04359045e-06
-0.0001764234781
-1.393889648e-07
-2.60577959e-06
-0.0001727754028
-2.079593965e-05
-9.501607996e-06
-0.0001454331266
-1.880099463e-06
0.0001800642147
2.157449313e-06
-0.0001803415646
0.0001747113505
-0.0001716883668
-3.162372686e-06
-4.045642156e-05
0.0001807912031
7.243775788e-06
-3.010682269e-07
0.0001809631457
5.199278921e-07
-0.0001811820054
0.0001800732342
-0.0001801779555
-1.775378193e-06
-6.51755401e-07
0.0001813349292
7.713927969e-07
-0.0001814545666
0.0001812659288
-0.0001814188893
-1.4810779e-07
5.446313996e-06
0.000181723858
0.0002242711846
-0.0002450671243
0.0001739334855
-0.0001737103653
-4.286020076e-06
7.793625534e-07
0.0001705276973
-0.0001491163778
0.0001782499465
4.570980437e-05
0.0007097865162
8.990977038e-05
0.00134802793
-0.0002643486486
0.0002694183619
-0.001392302528
0.0001766398719
-0.0001768956386
-2.812803732e-06
-3.544435681e-06
0.0001762181248
-2.455014053e-06
0.0001794344741
3.084754704e-06
0.0001704014527
-0.0001678014802
-4.081862993e-06
0.0001715128308
-4.317420821e-06
-4.44886987e-06
0.0001735725939
4.598010708e-06
-5.091215945e-06
0.0001730456363
5.162208334e-06
-0.0001731166287
-2.229523202e-05
-8.510508559e-06
0.000178428875
-0.0001476231345
0.0002272417424
-0.0002495369744
0.0002284196816
2.3388093e-05
4.235650083e-05
3.75311319e-06
0.0001823100676
0.00017976564
-0.0001459196477
0.0001835282893
6.844958054e-07
-6.269464956e-07
-0.0001835858386
0.000182284662
-0.0001829303933
-6.024142477e-09
-1.501349884e-05
-0.0001526040951
4.499300667e-05
8.139230626e-07
0.0001753219075
0.0001727254951
-0.0001427459873
-0.0002232381973
4.287884823e-05
0.0001777535695
2.372407584e-05
-0.0002469622732
1.968448215e-06
-0.0001510197752
0.0001764672042
-0.000143089964
-0.0001811433058
3.529740981e-06
0.0001797710141
1.53349947e-06
4.456493718e-05
-3.791900516e-07
-1.363189097e-05
-0.0001560880276
0.0001770181219
-0.0001460850757
0.0001773854902
-1.847749887e-06
1.584437047e-06
0.000181054516
-0.0001795604759
0.0001814658392
0.0001791238664
1.905925572e-06
-1.771984925e-06
4.595288682e-07
0.0001804363225
0.0001815363101
0.0001689461326
-1.501952616e-05
-0.0001531472438
1.596915102e-06
-4.689052831e-06
0.0001720382703
0.0001729385354
4.956160833e-06
0.0001765774817
-3.283695985e-06
-0.0001741834004
0.0001744505084
-0.0001434931221
0.001278080692
0.0002731702766
0.0009488973736
-0.0002260996092
0.0002314765096
-0.001074494726
0.0008118033192
0.0002156754552
0.0004030976059
-0.000127142333
0.0001359575641
-0.0005343573911
0.0002838788469
0.0001091468904
-2.574877039e-05
3.893196434e-05
3.17249503e-05
-9.806037046e-05
-5.795450525e-06
0.0003625534063
5.731755869e-06
-1.336302863e-05
0.0003624184049
1.361906333e-05
-0.0003626744396
0.0003575491692
-0.0003575726061
-1.368624891e-05
0.001522150611
0.0001903322868
0.001380835844
-0.0002346488929
0.0002461737017
-0.001464649532
-0.001413005518
-0.000257224104
0.001279060025
0.000240792872
0.0008702558361
-0.0001841364619
0.0001965078013
-0.00101820737
-0.001063634593
-0.000218094235
0.0007323399113
0.0001749804841
0.0003142725074
-9.666692463e-05
0.0001026210724
-0.0004435033588
-0.0005185230366
-0.0001211031455
0.0002017742158
7.77759603e-05
-9.423650604e-06
9.975593961e-06
1.41759434e-05
-4.824744661e-05
-8.610520201e-05
-2.243247463e-05
-2.099799513e-05
0.0008059335584
2.099799533e-05
-4.742064924e-05
0.0008059335584
4.742064926e-05
-0.0008059335584
0.0007826154278
-0.0007826154278
-4.742064925e-05
0.001618643773
0.0001831902606
0.00135474739
-0.0002018825115
0.0002109128461
-0.001467083716
-0.001457745223
-0.0002290647553
0.00122262358
0.0002037681447
0.0007577234695
-0.0001472421593
0.0001548718563
-0.0009185100522
-0.001003398643
-0.0001773991715
0.0006012471633
0.0001404279499
0.000202656156
-6.160509175e-05
7.2910617e-05
-0.0003182966856
-0.0004111987588
-8.662775257e-05
0.0001143405474
5.12429597e-05
-1.131028321e-06
0
2.389094246e-06
-8.889584083e-06
-3.604002596e-05
-6.821589127e-06
0.001747287276
-1.470570168e-05
1.568863485e-05
-1.557330194e-05
3.382871108e-06
0.001726080889
4.982244024e-05
0.00157804339
-0.0001247459028
0.0001341952295
-0.001643926953
-0.001689519839
-0.0001482830151
0.001493969297
0.0001518554867
0.001141484642
-0.0001503982822
0.0001651225534
-0.001273649363
-0.00144232011
-0.0001910992419
0.0009989622812
0.0001579642681
0.0005523742502
-0.0001033892368
0.0001160054979
-0.0006997069893
-0.0008797031906
-0.0001381116269
0.0004131463733
9.796474164e-05
9.275530826e-05
-3.064453602e-05
3.916436541e-05
-0.000178674564
-0.0002852640692
-5.492558448e-05
3.325322755e-05
2.125303304e-05
0
0
0
0
-3.169274953e-06
-1.095339402e-07
0.001424784485
-4.112894273e-06
7.154729575e-06
-1.27804437e-05
0.001381753334
3.307389195e-05
0.001167047793
-7.626737568e-05
8.924753855e-05
-0.001252341294
-0.001581251151
-0.0001138897437
0.001069529595
9.918376464e-05
0.0007244408935
-8.608092782e-05
0.000102407293
-0.0008456229973
-0.001186129201
-0.0001348522423
0.0006013288166
9.599204579e-05
0.0002574368548
-4.801918737e-05
6.197173382e-05
-0.0003639175499
-0.0006224701913
-9.000020881e-05
0.0001644787011
4.755876225e-05
5.688098706e-06
-2.989150609e-06
7.726354508e-06
-3.495541591e-05
-0.0001390998403
-2.220938934e-05
0
1.513161548e-06
0
0
0
0
0
0
0.0007608407463
3.115097091e-06
-2.362793498e-06
-1.356632472e-06
0.0007252618792
1.146191372e-05
0.000556265419
-2.929895044e-05
3.963460064e-05
-0.0006214646188
-0.001105367475
-6.342111384e-05
0.0004847302248
4.373628261e-05
0.0002562391555
-2.764454775e-05
4.049396281e-05
-0.0003320424951
-0.0007155105979
-7.009651917e-05
0.0001847382884
3.506924615e-05
2.811999516e-05
-4.940261122e-06
1.245854826e-05
-6.74017207e-05
-0.0002778195053
-3.47161111e-05
6.061221394e-06
5.626495848e-06
0
0
0
0
-1.322787651e-05
-6.307877464e-07
0
0
0
0
0
0
0
0
0.0001597109315
1.083500958e-06
-1.929329038e-06
3.177290382e-06
0.000145067259
1.418044077e-06
7.960926615e-05
-2.74914206e-06
6.900788544e-06
-0.0001036183742
-0.0004655077067
-2.029957761e-05
5.572545408e-05
6.832289051e-06
5.858302435e-06
-1.310265581e-07
2.426721253e-06
-1.66377179e-05
-0.000222139258
-1.668641877e-05
6.01971413e-07
8.28801596e-07
0
0
0
0
-2.582226276e-05
-8.845738773e-07
0
0
0
0
0
0
0
0
0
0
0
0
0
0
0
0
0
0
0
3.949282523e-07
0
0
0
0
0
0
-3.754399238e-05
-4.556236276e-07
0
0
0
0
0
0
-1.188079796e-06
0
0
0
0
0
0
0
0
0
0
0
0
0
0
0
0
0
0
0
0
0
0
0
0
0
0
0
0
0
0
0
0
0
0
0
0
0
0
0
0
0
0
0
0
0
0
0
0
0
0
0
0
0
0
0
0
0
0
0
0
0
0
0
0
0
0
0
0
0
0
0
0
0
0
0
0
0
0
0
0
0
0
0
0
0
0
0
0
0
0
0
0
0
0
0
0
0
0
0
0
0
0
0
0
0
0
0
0
0
0
0
0
0
0
0
0
0
0
0
0
0
0
0
0
0
0
0
0
0
0
0
0
0
0
0
0
0
0
0
0
0
0
0
0
0
0
0
0
0
0
0
0
0
0
0
0
0
0
0
0
0
0
0
0
0
0
0
0
0
0
0
0
0
0
0
0
0
0
0
0
0
0
0
0
0
0
0
0
0
0
0
0
0
0
0
0
0
0
0
0
0
0
0
0
0
0
0
0
0
0
0
0
0
0
0
0
0
0
0
0
0
0
0
0
0
0
0
0
0
0
0
0
0
0
0
0
0
0
0
0
0
0
0
0
0
0
0
0
0
0
0
0
0
0
0
0
0
0
0
0
0
0
0
0
0
0
0
0
0
0
0
0
0
0
0
0
0
0
0
0
0
0
0
0
0
0
0
0
0
0
0
0
0
0
0
0
0
0
0
0
0
0
0
0
0
0
0
0
0
0
0
0
0
0
0
0
0
0
0
0
0
0
0
0
0
0
0
0
0
0
0
0
0
0
0
0
0
0
0
0
0
0
0
0
0
0
0
0
0
0
0
0
0
0
0
0
0
0
0
0
0
0
0
0
0
0
0
0
0
0
0
0
0
0
0
0
0
0
0
0
0
0
0
0
0
0
0
0
0
0
0
0
0
0
0
0
0
0
0
0
0
0
0
0
0
0
0
0
0
0
0
0
0
0
0
0
0
0
0
0
0
0
0
0
0
0
0
0
0
0
0
0
0
0
0
0
0
0
0
0
0
0
0
0
0
0
0
0
0
0
0
0
0
0
0
0
0
0
0
0
0
0
0
0
0
0
0
0
0
0
0
0
0
0
0
0
0
0
0
0
0
0
0
0
0
0
0
0
0
0
0
0
0
0
0
0
0
0
0
0
0
0
0
0
0
0
0
0
0
0
0
0
0
0
0
0
0
0
0
0
0
0
0
0
0
0
0
0
0
0
0
0
0
0
0
0
0
0
0
0
0
0
0
0
0
0
0
0
0
0
0
0
0
0
0
0
0
0
0
0
0
0
0
0
0
0
0
0
0
0
0
0
0
0
0
0
0
0
0
0
0
0
0
0
0
0
0
0
0
0
0
0
0
0
0
0
0
0
0
0
0
0
0
0
0
0
0
0
0
0
0
0
0
0
0
0
0
0
0
0
0
0
0
0
0
0
0
0
0
0
0
0
0
0
0
0
0
0
0
0
0
0
0
0
0
0
0
0
0
0
0
0
0
0
0
0
0
0
0
0
0
0
0
0
0
0
0
0
0
0
0
0
0
0
0
0
0
0
0
0
0
0
0
0
0
0
0
0
0
0
0
0
0
0
0
0
0
0
0
0
0
0
0
0
0
0
0
0
0
0
0
0
0
0
0
0
0
0
0
0
0
0
0
0
0
0
0
0
0
0
0
0
0
0
0
0
0
0
0
0
0
0
0
0
0
0
0
0
0
0
0
0
0
0
0
0
0
0
0
0
0
0
0
0
0
0
0
-0.0001782599481
2.744321949e-06
-2.590609778e-06
2.913528413e-06
-0.0001785828668
-0.0001788334879
-2.368058233e-06
9.017597821e-06
0.0003558939183
-8.72319873e-06
-0.000353974616
0.0003539087704
9.083443415e-06
7.061758491e-06
-0.0001775726204
0.0006877275853
-0.0006877527858
-8.108635697e-05
-0.0003448338301
-5.429752013e-05
0.0006878177389
-5.487260147e-05
0.0007097900571
5.47520188e-05
0.0003770288275
-0.000379901326
5.360840229e-06
0.0003941883066
-2.03164975e-06
0.0001796498699
-5.432694983e-07
0.0001806750097
8.314055552e-07
-3.313490859e-06
0.0003594681386
1.741159872e-06
2.314645028e-06
-0.0001804141656
-0.000179796287
2.980540999e-05
0.0007748415141
-2.980540999e-05
0.0007482726247
2.826153001e-05
-0.0003731417304
-0.0003735870143
1.631123596e-06
4.926621462e-07
0.0003749050418
8.014363699e-05
0.0007446791176
-0.0007448223524
-8.000040222e-05
5.586236498e-05
-5.463928497e-05
0.0007439287421
-5.622715515e-05
0.0007612015
5.492297056e-05
-5.503884862e-05
0.0007168039703
0.000737529025
5.607008555e-05
0.000737969322
8.027139077e-05
-0.0007380970758
0.0008137074722
-0.0008137074721
-1.219043083e-05
-1.219043006e-05
0.0007900204285
4.994243301e-06
7.196184552e-06
-0.0003959810499
-0.0003940393764
2.387553074e-05
0.0007027126091
-0.0003521363228
-0.0003505741558
2.108904846e-05
1.632314604e-05
-1.628419048e-05
0.0003505363103
-1.626388336e-05
0.0003555275139
1.625142907e-05
0.0003487616309
1.659713095e-05
0.0003486003297
2.37367447e-05
-0.0003484615437
0.0001718936205
-4.564320158e-06
-4.708787214e-06
0.0001719249155
2.075066143e-06
-1.53310012e-06
-0.0003708068464
0.0003719036245
-0.0003729906082
3.162049863e-06
-9.201570651e-08
0.0003709470322
-0.0003676016567
2.173611074e-06
0.0003672812227
8.142429797e-07
-6.752331397e-07
-0.0001836876219
-0.0001840530447
-0.0003695716145
0.0003683393357
-1.339719981e-05
1.341824031e-05
-0.0003683603762
0.0003639460059
-0.0003638625265
-1.344650802e-05
-5.416123454e-06
0.0003639526722
-0.0007298838229
4.541286671e-05
0.0007310982316
-3.548268086e-05
3.493641844e-05
-0.0003653915547
-3.630952449e-05
-0.0003671151006
-1.618210809e-05
0.0003574673939
0.0007234939001
-0.000361194738
1.608960331e-05
1.89660579e-05
0.0007237867909
-3.684543901e-06
4.315829673e-06
-0.000177032071
0.0001765796264
-0.0001769017778
-3.36239249e-06
-3.373940906e-06
0.0001762176404
1.443723214e-06
-1.708515177e-06
0.0001812946771
-0.0001779125136
0.0001798157657
0.0003614482043
-0.0001811233533
-0.000180812917
-2.475834012e-07
0.0001809702427
-3.971843853e-07
0.0001812812318
4.508818521e-07
-0.0001746214715
4.82942353e-06
0.000174584646
-5.147809761e-06
4.976846652e-06
9.275194204e-06
0.0003494068044
-9.278775499e-06
-0.0001748453886
-0.0001745578345
0.0003474517894
4.475877151e-06
-0.0001741035119
-0.0001736401764
-4.336577283e-06
0.0001738211929
-0.0003473275453
1.433300784e-05
0.000347260524
-1.193440943e-05
1.20586535e-05
-1.173588609e-05
0.0003453319629
-0.0001724177682
0.0003450689791
-1.279643044e-07
-0.0001831924402
7.569384702e-07
0.0003660094855
-0.0001832843937
0.0003656390723
1.044087041e-06
-5.829899056e-07
0.000184018515
0.0001833943335
3.939734541e-06
-0.00018534792
-0.0001850410811
-1.82917017e-06
-1.293177768e-06
-0.0001840987031
1.095577039e-06
8.603373428e-05
0.001665893935
-8.603373429e-05
0.001635188858
3.861308504e-05
-0.0008214813859
-0.0008137074721
-2.099799507e-05
0.0008137074721
-0.001635188858
0.0001564926516
0.00163327085
-0.0001212636881
0.0001212636881
-0.0001211985504
-5.622715514e-05
0.0007826154278
0.001604093203
-0.0007981596446
5.622715515e-05
6.503653295e-05
0.001604093203
-0.0003539405486
1.374243599e-05
0.0003540329131
-1.156021585e-05
1.152843773e-05
-1.130647187e-05
-1.17699367e-05
-0.0003506251873
0.0003524301414
-0.0003526716403
0.0003521632282
0.0003524348198
-0.0001761281695
3.380462939e-06
3.823103372e-06
8.846622855e-06
-0.000175695046
-0.000175362294
-0.0007635675435
5.099701822e-05
0.0007565834554
-5.696500279e-05
4.167008402e-05
-3.861308505e-05
-3.803808044e-05
-0.0007410021597
0.0007503633346
-0.000746731331
0.0007508565053
0.0003731427705
3.233401817e-06
2.595964301e-05
-0.000372629383
-0.000371800061
-0.0003705246264
-0.0003695231879
1.160809784e-05
-0.0007981596446
0.0007981596451
-3.382871105e-06
2.792371469e-06
-3.382871111e-06
-0.0001726851434
0.0001727256204
-4.041511308e-06
-2.736336464e-06
-4.868123012e-06
5.687981021e-06
-0.0001871078873
-0.000186702579
-0.0001864786244
-0.0001852566105
-6.564132837e-06
0.0003782672632
5.226644753e-06
-0.0003755821173
0.0003747059655
-3.6376613e-06
-0.0003735627525
0.0003725973881
4.305262819e-06
6.212484228e-06
0.0001769079503
-1.776441915e-06
2.937963211e-06
-2.93179071e-06
2.580702172e-06
0.0001765370014
-2.746514379e-06
-0.0001771641711
0.0001768130826
-0.00017645852
-3.007829924e-06
-2.894306571e-06
-0.0001813221396
1.048131312e-06
0.0001807939362
3.765063169e-07
-2.32806782e-07
2.490168618e-07
-7.91505552e-07
0.0001812857552
0.0001805585083
-0.0001806636524
2.334759499e-07
0.0001812015692
-9.80219932e-07
1.323332765e-07
-1.140109488e-06
3.664376888e-07
0.0001809350935
0.0001810204616
-3.508166277e-06
0.0001735069507
0.0001740503541
0.0002244443867
0.001411435117
-0.0002239989253
-0.0007097572301
-0.0007023019475
0.001381962988
-0.0006945410419
-0.0006874668163
-9.035610099e-05
0.0006876298408
-0.001371251561
0.001333415991
-0.0002541593195
-0.0002492744169
-2.990972136e-06
-0.000176798973
0.0001776411022
-0.0001777185459
0.0001776891252
-3.848070704e-06
3.327362571e-06
-3.356783278e-06
2.931951948e-06
-2.330965773e-06
-0.0001790076981
4.60480526e-06
0.0001733939753
-4.426186677e-06
-0.0001727593109
0.000172655329
-0.0001725212498
5.265689845e-06
-4.753223751e-06
4.887302981e-06
0.0001718140541
2.603242034e-07
0.0001841302565
4.105795317e-07
0.0001838891588
-0.000183698086
-2.132541881e-07
1.216999617e-07
6.937276478e-08
6.661178506e-07
-6.761692025e-07
0.0001834117185
6.319320768e-06
1.24360368e-05
0
0
0
-1.716217802e-08
0
0
0
0
0
0.0003594745834
-6.048595143e-06
8.701210586e-06
-8.594926747e-06
0.0003593682996
0.0003576032375
0.001469333198
-0.0001888911791
-0.000731161937
0.0002231729367
-0.0002216785668
0.001463533725
0.001438631479
0.001285787167
-0.001373476425
-0.0002483064869
0.0002503150887
-0.0002391826787
0.001176806295
0.000257887722
0.001178753045
0.0007642434292
-0.0009097344962
-0.0001802844422
0.0001715340276
-0.0001661618143
0.0006325904799
0.0001782474115
0.0006571423983
0.0002503626538
-0.0003662182482
-8.851955698e-05
6.957091212e-05
-6.333081977e-05
0.0001520489786
7.453067907e-05
0.0001665221074
0
3.113380207e-06
0
0
0
0
0
0
0
0
0
0
0
0
0
0
0.0007900204263
-2.099799585e-05
2.980540998e-05
-2.980540999e-05
0.0007900204263
0.0007826154278
0.001592339624
-0.0001872803618
0.0002109669364
-0.0002070732797
0.001550231776
0.0002170886841
0.001533795081
0.001257301554
-0.00137982798
-0.0002109422006
0.0002239675493
-0.000204554311
0.001117410063
0.0002240165156
0.001148931961
0.000675393974
-0.0008256550299
-0.0001537020578
0.0001352757077
-0.0001259803544
0.0005241794925
0.000146345691
0.0005516701395
0.000159250888
-0.0002605059627
-5.736656058e-05
4.25732335e-05
-3.485671827e-05
7.847812992e-05
4.833793462e-05
9.66112628e-05
0
0
0
0
0
0
0
0
0
0
0
0
0
0
0
0
0.001725789835
-0.001727905585
-5.079171458e-05
8.598409291e-05
-8.476287624e-05
0.001717997373
0.001697009859
0.001592770493
-0.001655356677
-0.0001620375297
0.0001853154756
-0.0001748073102
0.001507922575
0.0001942306587
0.001540092511
0.001136984775
-0.001277019505
-0.0001715389896
0.0001716876189
-0.0001598131938
0.0009861589918
0.0001821244812
0.001037123892
0.0005204029131
-0.0006724428847
-0.0001088664733
9.804784349e-05
-8.892320339e-05
0.0003788984097
0.0001059647017
0.000417169588
6.903081652e-05
-0.0001484765705
-2.779685574e-05
1.612557692e-05
-1.175051078e-05
1.870168327e-05
2.296832048e-05
3.174151529e-05
0
0
0
0
0
0
0
0
0
0
0
0
0
0
0
0
0.001609334985
-0.00164566444
-3.866638727e-05
7.126693071e-05
-6.396174756e-05
0.001558834795
7.733786085e-05
0.001639716147
0.001315993347
-0.001412190966
-0.0001135561335
0.0001351574572
-0.00012003837
0.001205838238
0.0001495179722
0.001307591895
0.0008152233012
-0.0009523994487
-0.0001121317797
0.0001177821155
-0.0001024054595
0.0006760257591
0.0001326342888
0.0007672297846
0.0002888765629
-0.0004084291831
-6.05945629e-05
5.616897977e-05
-4.437985764e-05
0.000184762791
6.774379289e-05
0.0002362727331
6.521391264e-06
-3.981642175e-05
-4.363205069e-06
1.742878657e-06
-3.320041063e-07
0
4.094510966e-06
4.925297001e-07
0
0
0
0
0
0
0
0
0
0
0
0
0
0
0
0
0.001071629376
-0.001113788887
-1.607727645e-05
3.873755237e-05
-3.065412352e-05
0.001015927938
4.725269125e-05
0.001176473856
0.000779852132
-0.0008684552186
-5.656354864e-05
7.355667098e-05
-5.886264715e-05
0.0006840953242
8.887823783e-05
0.0008247562664
0.0003808578453
-0.0004815852122
-4.902902581e-05
5.585880962e-05
-4.136799799e-05
0.0002849163896
7.112247548e-05
0.0003804206261
6.169210824e-05
-0.0001216848443
-1.324240005e-05
1.266243294e-05
-5.486000828e-06
2.086951441e-05
2.202168788e-05
5.003921359e-05
0
0
0
0
0
0
0
0
0
0
0
0
0
0
0
0
0
0
0
0
0
0
0
0
0.0003978282968
-0.0004235098177
-2.775526162e-06
1.1603208e-05
-7.34923391e-06
0.0003639422979
1.693072205e-05
0.0005147279751
0.0002283229323
-0.0002773703507
-1.343119322e-05
2.175179854e-05
-1.272320593e-05
0.0001783064428
3.265386942e-05
0.0002854406745
4.779926807e-05
-8.533259554e-05
-4.98361281e-06
7.869838932e-06
-2.136035514e-06
2.004142987e-05
1.676669662e-05
6.033775791e-05
0
-1.752009978e-08
0
0
0
0
1.459030696e-08
0
0
0
0
0
0
0
0
0
0
0
0
0
0
0
0
0
0
0
0
0
0
0
0
0
1.500429613e-05
-1.890354875e-05
-3.054450317e-09
5.077955026e-07
-5.973792172e-09
1.060503598e-05
1.869314663e-06
5.053691402e-05
4.023861459e-07
-2.751098613e-06
0
3.104774486e-08
0
0
1.562414345e-06
5.914627323e-06
0
0
0
0
0
0
0
0
0
0
0
0
0
0
0
0
0
0
0
0
0
0
0
0
0
0
0
0
0
0
0
0
0
0
0
0
0
0
0
0
0
0
0
0
0
0
0
0
0
0
0
0
0
0
0
0
0
0
0
0
0
0
0
0
0
0
0
0
0
0
0
0
0
0
0
0
0
0
0
0
0
0
0
0
0
0
0
0
0
0
0
0
0
0
0
0
0
0
0
0
0
0
0
0
0
0
0
0
0
0
0
0
0
0
0
0
0
0
0
0
0
0
0
0
0
0
0
0
0
0
0
0
0
0
0
0
0
0
0
0
0
0
0
0
0
0
0
0
0
0
0
0
0
0
0
0
0
0
0
0
0
0
0
0
0
0
0
0
0
0
0
0
0
0
0
0
0
0
0
0
0
0
0
0
0
0
0
0
0
0
0
0
0
0
0
0
0
0
0
0
0
0
0
0
0
0
0
0
0
0
0
0
0
0
0
0
0
0
0
0
0
0
0
0
0
0
0
0
0
0
0
0
0
0
0
0
0
0
0
0
0
0
0
0
0
0
0
0
0
0
0
0
0
0
0
0
0
0
0
0
0
0
0
0
0
0
0
0
0
0
0
0
0
0
0
0
0
0
0
0
0
0
0
0
0
0
0
0
0
0
0
0
0
0
0
0
0
0
0
0
0
0
0
0
0
0
0
0
0
0
0
0
0
0
0
0
0
0
0
0
0
0
0
0
0
0
0
0
0
0
0
0
0
0
0
0
0
0
0
0
0
0
0
0
0
0
0
0
0
0
0
0
0
0
0
0
0
0
0
0
0
0
0
0
0
0
0
0
0
0
0
0
0
0
0
0
0
0
0
0
0
0
0
0
0
0
0
0
0
0
0
0
0
0
0
0
0
0
0
0
0
0
0
0
0
0
0
0
0
0
0
0
0
0
0
0
0
0
0
0
0
0
0
0
0
0
0
0
0
0
0
0
0
0
0
0
0
0
0
0
0
0
0
0
0
0
0
0
0
0
0
0
0
0
0
0
0
0
0
0
0
0
0
0
0
0
0
0
0
0
0
0
0
0
0
0
0
0
0
0
0
0
0
0
0
0
0
0
0
0
0
0
0
0
0
0
0
0
0
0
0
0
0
0
0
0
0
0
0
0
0
0
0
0
0
0
0
0
0
0
0
0
0
0
0
0
0
0
0
0
0
0
0
0
0
0
0
0
0
0
0
0
0
0
0
0
0
0
0
0
0
0
0
0
0
0
0
0
0
0
0
0
0
0
0
0
0
0
0
0
0
0
0
0
0
0
0
0
0
0
0
0
0
0
0
0
0
0
0
0
0
0
0
0
0
0
0
0
0
0
0
0
0
0
0
0
0
0
0
0
0
0
0
0
0
0
0
0
0
0
0
0
0
0
0
0
0
0
0
0
0
0
0
0
0
0
0
0
0
0
0
0
0
0
0
0
0
0
0
0
0
0
0
0
0
0
0
0
0
0
0
0
0
0
0
0
0
0
0
0
0
0
0
0
0
0
0
0
0
0
0
0
0
0
0
0
0
0
0
0
0
0
0
0
0
0
0
0
0
0
0
0
0
0
0
0
0
0
0
0
0
0
0
0
0
0
0
0
0
0
0
0
0
0
0
0
0
0
0
0
0
0
0
0
0
0
0
0
0
0
0
0
0
0
0
0
0
0
0
0
0
0
0
0
0
0
0
0
0
0
0
0
0
0
0
0
0
0
0
0
0
0
0
0
0
0
0
0
0
0
0
0
0
0
0
0
0
0
0
0
0
0
0
0
0
0
0
0
0
0
0
0
0
0
0
0
0
0
0
0
0
0
0
0
0
0
0
0
0
0
0
0
0
0
0
0
0
0
0
0
0
0
0
0
0
0
0
0
0
0
0
0
0
0
0
0
0
0
0
0
0
0
0
0
0
0
0
0
0
0
0
0
0
0
0
0
0
0
0
0
0
0
0
0
0
0
0
0
0
0
0
0
0
0
0
0
0
0
0
0
0
0
0
0
0
0
0
0
0
0
0
0
0
0
0
0
0
0
0
0
0
0
0
0
0
0
0
0
0
0
0
0
0
0
0
0
0
0
0
0
0
0
0
0
0
0
0
0
0
0
0
0
0
0
0
0
0
0
0
0
0
0
0
0
0
0
0
0
0
0
0
0
0
0
0
0
0
0
0
0
0
0
0
0
0
0
0
0
0
0
0
0
0
0
0
0
0
0
0
-0.0007031048656
8.0967314e-05
0.0007028019477
-7.16823448e-05
7.186104036e-05
-0.0007032835612
-7.180611447e-05
-0.0007096510181
-0.0003341811424
-1.330061449e-05
-4.994559397e-06
5.708289806e-05
-0.0003862694811
-0.0003885727125
-4.994393975e-06
-1.996339223e-06
-0.0001792863343
0.000179239452
-0.0001794946313
-7.179650116e-05
-0.0007165802435
0.000724017966
-0.0007238820168
-7.193245034e-05
-8.054360827e-05
0.0003448523683
-0.0003447919639
-2.144340525e-05
-2.375598347e-05
8.24890619e-06
-8.34851321e-06
0.0003681646315
-0.0003669357468
0.0003668496293
8.335023724e-06
5.374309797e-06
4.252576087e-06
-4.097721824e-06
-0.0001745063527
4.201094317e-06
4.43381095e-06
-1.933959019e-06
2.09494371e-06
-1.526980771e-06
0.0001758848338
4.012891193e-06
0.0003704892873
-3.98978573e-06
8.204960207e-06
-8.240299286e-06
-2.789494682e-06
2.951738664e-06
0.0002646887837
0.001185461109
-0.001269321485
0.00118059237
-0.001072604034
0.0009492872006
-0.0002508679687
-0.0002449336651
0.0001874230446
0.0006723679596
-0.0008270262011
0.0006913391548
-0.0005553358267
0.0004241275657
-0.0001622389593
-0.0001533244518
8.244477345e-05
0.0001808651391
-0.0003033265249
0.0001974379426
-0.000110870109
5.01684042e-05
-5.605873979e-05
-4.884037072e-05
8.453406986e-06
0.000362626053
-8.526053675e-06
-0.000361131365
0.0003609898453
-0.0003609936361
1.341796143e-05
-1.117504727e-05
1.11712565e-05
-1.122343388e-05
-1.127584048e-05
0.0003592637156
0.0003589954281
0.0002192312794
0.001502893289
-0.001498199665
0.001486130782
-0.00075207944
-0.001446086678
0.00025512148
0.001373672738
-0.0002404503608
0.0002437240684
-0.0002478702313
-0.0002458518482
0.001432279695
0.0002303805688
0.0011578905
-0.00128182877
0.001165890788
-0.00104367372
0.0002036918283
0.0009011141394
-0.0002225180907
0.0002248769324
-0.0002073209575
-0.0002367458321
0.001049954501
0.0001525208915
0.0005851560605
-0.0007538549459
0.0006067456909
-0.0004652893659
0.0001136069775
0.0003358285211
-0.0001278647242
0.0001391756669
-0.0001209777406
-0.0001471862676
0.0004951659133
5.5914568e-05
0.0001140071566
-0.0002223013444
0.0001340908768
-6.28328571e-05
1.847784435e-05
1.74502402e-05
-3.307979755e-05
3.923059033e-05
-2.624326357e-05
-4.453980106e-05
7.553532882e-05
2.444244973e-05
2.980540999e-05
0.0008059335584
-2.980540999e-05
-0.0007981596446
0.0007981596446
-3.861308502e-05
0.0007900204263
-3.861308505e-05
-4.742064924e-05
0.0007900204263
0.0002014901796
0.001555878126
-0.001610612125
0.001558811736
-0.001478866717
0.0002180126863
0.001373350363
-0.0002105778202
0.0002171668842
-0.0002021369191
-0.0002247034724
0.001478786465
0.0001909030189
0.001075416921
-0.00124610861
0.001102383875
-0.0009475313634
0.0001693241075
0.0007880451609
-0.0001741105309
0.0001880408594
-0.0001658725014
-0.0001959825545
0.0009756513896
0.0001177602009
0.0004527533606
-0.0006359658419
0.0004908829738
-0.0003557395476
8.037989611e-05
0.0002361271153
-9.564236025e-05
0.0001036950573
-8.399286931e-05
-0.0001105011503
0.0003849137345
2.893632707e-05
4.735980611e-05
-0.000136823256
6.176620747e-05
-1.556268356e-05
3.8251842e-06
6.755595539e-08
-1.193140944e-05
1.573024006e-05
-8.157820217e-06
-2.16390042e-05
2.512123069e-05
1.479055463e-06
1.560157933e-05
0.001750481638
8.188419377e-05
0.001692579581
-0.00174006453
0.00171876417
-0.001682432546
0.0001420585313
0.001627952452
-0.00011048698