/*--------------------------------*- C++ -*----------------------------------*\
| =========                 |                                                 |
| \\      /  F ield         | OpenFOAM: The Open Source CFD Toolbox           |
|  \\    /   O peration     | Version:  v2012                                 |
|   \\  /    A nd           | Website:  www.openfoam.com                      |
|    \\/     M anipulation  |                                                 |
\*---------------------------------------------------------------------------*/
FoamFile
{
    version     2.0;
    format      ascii;
    class       pointVectorField;
    location    "3.13";
    object      pointDisplacement;
}
// * * * * * * * * * * * * * * * * * * * * * * * * * * * * * * * * * * * * * //

dimensions      [0 1 0 0 0 0 0];


internalField   nonuniform List<vector> 
6506
(
(0 0 0)
(0 0 0)
(0 0 0)
(0 0 0)
(0 0 0)
(0 0 0)
(0 0 0)
(0 0 0)
(0 0 0)
(0 0 0)
(0 0 0)
(0 0 0)
(0 0 0)
(0 0 0)
(0 0 0)
(0 0 0)
(0 0 0)
(0 0 0)
(0 0 0)
(0 0 0)
(0 0 0)
(0 0 0)
(0 0 0)
(0 0 0)
(0 0 0)
(0 0 0)
(0 0 0)
(0 0 0)
(0 0 0)
(0 0 0)
(0 0 0)
(0 0 0)
(0 0 0)
(0 0 0)
(0 0 0)
(0 0 0)
(0 0 0)
(0 0 0)
(0 0 0)
(0 0 0)
(0 0 0)
(0 0 0)
(0 0 0)
(0 0 0)
(0 0 0)
(0 0 0)
(0 0 0)
(0 0 0)
(0 0 0)
(0 0 0)
(0 0 0)
(0 0 0)
(0 0 0)
(0 0 0)
(0 0 0)
(0 0 0)
(0 0 0)
(0 0 0)
(0 0 0)
(0 0 0)
(0 0 0)
(0 0 0)
(0 0 0)
(0 0 0)
(0 0 0)
(0 0 0)
(0 0 0)
(0 0 0)
(0 0 0)
(0 0 0)
(0 0 0)
(0 0 0)
(0 0 0)
(0 0 0)
(0 0 0)
(0 0 0)
(0 0 0)
(0 0 0)
(-2.938680421e-07 1.036731722e-05 2.775557562e-17)
(0 0 0)
(0 0 0)
(0 0 0)
(0 0 0)
(0 0 0)
(0 0 0)
(0 0 0)
(0 0 0)
(0 0 0)
(0 0 0)
(0 0 0)
(0 0 0)
(0 0 0)
(0 0 0)
(0 0 0)
(0 0 0)
(0 0 0)
(0 0 0)
(0 0 0)
(0 0 0)
(0 0 0)
(0 0 0)
(0 0 0)
(0 0 0)
(0 0 0)
(0 0 0)
(0 0 0)
(0 0 0)
(-1.830805396e-05 0.000162042977 4.996003611e-16)
(-0.0001053722158 0.001016421317 3.080868893e-15)
(-1.377736097e-06 1.340264392e-05 4.163336342e-17)
(-0.0002001248494 0.002664917063 8.007483565e-15)
(-0.0004971937666 0.006570823744 1.99146255e-14)
(-0.000590285584 0.008900121262 2.69784195e-14)
(-0.0002751136602 0.004177932745 1.255939797e-14)
(-0.000335493475 0.008803644878 2.645106356e-14)
(-0.0005890064737 0.0153763106 4.661548925e-14)
(-0.0004923770061 0.01699051736 5.150047055e-14)
(-0.0002892368547 0.0100187737 3.011479954e-14)
(0 0 0)
(0 0 0)
(0 0 0)
(0 0 0)
(0 0 0)
(0 0 0)
(0 0 0)
(0 0 0)
(0 0 0)
(0 0 0)
(0 0 0)
(0 0 0)
(0 0 0)
(0 0 0)
(0 0 0)
(0 0 0)
(0 0 0)
(0 0 0)
(0 0 0)
(0 0 0)
(0 0 0)
(0 0 0)
(-5.113186632e-05 0.0003286616621 1.026956298e-15)
(-0.0002793378791 0.001914420951 6.009082121e-15)
(-6.616468547e-05 0.0004574495686 1.429412144e-15)
(-0.0009444244376 0.008152473752 2.536859611e-14)
(-0.001510789665 0.01293522037 4.062028491e-14)
(-0.001928064074 0.01800819976 5.653810753e-14)
(-0.001298752419 0.01222726534 3.805289417e-14)
(-0.002022046652 0.02615520013 8.139322549e-14)
(-0.002676300974 0.03437239607 1.07913678e-13)
(-0.002694198457 0.0395413442 1.241506897e-13)
(-0.002079249285 0.03072278666 9.5617958e-14)
(-0.001632702834 0.04204211792 1.308397835e-13)
(-0.002031270783 0.05205391542 1.63438707e-13)
(-0.0016106278 0.05488716605 1.72334369e-13)
(-0.001305879679 0.04465369047 1.389721671e-13)
(0 0 0)
(0 0 0)
(0 0 0)
(0 0 0)
(0 0 0)
(0 0 0)
(0 0 0)
(0 0 0)
(0 0 0)
(0 0 0)
(0 0 0)
(0 0 0)
(0 0 0)
(0 0 0)
(0 0 0)
(0 0 0)
(0 0 0)
(0 0 0)
(0 0 0)
(-2.199849258e-05 0.0001144905121 3.747002708e-16)
(0 0 0)
(-0.0009365329809 0.005858781765 1.891542478e-14)
(-0.001392060106 0.008615591447 2.807476474e-14)
(-0.002178884385 0.01439773222 4.690692279e-14)
(-0.001599706468 0.01067718697 3.445854713e-14)
(-0.003659551608 0.03056282099 9.861556016e-14)
(-0.004441997916 0.03677958263 1.197653088e-13)
(-0.004969710323 0.04491712046 1.462718835e-13)
(-0.004180007911 0.03810151705 1.229294444e-13)
(-0.004767446367 0.0598584485 1.930955396e-13)
(-0.005436581962 0.06770061025 2.204209038e-13)
(-0.005201191219 0.07407379117 2.411681965e-13)
(-0.004606169207 0.06613634042 2.133571098e-13)
(-0.00319043808 0.08028669982 2.590289094e-13)
(-0.003524243 0.08800008432 2.865485627e-13)
(-0.002727313509 0.09084270637 2.958189249e-13)
(-0.002481635185 0.0832797311 2.687017275e-13)
(0 0 0)
(0 0 0)
(0 0 0)
(0 0 0)
(0 0 0)
(0 0 0)
(0 0 0)
(0 0 0)
(0 0 0)
(0 0 0)
(0 0 0)
(0 0 0)
(0 0 0)
(0 0 0)
(0 0 0)
(0 0 0)
(0 0 0)
(-0.0001016763489 0.0004886054882 1.637578961e-15)
(-0.0002312307755 0.001100339948 3.719247132e-15)
(-0.0008213770277 0.004112548648 1.393329896e-14)
(-0.000552189619 0.002791830667 9.353628982e-15)
(-0.003247638764 0.0194813645 6.532274721e-14)
(-0.003842282412 0.02282684022 7.72854003e-14)
(-0.004955215991 0.03139613695 1.06276099e-13)
(-0.004295701565 0.02748188326 9.214851104e-14)
(-0.00679560464 0.05437252141 1.822014761e-13)
(-0.007505112277 0.05941020519 2.01047512e-13)
(-0.007917521351 0.06836514658 2.31328845e-13)
(-0.007237292441 0.06321757259 2.118027975e-13)
(-0.007182053645 0.08668999277 2.903371987e-13)
(-0.0076240684 0.09081665211 3.07129322e-13)
(-0.007051191189 0.09613514942 3.251010572e-13)
(-0.00666643701 0.09203827979 3.08239545e-13)
(-0.00424164575 0.1028075825 3.443634267e-13)
(-0.004378848511 0.1046399073 3.538974669e-13)
(-0.003313485583 0.105628475 3.572558915e-13)
(-0.003232906163 0.1044610193 3.499284196e-13)
(0 0 0)
(0 0 0)
(0 0 0)
(0 0 0)
(0 0 0)
(0 0 0)
(0 0 0)
(0 0 0)
(0 0 0)
(0 0 0)
(0 0 0)
(0 0 0)
(0 0 0)
(0 0 0)
(-9.677483631e-06 3.984047735e-05 1.387778781e-16)
(-2.640716998e-07 1.098497474e-06 1.387778781e-17)
(0 0 0)
(-0.0007259682951 0.003352560754 1.169897512e-14)
(-0.000916300048 0.004188713672 1.476596623e-14)
(-0.00190123765 0.009145003127 3.222422329e-14)
(-0.001622058612 0.007881868899 2.750577544e-14)
(-0.00527197944 0.0303945435 1.059846655e-13)
(-0.005738087119 0.03274351057 1.153382945e-13)
(-0.006972737669 0.04242696376 1.494221413e-13)
(-0.00660717827 0.04062487925 1.416367024e-13)
(-0.009150049549 0.07023233241 2.447764214e-13)
(-0.009524455304 0.07232562763 2.546296507e-13)
(-0.00978250909 0.08095852754 2.849942504e-13)
(-0.009445117525 0.07902073344 2.753908213e-13)
(-0.008546202004 0.09786414962 3.410605132e-13)
(-0.00871674511 0.09862233492 3.471944954e-13)
(-0.007850676054 0.1011772508 3.562011797e-13)
(-0.007750489742 0.1012068935 3.526900993e-13)
(-0.004547078789 0.1030928698 0)
(-0.004603793896 0.1020248944 0)
(-0.004048640037 0.1020277872 0)
(-0.003463365519 0.1020544601 0)
(-0.003430376285 0.1025830713 0)
(-0.003419109539 0.1030991158 0)
(0 0 0)
(0 0 0)
(0 0 0)
(0 0 0)
(0 0 0)
(0 0 0)
(0 0 0)
(0 0 0)
(0 0 0)
(0 0 0)
(0 0 0)
(0 0 0)
(0 0 0)
(0 0 0)
(-8.719949831e-05 0.0003440933645 1.276756478e-15)
(-4.969244798e-05 0.0001982034272 7.21644966e-16)
(-4.065275317e-05 0.0001638696008 5.967448757e-16)
(-0.001316567554 0.005831643633 2.119138198e-14)
(-0.001365384256 0.005983659812 2.198241589e-14)
(-0.002528329303 0.01165745177 4.282685317e-14)
(-0.002461670831 0.01147232303 4.168887457e-14)
(-0.006626358717 0.03661790072 1.330324739e-13)
(-0.00673086814 0.03679371009 1.350863865e-13)
(-0.008016107096 0.04671006585 1.714739462e-13)
(-0.00790536516 0.04656900929 1.691702334e-13)
(-0.01027520039 0.07544770525 2.739752869e-13)
(-0.01037567317 0.07533976277 2.764871665e-13)
(-0.01051711684 0.08317166722 3.05228065e-13)
(-0.01042849087 0.08341046654 3.028965967e-13)
(-0.00896680114 0.09784203587 3.55326879e-13)
(-0.009001850031 0.09704809602 3.562011797e-13)
(-0.007980396092 0.09784640101 0)
(-0.007966364603 0.09888979798 3.591710263e-13)
(-0.00467877917 0.09886378528 0)
(-0.004688213801 0.09833427859 0)
(-0.004140606315 0.09833087702 0)
(-0.004131229738 0.09885955013 0)
(0 0 0)
(0 0 0)
(0 0 0)
(0 0 0)
(0 0 0)
(0 0 0)
(0 0 0)
(0 0 0)
(0 0 0)
(0 0 0)
(0 0 0)
(0 0 0)
(0 0 0)
(0 0 0)
(-0.0001431424163 0.000540621752 2.095545959e-15)
(-0.0001292864643 0.000493754959 1.887379142e-15)
(-0.000113421113 0.0004379615137 1.665334537e-15)
(-0.001622215641 0.006881638871 2.611799665e-14)
(-0.001677388718 0.007037883867 2.700617507e-14)
(-0.00292521555 0.01291210781 4.952982469e-14)
(-0.002856284871 0.01274760949 4.836409051e-14)
(-0.007147019358 0.03780227224 1.433575481e-13)
(-0.007231877701 0.0378252727 1.450228826e-13)
(-0.00850341901 0.04739365213 1.81687998e-13)
(-0.008421050879 0.04746700556 1.799671523e-13)
(-0.01066337566 0.07482219557 2.836064716e-13)
(-0.01072232431 0.07436748113 2.849942504e-13)
(-0.01079783515 0.08151860591 3.124028813e-13)
(-0.01074969583 0.08211350503 3.11251025e-13)
(-0.009071764316 0.09432022791 3.575889584e-13)
(-0.009088275166 0.09334580321 3.577971253e-13)
(-0.008027521421 0.09369084987 0)
(-0.008016419638 0.09472715988 0)
(-0.00473416386 0.09468857784 0)
(-0.004740031317 0.09417006631 0)
(-0.004193828414 0.09416372212 0)
(-0.004187888903 0.09468223278 0)
(0 0 0)
(0 0 0)
(0 0 0)
(0 0 0)
(0 0 0)
(0 0 0)
(0 0 0)
(0 0 0)
(0 0 0)
(0 0 0)
(0 0 0)
(0 0 0)
(0 0 0)
(0 0 0)
(-0.0002111525048 0.0007618491491 3.094746681e-15)
(-0.0001903686591 0.000694880607 2.789435349e-15)
(-0.0001718635488 0.0006345907213 2.525757381e-15)
(-0.001814692176 0.007361779319 2.921274334e-14)
(-0.001870308434 0.007500771548 3.011479954e-14)
(-0.003163759629 0.01334665472 5.356826094e-14)
(-0.003095441086 0.013209705 5.240252676e-14)
(-0.007439807765 0.03760095543 1.491029522e-13)
(-0.007521998351 0.03757447064 1.507127756e-13)
(-0.008784823211 0.04674591552 1.874611577e-13)
(-0.008705387796 0.04687187119 1.858235787e-13)
(-0.01086839788 0.07275152867 2.883526751e-13)
(-0.01092444632 0.0722479311 2.896571871e-13)
(-0.01096347043 0.07888294382 3.162470286e-13)
(-0.01091802881 0.07952112296 3.151784389e-13)
(-0.00913202242 0.09037280622 3.5826897e-13)
(-0.009146513708 0.08938128981 3.584355035e-13)
(-0.008070238626 0.08955430946 0)
(-0.008059722151 0.09058788802 0)
(-0.004779602849 0.09054942772 0)
(-0.004785133835 0.09003292998 0)
(-0.004239674057 0.09002671483 0)
(-0.004236860239 0.09028498714 0)
(-0.004234049017 0.09054304329 0)
(0 0 0)
(0 0 0)
(0 0 0)
(0 0 0)
(0 0 0)
(0 0 0)
(0 0 0)
(0 0 0)
(0 0 0)
(0 0 0)
(0 0 0)
(0 0 0)
(0 0 0)
(0 0 0)
(-0.0003023823298 0.001040072505 4.427014311e-15)
(-0.0002776694805 0.0009667645664 4.066191828e-15)
(-0.0002537667772 0.0008942302638 3.719247132e-15)
(-0.002044184995 0.007913693345 3.290423489e-14)
(-0.002105437621 0.008053104038 3.388955783e-14)
(-0.003449473422 0.01387680263 5.83977311e-14)
(-0.003375523965 0.01374458757 5.714873019e-14)
(-0.007773352992 0.037458953 1.556393903e-13)
(-0.0078599812 0.03741412162 1.573324804e-13)
(-0.009110152924 0.0461789709 1.941502514e-13)
(-0.009026981972 0.0463266903 1.924432835e-13)
(-0.01109356316 0.07069232234 2.935846011e-13)
(-0.01115093837 0.07016323763 2.949029909e-13)
(-0.01114569388 0.07626256167 3.205491428e-13)
(-0.01109977132 0.0769255531 3.194666753e-13)
(-0.009187442577 0.08637904748 3.588240816e-13)
(-0.009200202096 0.08536998226 3.589073483e-13)
(-0.008111228533 0.08541758016 0)
(-0.008101161194 0.08645176465 0)
(-0.004823057698 0.0864134727 0)
(-0.004828282216 0.08589649084 0)
(-0.004283759441 0.08589026292 0)
(-0.004281087136 0.08614875313 0)
(-0.00427839139 0.08640719501 0)
(0 0 0)
(0 0 0)
(0 0 0)
(0 0 0)
(0 0 0)
(0 0 0)
(0 0 0)
(0 0 0)
(0 0 0)
(0 0 0)
(0 0 0)
(0 0 0)
(0 0 0)
(0 0 0)
(-0.0003821660444 0.001250071481 5.606626274e-15)
(-0.0003952232594 0.0013094381 5.800915304e-15)
(-0.0003607842303 0.001210548885 5.301314943e-15)
(-0.00230564602 0.008497691786 3.71092046e-14)
(-0.002383925546 0.008675358583 3.837208329e-14)
(-0.003781775772 0.01447229173 6.400435737e-14)
(-0.003688980096 0.01429813776 6.242228956e-14)
(-0.008136248547 0.03729297843 1.627309398e-13)
(-0.008241442878 0.03728960096 1.647848524e-13)
(-0.009474465308 0.04563458 2.016165013e-13)
(-0.009374363051 0.04574432026 1.995625887e-13)
(-0.01133041765 0.06856864114 2.990524495e-13)
(-0.01139691339 0.06805770535 3.005928839e-13)
(-0.01134016379 0.07360819486 3.25114935e-13)
(-0.01128808655 0.07426142668 3.238798119e-13)
(-0.009235808329 0.08231874045 3.591293929e-13)
(-0.009246846169 0.08129268728 3.591571485e-13)
(-0.008150690574 0.08128205761 0)
(-0.008140842284 0.08231600451 0)
(-0.004863286593 0.08227810349 0)
(-0.004868054186 0.08176116419 0)
(-0.004324562756 0.08175506877 0)
(-0.004322129769 0.08201363391 0)
(-0.004319675071 0.08227200663 0)
(-0.004181819491 0.09520155863 0)
(-0.004728166792 0.09520788052 0)
(-0.004231237795 0.09080109944 0)
(-0.004228423112 0.0910594438 0)
(-0.004774071574 0.09106594948 0)
(-0.004275696509 0.08666556484 0)
(-0.004273000186 0.08692405475 0)
(-0.00481778572 0.08693040594 0)
(-0.004317220951 0.0825303313 0)
(-0.004314742235 0.08278870372 0)
(-0.004858472694 0.0827948981 0)
(-0.004120380874 0.09938880273 0)
(-0.004668071943 0.09939324545 0)
(-0.0006141656988 0.1030859886 0)
(-0.0006219150785 0.1025725923 0)
(-0.008049132467 0.09162156178 0)
(-0.009117898197 0.09136768623 3.581301922e-13)
(-0.005320081753 0.09107233939 0)
(-0.005325541261 0.09055579275 0)
(-0.005280654982 0.09469492548 0)
(-0.005286473825 0.09417646142 0)
(-0.008090972897 0.08748601975 0)
(-0.009174336268 0.08738488616 3.586991815e-13)
(-0.005363099945 0.08693673945 0)
(-0.005368300156 0.08641978132 0)
(-0.005330976463 0.09003926984 0)
(-0.004801624011 0.08848199423 0)
(-0.004256501067 0.08847573508 0)
(-0.00425368321 0.08873434365 0)
(-0.004250890525 0.08899285643 0)
(-0.004796157291 0.08899914133 0)
(-0.002621953372 0.08845699152 0)
(-0.002620892565 0.08858631199 0)
(-0.002620254768 0.08871561353 0)
(-0.002892557131 0.08871871597 0)
(-0.002895158823 0.0884601048 0)
(-0.002599186589 0.09052410377 0)
(-0.002871723754 0.09052725708 0)
(-0.002874749987 0.0902692996 0)
(-0.002602403814 0.09026624468 0)
(-0.002600734002 0.09039526958 0)
(-0.008131019743 0.08334980759 0)
(-0.009223671429 0.08333500299 3.590461262e-13)
(-0.005403139579 0.08280112775 0)
(-0.005407881712 0.08228430826 0)
(-0.005373428601 0.08590279832 0)
(-0.004843670723 0.08434527761 0)
(-0.004299533972 0.0843389102 0)
(-0.004296957452 0.08459742558 0)
(-0.004294356048 0.08485601272 0)
(-0.004838614045 0.08486228551 0)
(-0.002670509334 0.08432032906 0)
(-0.002668339746 0.08444956416 0)
(-0.002805328445 0.08445118549 0)
(-0.002807097215 0.08432192156 0)
(-0.002649360505 0.08638873391 0)
(-0.002919953919 0.08639171973 0)
(-0.002922913866 0.08613328103 0)
(-0.002652536906 0.08613027378 0)
(-0.002651152429 0.08625954232 0)
(-0.005412601557 0.08176734436 0)
(-0.004881994672 0.08021051009 0)
(-0.004610224938 0.08020746209 0)
(-0.004607911177 0.08046610074 0)
(-0.004879705218 0.08046912501 0)
(-0.002700036625 0.08018555197 0)
(-0.002701341714 0.08031509304 0)
(-0.002844196449 0.08031712114 0)
(-0.00284414127 0.08018771519 0)
(-0.002685539049 0.08225338812 0)
(-0.002826298428 0.08225527094 0)
(-0.002828496643 0.08212625238 0)
(-0.00268865899 0.08212442868 0)
(-0.002524144991 0.09674390198 0)
(-0.002527513435 0.09648345275 0)
(-0.002254212005 0.09648053049 0)
(-0.002252524761 0.09661080671 0)
(-0.002250999788 0.0967407726 0)
(-0.002549882384 0.09466306333 0)
(-0.002275533567 0.09465974414 0)
(-0.002274087984 0.09478930021 0)
(-0.002273358623 0.09491922521 0)
(-0.002547030412 0.09492251225 0)
(-0.002486167014 0.09885626487 0)
(-0.002492555992 0.09858973262 0)
(-0.002217453533 0.09859215999 0)
(-0.002211066208 0.09885815466 0)
(-0.002247396665 0.09700216066 0)
(-0.002520553899 0.0970050884 0)
(-0.002597519661 0.09065288849 0)
(-0.002596017688 0.09078193943 0)
(-0.002868697521 0.09078521455 0)
(-0.002575818093 0.09259171326 0)
(-0.002847970677 0.09259488597 0)
(-0.002851002391 0.09233647214 0)
(-0.002578921573 0.09233332432 0)
(-0.004757216507 0.0926172652 0)
(-0.004762875374 0.09210012041 0)
(-0.004217033323 0.09209373252 0)
(-0.00421130269 0.09261085242 0)
(-0.002307588973 0.09233028157 0)
(-0.002306077105 0.09245935641 0)
(-0.002304187283 0.09258849878 0)
(-0.002462219506 0.0905224827 0)
(-0.002460478122 0.09065126652 0)
(-0.0025529705 0.09440395355 0)
(-0.002278663474 0.09440075497 0)
(-0.002276670562 0.09453028045 0)
(-0.002302502577 0.09271776372 0)
(-0.002300611696 0.09284719433 0)
(-0.002572591348 0.09285036496 0)
(-0.002647641503 0.0865178543 0)
(-0.002645802985 0.08664692522 0)
(-0.002916851592 0.0866500126 0)
(-0.002897979277 0.08820128007 0)
(-0.002624438723 0.08819806667 0)
(-0.002622737009 0.0883275476 0)
(-0.004807069021 0.08796465469 0)
(-0.004262043592 0.08795827661 0)
(-0.004259272907 0.08821695781 0)
(-0.002483813589 0.08832580694 0)
(-0.002483269846 0.08845527776 0)
(-0.002514846651 0.08638726241 0)
(-0.002512734037 0.08651635405 0)
(-0.002463963581 0.09039367489 0)
(-0.002483241249 0.08858465868 0)
(-0.002682695318 0.08238235087 0)
(-0.002824220593 0.08238426691 0)
(-0.002808817372 0.08419270509 0)
(-0.002672676231 0.08419111796 0)
(-0.004848650731 0.08382865315 0)
(-0.004304632052 0.08382245531 0)
(-0.004302108472 0.08408056295 0)
(-0.002535639207 0.08418952007 0)
(-0.002532656552 0.08431864931 0)
(-0.002541181634 0.08225126991 0)
(-0.002537008155 0.08238014463 0)
(-0.002516840328 0.08625807324 0)
(-0.002529675434 0.08444785063 0)
(-0.002845550632 0.08005837488 0)
(-0.002701786469 0.0800562638 0)
(-0.004884283261 0.07995196723 0)
(-0.004612513527 0.07994891923 0)
(-0.002555418339 0.08005395328 0)
(-0.002552595742 0.08018315651 0)
(-0.002545796762 0.08212242451 0)
(-0.002555160928 0.08031278478 0)
(-0.008004989462 0.09576481115 0)
(-0.009052516251 0.0952682053 3.572697693e-13)
(-0.005274730546 0.095214181 0)
(-0.005226374419 0.09886820571 0)
(-0.005235559873 0.09833944503 0)
(-0.004709640377 0.09676634907 0)
(-0.00416294955 0.0967606284 0)
(-0.004156046974 0.09728332169 0)
(-0.004702785376 0.09728908137 0)
(-0.002793595066 0.09700807961 0)
(-0.002797188128 0.09674692924 0)
(-0.002759919452 0.09885783725 0)
(-0.00276649296 0.0985905414 0)
(-0.004205519693 0.09312833203 0)
(-0.00475153016 0.09313469792 0)
(-0.00284491206 0.09285353969 0)
(-0.002823164117 0.09466622558 0)
(-0.002826252233 0.0944071158 0)
(-0.002820119998 0.09492567219 0)
(-0.002800532697 0.09648646772 0)
(-0.004715856091 0.09624684242 0)
(-0.00416931347 0.09624078242 0)
(-0.001449517022 0.0956904701 0)
(-0.001460176705 0.09556056828 0)
(-0.001339192363 0.09555925929 0)
(-0.00132733791 0.09568943501 0)
(-0.001382688856 0.09886863635 0)
(-0.001388678954 0.09873091389 0)
(-0.00125040573 0.09873283931 0)
(-0.001243453682 0.09887245154 0)
(-0.001408784028 0.09778460966 0)
(-0.001271449792 0.09778475698 0)
(-0.001268611908 0.09791763295 0)
(-0.00140794006 0.09791727657 0)
(-0.002382126854 0.1010144202 0)
(-0.002429983653 0.1004627681 0)
(-0.002150063687 0.1004670906 0)
(-0.001861428367 0.1004788344 0)
(-0.001837064973 0.1007522771 0)
(-0.001813348007 0.1010214997 0)
(-0.002202275588 0.09912784239 0)
(-0.002480209428 0.09912048037 0)
(-0.002711462208 0.08122028287 0)
(-0.00284450278 0.08122161657 0)
(-0.0028465835 0.08109238041 0)
(-0.002714382991 0.08109110485 0)
(-0.00378745103 0.08123181319 0)
(-0.00378990544 0.0809734645 0)
(-0.003519671724 0.08097053104 0)
(-0.00351712153 0.08122885456 0)
(-0.003797219476 0.08019851392 0)
(-0.003527081834 0.08019558161 0)
(-0.003524624251 0.0804541945 0)
(-0.003794810219 0.08045710337 0)
(-0.001421517638 0.0967320373 0)
(-0.001403699879 0.09659850486 0)
(-0.001233431588 0.09656466938 0)
(-0.001297133373 0.09673219843 0)
(-0.001314775984 0.09581871344 0)
(-0.001438080689 0.09581983411 0)
(-0.002537782366 0.09570248417 0)
(-0.002265024903 0.09569947236 0)
(-0.002263155726 0.09582969595 0)
(-0.00226135121 0.09595953597 0)
(-0.002534369318 0.09596264701 0)
(-0.001575396325 0.09582143535 0)
(-0.00158432025 0.09569184899 0)
(-0.001557651278 0.09673344898 0)
(-0.001548762005 0.09660115041 0)
(-0.001407262705 0.09464547195 0)
(-0.001399347534 0.09476767172 0)
(-0.001544698062 0.09477830556 0)
(-0.001540795251 0.09464844504 0)
(-0.001592512293 0.09556179743 0)
(-0.002541101937 0.09544210402 0)
(-0.00226853768 0.09543880626 0)
(-0.002266861226 0.09556898413 0)
(-0.002508352304 0.09779376638 0)
(-0.002235024187 0.09779146596 0)
(-0.002229745184 0.09805798416 0)
(-0.002503058709 0.09806009944 0)
(-0.001546699376 0.09791828019 0)
(-0.001547746944 0.09778546199 0)
(-0.001523239169 0.09886192551 0)
(-0.001527095689 0.09872844009 0)
(-0.001429694866 0.09686421922 0)
(-0.001562624737 0.09686516964 0)
(-0.001547303365 0.0976529934 0)
(-0.001406514308 0.0976521816 0)
(-0.002512771772 0.0975296112 0)
(-0.002239414566 0.09752713267 0)
(-0.001268339661 0.09765149969 0)
(-0.001303650553 0.09686419227 0)
(-0.002586945123 0.09155730128 0)
(-0.002449627661 0.09155565198 0)
(-0.002448666771 0.09168485354 0)
(-0.002585561799 0.09168647375 0)
(-0.001522795193 0.09258029063 0)
(-0.001643452886 0.09258159571 0)
(-0.001649431005 0.0924526706 0)
(-0.001529239267 0.09245137112 0)
(-0.002588184913 0.09142807904 0)
(-0.002450735351 0.09142642815 0)
(-0.002562835884 0.09362658339 0)
(-0.002289735731 0.09362330322 0)
(-0.00228774349 0.09375297283 0)
(-0.002286025635 0.0938825977 0)
(-0.002559530738 0.09388576263 0)
(-0.001469406812 0.09361309001 0)
(-0.001462517144 0.09374250863 0)
(-0.001586975493 0.09374397947 0)
(-0.001593519008 0.09361458071 0)
(-0.001544915702 0.09451918533 0)
(-0.00141569981 0.09451741714 0)
(-0.001516410587 0.0927092589 0)
(-0.00163747121 0.09271061686 0)
(-0.001599895355 0.09348530006 0)
(-0.001476212798 0.09348383854 0)
(-0.002566112974 0.09336774012 0)
(-0.002293377611 0.09336448835 0)
(-0.002291480966 0.09349379879 0)
(-0.002634921452 0.08742269774 0)
(-0.002497425966 0.08742107032 0)
(-0.002495204116 0.08755025674 0)
(-0.002632898664 0.08755191057 0)
(-0.002636604045 0.08729340875 0)
(-0.002499615346 0.08729178742 0)
(-0.002612146873 0.08949105903 0)
(-0.002476492726 0.08948952579 0)
(-0.002474703205 0.08961871741 0)
(-0.002610522789 0.08962027665 0)
(-0.002613795263 0.08936181768 0)
(-0.002478266012 0.08936028594 0)
(-0.002685936103 0.08328753014 0)
(-0.002553162134 0.08328619965 0)
(-0.002552533079 0.08341557335 0)
(-0.002685030838 0.08341690053 0)
(-0.002685549761 0.0831580962 0)
(-0.002551141299 0.08315664998 0)
(-0.002654832472 0.08535435009 0)
(-0.002512269895 0.08535239757 0)
(-0.0025127526 0.08548180865 0)
(-0.002654213313 0.08548369989 0)
(-0.002656065922 0.08522505571 0)
(-0.002513277574 0.08522310048 0)
(-0.003799652175 0.07993997279 0)
(-0.003529610606 0.07993704163 0)
(-0.002579491986 0.0812190341 0)
(-0.002574811238 0.08134814294 0)
(-0.002708310271 0.08134950617 0)
(-0.0025838335 0.08108996922 0)
(-0.001308499707 0.09996906205 0)
(-0.001334733935 0.09969205781 0)
(-0.001046143383 0.09970307431 0)
(-0.001010550283 0.09998207765 0)
(-0.001235127598 0.09901246308 0)
(-0.00137482001 0.09900857915 0)
(-0.002793787116 0.08535609112 0)
(-0.002795147864 0.08522679827 0)
(-0.003745399051 0.08536696833 0)
(-0.003748144565 0.08510838291 0)
(-0.003476639321 0.08510531407 0)
(-0.00347384606 0.08536387489 0)
(-0.003756260149 0.08433269728 0)
(-0.00348497107 0.08432963104 0)
(-0.003482202115 0.08458816812 0)
(-0.003753563249 0.08459123524 0)
(-0.003734397018 0.08640097344 0)
(-0.003737164819 0.08614253242 0)
(-0.003465467717 0.08613943725 0)
(-0.003462651879 0.08639787769 0)
(-0.003471076816 0.08562243599 0)
(-0.003742677845 0.08562553001 0)
(-0.002792594497 0.085485386 0)
(-0.003777191833 0.08226597136 0)
(-0.003779766622 0.08200760009 0)
(-0.003509029099 0.08200461253 0)
(-0.003506334507 0.08226295834 0)
(-0.003514447783 0.08148746485 0)
(-0.003784921393 0.08149042522 0)
(-0.002842277374 0.08135089904 0)
(-0.002907341793 0.08742577757 0)
(-0.002910520501 0.0871671253 0)
(-0.002638568806 0.08716402707 0)
(-0.003723177088 0.08743512006 0)
(-0.00372601954 0.08717646375 0)
(-0.003454106562 0.08717334196 0)
(-0.003451216074 0.0874319977 0)
(-0.003459813466 0.08665619775 0)
(-0.003731606352 0.08665931809 0)
(-0.002118813688 0.08638329842 0)
(-0.00211319642 0.08651217982 0)
(-0.00224551164 0.0865135048 0)
(-0.002249570696 0.08638455664 0)
(-0.002096350379 0.0868989442 0)
(-0.002233113306 0.08690056282 0)
(-0.002237248839 0.08677144743 0)
(-0.002101952277 0.0867699425 0)
(-0.00264219512 0.0869053081 0)
(-0.002643987621 0.08677606848 0)
(-0.002508395921 0.08677453599 0)
(-0.002506219417 0.08690374698 0)
(-0.002820104382 0.08328897347 0)
(-0.002820721428 0.08315959962 0)
(-0.003766844063 0.08329950389 0)
(-0.00376934824 0.08304101166 0)
(-0.003498443742 0.08303792601 0)
(-0.003495843204 0.0832964411 0)
(-0.003503664798 0.08252123238 0)
(-0.003774618198 0.08252424655 0)
(-0.003758930723 0.08407435119 0)
(-0.003487713699 0.0840712858 0)
(-0.003493146304 0.08355497906 0)
(-0.003764219507 0.08355801869 0)
(-0.002818935493 0.08341829265 0)
(-0.002679185175 0.08380439758 0)
(-0.002544666517 0.08380292602 0)
(-0.00254163535 0.08393169435 0)
(-0.002677008771 0.0839332002 0)
(-0.00214382682 0.08379876017 0)
(-0.002136220937 0.08392720931 0)
(-0.002270888508 0.08392868266 0)
(-0.002276977588 0.08380011921 0)
(-0.002114714485 0.08431338923 0)
(-0.002253318751 0.08431510204 0)
(-0.002259131721 0.0841861269 0)
(-0.002121845484 0.08418447797 0)
(-0.002125606819 0.08224531762 0)
(-0.002116852666 0.08237396916 0)
(-0.002242791791 0.08237555387 0)
(-0.002250681573 0.08224686792 0)
(-0.002091183928 0.08275229202 0)
(-0.002234931475 0.0827627865 0)
(-0.00223131198 0.08263333775 0)
(-0.002099444573 0.08263052879 0)
(-0.002679635491 0.0827699054 0)
(-0.002679258849 0.08264066375 0)
(-0.002532529868 0.08263839695 0)
(-0.002534411592 0.08276772874 0)
(-0.002654191412 0.0858717233 0)
(-0.002518786767 0.08587021708 0)
(-0.002519267935 0.08599955608 0)
(-0.002653728949 0.08600102694 0)
(-0.002126224831 0.08586646294 0)
(-0.002130462556 0.08599603922 0)
(-0.002256639757 0.08599700222 0)
(-0.002252622712 0.08586745261 0)
(-0.002253307237 0.08625546048 0)
(-0.002124153497 0.0862543176 0)
(-0.002107583199 0.08444232452 0)
(-0.002247514811 0.08444412533 0)
(-0.002086155136 0.08482917799 0)
(-0.002230133927 0.08483121959 0)
(-0.002235906643 0.08470219592 0)
(-0.002093300834 0.08470024288 0)
(-0.002661856826 0.08483731779 0)
(-0.002664005086 0.08470805842 0)
(-0.00252372761 0.08470625345 0)
(-0.002520784921 0.08483545524 0)
(-0.002698488425 0.08173705155 0)
(-0.002560311685 0.08173534388 0)
(-0.002555443882 0.08186442645 0)
(-0.002695188152 0.08186622501 0)
(-0.002162232945 0.08173070673 0)
(-0.002153078646 0.08185947358 0)
(-0.002275893183 0.08186080456 0)
(-0.002284348838 0.0817320053 0)
(-0.002258995325 0.08211828314 0)
(-0.002134752276 0.08211688696 0)
(-0.002235122019 0.08070352244 0)
(-0.002341659664 0.08070223173 0)
(-0.002327264604 0.08057193289 0)
(-0.002244211451 0.08058515624 0)
(-0.00271597414 0.08070422931 0)
(-0.002711596821 0.08057467537 0)
(-0.002576645545 0.08057322263 0)
(-0.002585700571 0.08070312102 0)
(-0.001478879186 0.09517224077 0)
(-0.001370035401 0.09517333563 0)
(-0.001359752925 0.09530103198 0)
(-0.001476892325 0.0953018624 0)
(-0.001464050461 0.09504104792 0)
(-0.001379394905 0.09505408387 0)
(-0.001401347333 0.09832317253 0)
(-0.001264137919 0.09832292739 0)
(-0.001259762868 0.09845978453 0)
(-0.001397315382 0.09845966385 0)
(-0.0009827799933 0.09846257126 0)
(-0.0009914473268 0.09832754809 0)
(-0.000962571285 0.09888510395 0)
(-0.0009721388504 0.09874172945 0)
(-0.000999554695 0.09819274641 0)
(-0.0009000835977 0.09820849182 0)
(-0.001404589124 0.09818626815 0)
(-0.001266727596 0.09818671662 0)
(-0.001403081129 0.09620662067 0)
(-0.001275505687 0.09620487218 0)
(-0.001261254039 0.09633283313 0)
(-0.001393717576 0.09633600957 0)
(-0.001414581829 0.09607749765 0)
(-0.001289027286 0.09607589354 0)
(-0.001548925754 0.09620911706 0)
(-0.001557190422 0.09607961887 0)
(-0.001981542315 0.09621621089 0)
(-0.001984066615 0.09608604321 0)
(-0.001843831413 0.09608411864 0)
(-0.001840251749 0.09621415354 0)
(-0.001992308849 0.09569641299 0)
(-0.001856011011 0.09569487202 0)
(-0.001851958187 0.09582490123 0)
(-0.001989551571 0.09582657787 0)
(-0.001976377264 0.09673784167 0)
(-0.001977086328 0.09660760655 0)
(-0.001836771786 0.09660588762 0)
(-0.001837549564 0.09673673154 0)
(-0.001837621863 0.09634451213 0)
(-0.001979437852 0.09634662383 0)
(-0.001543075401 0.09633900458 0)
(-0.001600683619 0.09517267081 0)
(-0.001585593383 0.0950414508 0)
(-0.001998209179 0.09517636446 0)
(-0.001996820609 0.09504617381 0)
(-0.001857827246 0.09504445633 0)
(-0.001862352702 0.09517487684 0)
(-0.001992749334 0.09465593928 0)
(-0.001844745557 0.09465360912 0)
(-0.001846612481 0.09478337313 0)
(-0.00199304181 0.09478558829 0)
(-0.001994892141 0.09556593373 0)
(-0.001859715382 0.09556445427 0)
(-0.00186381016 0.09530473202 0)
(-0.001998257628 0.09530613066 0)
(-0.001603086822 0.09530258539 0)
(-0.00140638065 0.09725590965 0)
(-0.0015502843 0.09725820737 0)
(-0.001556143025 0.09712702278 0)
(-0.001416322308 0.09712538905 0)
(-0.001969714 0.09726201038 0)
(-0.001971829475 0.09713048056 0)
(-0.001834426392 0.09712895994 0)
(-0.001831822855 0.09726052474 0)
(-0.001837741287 0.09686736904 0)
(-0.001975256665 0.09686854028 0)
(-0.001261792688 0.09725298634 0)
(-0.001252728643 0.09738323882 0)
(-0.001400767626 0.09738683775 0)
(-0.001277699203 0.0971236448 0)
(-0.001549309813 0.09206474156 0)
(-0.001665052595 0.09206565129 0)
(-0.001663460923 0.09193577048 0)
(-0.001555805762 0.0919363031 0)
(-0.002042846063 0.09206879567 0)
(-0.002040350437 0.09193897606 0)
(-0.001908928987 0.09193763779 0)
(-0.001913561377 0.09206755513 0)
(-0.002021911492 0.09154996222 0)
(-0.001871656335 0.09154767709 0)
(-0.001883169876 0.0916774849 0)
(-0.002027744898 0.09167948561 0)
(-0.002035974084 0.09258554154 0)
(-0.002038586568 0.09245643187 0)
(-0.00190793793 0.09245515093 0)
(-0.001904348767 0.0925841768 0)
(-0.00191351904 0.09219708001 0)
(-0.002042635887 0.09219829451 0)
(-0.001542475581 0.09219394464 0)
(-0.001660953184 0.0921949593 0)
(-0.002024968022 0.09103288226 0)
(-0.002028505788 0.09090373567 0)
(-0.001879818449 0.09090151741 0)
(-0.00187503202 0.09103062499 0)
(-0.002039816857 0.0905170009 0)
(-0.001894939781 0.09051494851 0)
(-0.001889784148 0.09064359524 0)
(-0.002035962727 0.09064568728 0)
(-0.002019233226 0.0914205488 0)
(-0.001866831698 0.09141816582 0)