/*--------------------------------*- C++ -*----------------------------------*\
| =========                 |                                                 |
| \\      /  F ield         | OpenFOAM: The Open Source CFD Toolbox           |
|  \\    /   O peration     | Version:  v2012                                 |
|   \\  /    A nd           | Website:  www.openfoam.com                      |
|    \\/     M anipulation  |                                                 |
\*---------------------------------------------------------------------------*/
FoamFile
{
    version     2.0;
    format      ascii;
    class       volScalarField;
    location    "2.69";
    object      p;
}
// * * * * * * * * * * * * * * * * * * * * * * * * * * * * * * * * * * * * * //

dimensions      [0 2 -2 0 0 0 0];


internalField   nonuniform List<scalar> 
3019
(
-802.5266666
-1000.317548
-1064.890407
-1045.462153
-1002.393592
-946.0630479
-863.1051317
-817.1222264
-756.503567
-737.1065531
-724.0186639
-717.6425208
220.1952817
-432.5868415
-667.9485192
-758.9581062
-791.6748022
-788.9786645
-752.3321771
-730.3641196
-689.2773069
-678.2456018
-670.1856996
-666.3250514
184.4693399
-192.1772399
-417.3143599
-543.226123
-614.8467669
-648.7776629
-645.8308218
-644.2483422
-620.4212313
-616.7537742
-613.4655487
-611.9580298
135.7268034
-92.58938669
-270.6083938
-395.807009
-480.2176136
-532.2496132
-550.8035109
-563.3363149
-553.1439289
-555.4915482
-556.26417
-556.7286235
108.4304467
-46.01843268
-183.7005864
-295.4298277
-380.5440699
-438.5943081
-468.5755907
-489.8415566
-489.8385943
-496.6353631
-500.5459702
-502.4311149
89.65076543
-24.64878947
-134.11482
-230.0398575
-306.836874
-363.5293042
-398.7708337
-424.7614289
-431.7514573
-441.4962868
-447.5628173
-450.4118809
72.76494937
-17.87859869
-106.6587962
-186.125985
-252.2431475
-304.4751659
-340.7118571
-368.1716518
-379.3036201
-390.7233725
-398.0790955
-401.5689225
55.04633481
-17.60879962
-88.89353595
-154.2079773
-210.6674005
-257.2982368
-292.3028088
-319.2779766
-332.5102229
-344.6034592
-352.5678974
-356.3563292
42.19224066
-17.29025901
-75.67819729
-129.9686761
-178.1192959
-219.1705916
-251.6002658
-277.0850799
-291.0275228
-303.0763492
-311.1439411
-314.9923629
32.72917636
-16.7255972
-65.29153835
-110.8537021
-151.9721881
-187.8290018
-217.162118
-240.6131914
-254.3466412
-265.8849257
-273.7121546
-277.4533579
25.66343496
-15.94414042
-56.78048502
-95.30073031
-130.4790248
-161.6569267
-187.786038
-208.9746431
-221.9305783
-232.6796967
-240.0488106
-243.5751884
20.2614448
-14.99836441
-49.58153302
-82.31668549
-112.4564954
-139.4823775
-162.5084581
-181.4029387
-193.2620256
-203.0736145
-209.8573359
-213.1055334
16.06693892
-13.93517621
-43.34757093
-71.2519201
-97.08933736
-120.453601
-140.5740499
-157.2522721
-167.8580111
-176.6721495
-182.8075343
-185.7457446
12.78240496
-12.79144054
-37.85226291
-61.66326955
-83.79742744
-103.936066
-121.3842721
-135.9800852
-145.279572
-153.0935931
-158.5619059
-161.1800307
10.19332256
-11.59716905
-32.94068023
-53.23824453
-72.15834717
-89.45038787
-104.4645962
-117.134777
-125.133167
-131.9787015
-136.7892513
-139.0911154
8.135807396
-10.37673783
-28.50112049
-45.74653833
-61.85274355
-76.62274426
-89.42757802
-100.3322377
-107.0678701
-112.994875
-117.1732068
-119.1707158
6.48574589
-9.14918728
-24.4503277
-39.01368214
-52.63375095
-65.15704234
-75.95552193
-85.24692317
-90.77196329
-95.83844119
-99.41819289
-101.1272999
5.148364245
-7.928354312
-20.72262337
-32.90158144
-44.30259443
-54.8090786
-63.78293685
-71.5983336
-75.96785171
-80.23283413
-83.25043987
-84.68859779
4.050589653
-6.723697109
-17.26432636
-27.29834666
-36.6962967
-45.36276245
-52.68640634
-59.1424197
-62.40262061
-65.92382869
-68.41467755
-69.59850055
3.134338838
-5.541207662
-14.03012989
-22.11154716
-29.68381974
-36.66543327
-42.44991624
-47.65968268
-49.86397154
-52.69104346
-54.68782211
-55.63389738
2.352255018
-4.384009619
-10.97940701
-17.25990294
-23.15128203
-28.60927097
-32.88374693
-36.95190001
-38.09726537
-40.28498543
-41.81197438
-42.52834026
1.664365632
-3.253260274
-8.074798209
-12.66877066
-16.98628571
-21.00306804
-23.86920352
-26.82225009
-27.11710832
-28.66323669
-29.74600944
-30.25812001
1.036662783
-2.14834181
-5.280730903
-8.268298844
-11.08611803
-13.73092415
-15.24936766
-17.18147822
-16.15219679
-17.07972641
-17.71828667
-17.97223749
0.4467919992
-1.067666415
-2.562637485
-3.992821756
-5.355253381
-6.673730159
-6.817610414
-7.707866491
-7.453156868
-7.901230725
-8.204613293
-8.414134907
-858.1445592
-896.6460705
-1115.319773
307.88155
-810.8637381
170.5595382
-445.000245
-1007.2663
294.3922378
320.0934165
-1036.232695
-72.92796933
-149.4719393
-204.2913494
-516.3536209
-895.332128
-1206.457346
-496.1441154
-1256.025295
-1256.14195
-1281.054687
-403.8698756
197.1550455
-144.2023155
-331.201555
-943.5229768
-1194.835929
-1208.09438
-162.5960291
-410.4079011
-131.4897693
352.160745
-1455.77775
-1456.520613
359.7180068
123.2779838
-1219.508211
-1045.58559
-1055.347388
-1049.648806
-1222.726468
-830.9889616
-1001.055645
-596.3495004
-618.6458144
-781.5135482
-407.6647449
-565.4002948
-497.7052398
-1233.889439
-1410.063222
-1440.565159
-1233.717656
-1133.8612
-1192.078178
-1007.212697
-998.4073179
-835.612316
-1575.044698
-1563.193722
-1454.234657
-1443.605065
-833.4620207
-849.5726422
-672.5904842
-677.7828664
-775.7837674
-207.3891416
-354.9394124
-1579.383931
-1449.568124
-1526.412392
-1066.97305
-1063.61124
-1051.269364
-1165.797001
-870.1030466
-851.5713708
-836.3250579
-991.6954278
-934.7086049
-932.0470765
-601.5106544
-657.347213
-655.1306117
-476.5801348
-481.596316
-529.6620575
-1377.166788
-1379.29492
-1434.335709
-1246.471767
-1308.458784
-1317.646327
-1182.974853
-1141.008525
-1125.215454
-1075.319947
-1058.116016
-1004.153529
-529.2389164
-625.3148458
-862.1099446
-540.2398723
-719.1094821
-1059.342342
-753.0455784
-813.4844938
-1053.396915
-824.7087227
-841.7712753
-1014.520439
-841.6302886
-833.0168712
-961.1057825
256.6882499
7.043507846
-105.4140067
-232.5765172
-422.6008682
-628.2936305
-467.5596581
-566.1180829
-743.3825323
-590.1330977
-642.8731415
-787.1541063
-654.9897339
-677.9644733
-792.2229119
205.8009672
279.2395253
145.9886586
-51.66416604
-111.8739321
-110.5173599
-259.8765158
-372.9511718
-300.8207632
-400.5414675
-517.957379
-427.3934081
-492.8489321
-600.8678982
-510.1385495
-549.4982745
-643.1927205
154.3188784
187.7830867
114.0039028
-14.014121
-39.3156128
-54.697422
-167.421007
-231.4431683
-201.1720721
-290.6885756
-368.8397081
-316.7650777
-384.1290699
-462.3449766
-402.9327755
-448.2256555
-521.8041075
121.8698249
144.9473182
93.98393564
2.262623989
-8.401509558
-28.27950752
-116.2828499
-151.5981816
-143.9416681
-220.5881827
-269.9975557
-243.819953
-305.5098084
-361.8053546
-323.1709275
-367.9491337
-426.2679302
96.31738174
115.1260428
77.15666992
5.201597309
3.978455231
-18.67075082
-89.42217874
-107.7771064
-112.170864
-176.1587419
-207.6265447
-195.7580141
-248.7705951
-289.635398
-264.4762201
-305.8152101
-350.9416279
76.41595957
91.29008636
59.15450502
1.593687848
4.901500161
-17.64000818
-74.47695531
-85.09273333
-92.81596243
-145.0384165
-167.4218211
-161.3369854
-206.4054631
-237.0498177
-220.0872906
-257.0133113
-292.5422179
59.95087355
71.80841889
45.06450989
-1.787722483
0.5951760453
-17.39257571
-63.65787906
-71.47920193
-78.6670249
-121.8287358
-138.6290089
-135.4696163
-173.7539157
-197.47095
-185.5714753
-218.0311575
-246.475751
47.41116479
56.46800458
34.83535137
-3.963044605
-2.427142288
-16.88906445
-55.21470508
-61.36659462
-67.68362994
-103.7557153
-116.9074393
-115.2494274
-147.8386826
-166.7332811
-158.0157099
-186.3220143
-209.518435
37.90542057
44.78898304
27.25041744
-5.306039958
-4.365557184
-16.15699785
-48.29558071
-53.36535227
-58.7678598
-89.17602963
-99.83125596
-98.91651309
-126.7307455
-142.1699136
-135.4881144
-160.0668177
-179.3181311
30.5634371
35.89489977
21.48473808
-6.063128334
-5.542525193
-15.24744695
-42.41856112
-46.74235392
-51.27980972
-77.07104563
-85.94814612
-85.36163757
-109.1518888
-122.0446977
-116.6859721
-137.9699184
-154.205726
24.78539701
28.99052894
17.0200379
-6.399627772
-6.181670392
-14.20982976
-37.29635362
-41.07567991
-44.82945951
-66.78934329
-74.3495787
-73.86509257
-94.23837852
-105.2008438
-100.7170136
-119.1062701
-132.9910422
20.17810445
23.53613928
13.53100681
-6.426599763
-6.43179956
-13.0831778
-32.74771144
-36.11095666
-39.16617636
-57.89602395
-64.44947453
-63.94076028
-81.38679824
-90.85151495
-86.9508922
-102.7989046
-114.820945
16.46438246
19.17497438
10.78510589
-6.225646699
-6.395007538
-11.89904936
-28.65173109
-31.68511076
-34.12053297
-50.0896975
-55.85225339
-55.24911438
-70.1648727
-78.44271725
-74.93199928
-88.5444241
-99.06755979
13.43867997
15.65026966
8.607754272
-5.859423943
-6.147476781
-10.68319035
-24.92308853
-27.68788684
-29.57177417
-43.15169581
-48.28096012
-47.54241056
-60.25090948
-67.57445437
-64.31878565
-75.95628874
-85.26114402
10.9463908
12.77064188
6.865676957
-5.375991089
-5.747947296
-9.45590822
-21.49897018
-24.04051566
-25.43041852
-36.9178495
-41.532563
-40.63383003
-51.39855757
-57.94641701
-54.84815948
-64.7310717
-73.03841563
8.870489513
10.39233235
5.457680649
-4.811574204
-5.241287585
-8.232346608
-18.3308368
-20.68462554
-21.62735462
-31.26070623
-35.45389369
-34.37789681
-43.41355702
-49.3277505
-46.3115667
-54.62408479
-62.11345035
7.119240192
8.405391117
4.305942918
-4.19324346
-4.661151264
-7.022955434
-15.37867959
-17.57397098
-18.10620524
-26.07706303
-29.92400805
-28.65672618
-36.13708321
-41.53356538
-38.53749965
-45.42743219
-52.25172385
5.619323413
6.723258395
3.349128989
-3.541393962
-4.032753487
-5.834541002
-12.6086759
-14.67034158
-14.81995192
-21.28216322
-24.84492536
-23.37377908
-29.44035256
-34.41305834
-31.38757745
-36.9772469
-43.25374677
4.310064607
5.276267525
2.537476846
-2.871261351
-3.375070415
-4.670834578
-9.990334025
-11.94101674
-11.72694711
-16.80240227
-20.13539353
-18.44552674
-23.21381256
-27.84372733
-24.74554357
-29.1482913
-34.96877523
3.140097269
4.006401018
1.829472139
-2.194470033
-2.702303693
-3.533477323
-7.495467585
-9.356124277
-8.78923213
-12.57113939
-15.72381391
-13.79604215
-17.35420903
-21.71852903
-18.49886855
-21.79481172
-27.27392874
2.063631322
2.863872872
1.189516111
-1.519717975
-2.025308947
-2.422203341
-5.096923959
-6.887838704
-5.970713581
-8.525854839
-11.54473289
-9.354115653
-11.76429441
-15.93503553
-12.54154342
-14.78638334
-20.016916
1.04325738
1.804421904
0.5899290765
-0.8542629833
-1.352145206
-1.336705609
-2.769531932
-4.509333987
-3.237830809
-4.608775703
-7.536751555
-5.054217505
-6.355796487
-10.39849978
-6.777989807
-8.009151553
-13.0761107
0.09573861551
0.7948468789
-0.07167682871
-0.3788913503
-0.6881964051
-0.4454816688
-0.6453586349
-2.194388352
-0.7167699649
-0.9438591754
-3.64170448
-1.022418229
-1.263222199
-5.020871107
-1.345335892
-1.616687987
-6.335491193
-908.0031005
-901.4917735
-851.2685459
-911.2894529
-1002.33008
-991.9098511
-1457.139838
-1477.779587
-1059.305881
175.7239119
430.4552046
-786.8792368
-628.8049272
-688.3828676
45.89390024
-29.7432454
104.9327223
-646.71316
-482.7463519
-243.4793017
-929.0464658
-581.587654
-727.3695928
338.0702021
371.9374197
-1181.892751
-1200.212011
-960.0550308
-1283.293111
-1294.210153
-1554.887105
-1548.052015
-11.76970034
64.23884373
-1.706215992
-230.2014172
-178.329739
-92.66706556
-344.8968508
-554.7538828
-442.9902995
-633.2054199
-572.8523262
-443.4087746
-883.9877996
-712.4116528
-760.122279
-1206.105316
-1157.908246
-1157.691397
-367.3446675
-429.8760282
-420.5741526
-591.7586496
-579.1923791
-431.8260796
-1308.742355
-1308.252633
-1253.203148
-1281.314822
-1374.936171
-1405.377623
-1368.818153
-1371.361316
-1280.840536
-1462.090765
-1456.766114
-365.0446346
-270.2026681
-315.2244684
-261.544462
-309.7896448
-33.18562986
-162.2055332
74.10944998
66.05730947
254.5890629
-187.2018378
-71.96956262
-41.24629495
-188.9062125
-122.1493532
-246.6635261
-1026.087038
-1013.767067
-926.9673032
-1190.759015
-1101.692188
-1109.899566
-1087.833711
-1094.106592
-1186.709397
-232.51377
-138.3199938
-65.47162508
-328.3963284
-226.4041037
-315.7125647
55.78672181
-124.2316923
-235.1698488
364.9550873
480.0768684
451.9976096
-1508.583718
-1511.811801
-1454.972193
134.7594621
53.08050858
275.5418487
208.8879726
289.233454
63.65865672
134.1539797
197.275852
-1162.522814
-1159.251811
-1208.120841
-1047.908635
-1100.256969
-1090.266499
-1107.589419
-1104.446818
-1051.358438
-668.1630409
-657.936181
-608.8664649
-778.8756602
-704.9406074
-721.8194391
-459.9045718
-443.7683865
-388.1540719
-550.2745446
-495.8264517
-511.9081293
-1417.860875
-1368.663881
-1362.029153
-1197.067511
-1376.364582
-1448.231686
-1332.228367
-1356.910015
-1197.939662
-1002.721582
-951.7141866
-956.6194797
-939.0923042
-946.4572231
-999.0119343
-843.1977046
-893.2066659
-883.3646949
-1450.952989
-1499.975452
-1504.987221
-1492.143253
-1495.69276
-1449.365995
-1542.196157
-1538.973832
-159.1922802
-212.5618619
-257.5045758
-234.649752
-184.1163961
-333.2704594
-282.2353847
-303.5698113
-985.4758739
-952.8663917
-917.2385031
-885.821145
-858.1885003
-835.8567498
-710.0411111
-733.4113378
-821.471925
-826.9125535
-873.9714837
-1028.878145
-951.3592766
-962.0307205
-1063.289355
-968.4295508
-965.3231584
-1036.13245
-947.18582
-938.5651197
-989.4358256
-826.8301467
-824.3016657
-888.3645262
-807.8048578
-790.4116159
-838.9754321
-774.1089105
-761.3934849
-798.0235542
244.5901523
129.8421791
97.03601409
-348.0994911
-430.2457553
-514.2428225
-591.9290287
-626.9480806
-699.0868532
-698.0408221
-713.5332873
-770.8486149
-743.3433097
-748.4759941
-793.9433595
-681.3373315
-700.5872787
-761.4200377
-697.9337766
-692.819263
-741.3471334
-686.5904185
-680.8327931
-720.0383482
172.1340243
79.39410661
78.4386379
-159.1849127
-223.7472922
-261.7859193
-373.4909196
-411.5073777
-455.6448306
-500.7387116
-523.8207779
-565.2440024
-577.3194346
-590.4078025
-626.4264704
-558.7684595
-589.8602876
-643.1929494
-596.7008244
-600.8671173
-645.817017
-602.6609702
-602.9639113
-641.4467932
127.1522135
72.29452294
74.05897065
-77.66193054
-123.63586
-142.5163158
-244.2102
-278.7146716
-306.4324932
-366.9516322
-391.5735253
-420.2586902
-452.5837646
-468.9069567
-496.0660704
-460.0180619
-495.6762205
-540.7657386
-508.1126722
-518.0952152
-558.2510947
-525.2733192
-530.2489011
-566.2416918
103.3429619
67.26392554
68.79962985
-38.83496334
-73.00643863
-82.62149804
-168.5091697
-197.6446332
-214.1391643
-276.3153904
-299.5535347
-319.2119604
-359.8594799
-376.6464212
-397.4902045
-380.3406053
-416.5276518
-454.3200649
-432.1146258
-445.4508601
-480.5106276
-455.9001073
-463.886856
-496.5235106
85.36208877
58.92947209
61.17385999
-21.90580268
-48.57265239
-52.91520523
-125.6617552
-149.9999081
-159.587323
-217.5851334
-237.9252596
-251.2371612
-291.6780981
-307.2255447
-322.7562691
-317.6755239
-351.4323058
-382.2909657
-368.4023273
-383.1157133
-413.0496022
-395.165444
-404.7660407
-433.6971837
68.38081625
46.61049514
50.14270593
-17.68939649
-39.16039637
-40.6052911
-101.6523558
-121.5276369
-127.6263982
-177.2302929
-194.3269976
-203.9811655
-240.8142849
-254.6827289
-266.5464036
-267.826451
-298.518267
-323.6091058
-315.4338977
-330.1044965
-355.5507338
-342.5632272
-352.7497897
-378.1827764
51.46779729
34.02623663
36.66098918
-17.55360659
-34.78382336
-35.76510876
-85.24921238
-101.4603366
-105.9262316
-147.5506325
-161.9376644
-169.224649
-201.8052242
-213.9485778
-223.2336843
-227.7150888
-255.2357913
-275.8517375
-271.0897579
-285.0232932
-306.6740734
-297.1702692
-307.2665055
-329.5396528
39.54693519
25.33625462
27.26081749
-17.17225338
-31.32374975
-32.1324897
-72.8624625
-86.28159834
-89.72969469
-124.7828379
-136.9375
-142.6413043
-171.0620099
-181.6081573
-189.0489872
-194.8842776
-219.2196266
-236.4218622
-233.6798771
-246.5641696
-265.0556268
-257.9783605
-267.5808728
-287.046144
30.77149686
18.98002464
20.392528
-16.54860089
-28.34413318
-29.05675005
-63.01485725
-74.25166889
-77.0276184
-106.6778664
-116.9923037
-121.5960752
-146.2165532
-155.3416471
-161.4355264
-167.576142
-188.9423691
-203.4472732
-201.9092212
-213.5865968
-229.4685177
-224.0495297
-232.9363529
-249.9620988
24.17889535
14.26620843
15.32021814
-15.72107947
-25.65417257
-26.30554129
-54.87411273
-64.36214468
-66.67223794
-91.84390087
-100.62997
-104.4434829
-125.684942
-133.5659053
-138.6551702
-144.5196564
-163.1930754
-175.5641345
-174.6880256
-185.1244667
-198.8556544
-194.5528059
-202.6203039
-217.5474244
19.11274935
10.71842359
11.51490669
-14.74199388
-23.16198861
-23.76955938
-47.94299264
-55.998961
-57.97062256
-79.39069177
-86.89487058
-90.1212466
-108.3916738
-115.1891328
-119.5108649
-124.7947781
-141.0616146
-151.7227005
-151.1655054
-160.3952175
-172.3466774
-168.7840798
-176.0034679
-189.1329107
15.17016339
8.031503926
8.635186313
-13.65552437
-20.81983615
-21.39301282
-41.91153199
-48.77318572
-50.48884816
-68.73041964
-75.14787481
-77.92510493
-93.59052375
-99.44434479
-103.1670902
-107.7197144
-121.850574
-131.1278519
-130.6695223
-138.7624594
-149.2363207
-146.1508973
-152.5377311
-164.1332553
12.07708681
5.995064786
6.452357387
-12.49656792
-18.60097932
-19.1450979
-36.57461071
-42.42448382
-43.94033422
-59.45808487
-64.94431644
-67.36951763
-80.74661399
-85.77608627
-89.02282733
-92.78246668
-105.0212595
-113.1665773
-112.6680521
-119.7094649
-128.9502454
-126.1586604
-131.7528604
-142.0407227
9.634567649
4.453678759
4.799663553
-11.29368352
-16.49001316
-17.00822129
-31.79020232
-36.77116124
-38.12723327
-51.28545462
-55.96550773
-58.10952215
-69.4676085
-73.77353162
-76.63661239
-79.58630916
-90.14909427
-97.36340069
-96.73311874
-102.81152
-111.0224246
-108.3911576
-113.2443906
-122.4221732
7.689237882
3.288812602
3.550031898
-10.06989968
-14.47747032
-14.97174991
-27.45480078
-31.68003732
-32.90600546
-43.9981229
-47.97310793
-49.8894156
-59.45457677
-63.12150435
-65.67226094
-67.81787656
-76.89243304
-83.33734624
-82.51460448
-87.71501769
-95.0647709
-92.49548439
-96.66303015
-104.9012154
6.125245679
2.410874468
2.607503571
-8.842909104
-12.55660171
-13.02857409
-23.49037557
-27.05038428
-28.16920752
-37.43221247
-40.78417932
-42.51461669
-50.47460185
-53.57304202
-55.86837967
-57.22313555
-64.97204523
-70.78051597
-69.7226492
-74.12270216
-80.75391297
-78.17010772
-81.70579248
-89.15385785
4.853916764
1.751510361
1.898985293
-7.625357002
-10.72094657
-11.17225962
-19.83459469
-22.80193508
-23.83217346
-31.45682094
-34.2521826
-35.83062133
-42.33849527
-44.9262376
-47.01323959
-47.581264
-54.15925
-59.43890364
-58.11375142
-61.77984332
-67.81529651
-65.15370473
-68.10820483
-74.89637967
3.806524692
1.257595469
1.368045085
-6.425834323
-8.963930551
-9.396204208
-16.43642176
-18.86933848
-19.82606877
-25.96592484
-28.25841479
-29.71210606
-34.89207197
-37.01554458
-38.93183791
-38.72784839
-44.29268623
-49.12034014
-47.47481074
-50.46364346
-56.01208351
-53.21553169
-55.63227325
-61.88362525
2.927902233
0.8866087306
0.969834272
-5.249466644
-7.27817056
-7.693353889
-13.25176634
-15.19667652
-16.09326733
-20.87024535
-22.70344697
-24.05598119
-28.01008649
-29.70938094
-31.48555445
-30.54131017
-35.14273621
-39.64358628
-37.5932044
-39.97183846
-45.13119996
-42.15198134
-44.08368118
-49.88118852
2.17288528
0.6039141158
0.6679815127
-4.098841624
-5.655621966
-6.05578442
-10.24098325
-11.73405114
-12.58256041
-16.09052448
-17.49886974
-18.77173882
-21.579823
-22.88873006
-24.55530237
-22.83706726
-26.4708132
-30.74418989
-28.31673125
-30.12500959
-34.9827725
-31.74673742
-33.20060306
-38.73365064
1.502972612
0.3803894793
0.4321528164
-2.974658336
-4.087566314
-4.474985635
-7.367266638
-8.4354152
-9.247126501
-11.55340258
-12.56226326
-13.77558065
-15.49023149
-16.43124335
-18.01744825
-15.49573256
-18.24544036
-22.31195078
-19.52387205
-20.7804874
-25.40161495
-21.90231103
-22.8787141
-28.08333851
0.8858707777
0.1917820082
0.2367670139
-1.876064845
-2.564678947
-2.941618264
-4.59556693
-5.257193258
-6.042704918
-7.190335381
-7.81695843
-8.989272754
-9.641298419
-10.23007445
-11.76182768
-8.40039845
-10.32926225
-14.2413599
-11.07355683
-11.79384305
-16.24101459
-12.42827422
-13.08544206
-17.96094257
0.2994388429
0.01537910765
0.06516529273
-0.8114632648
-1.086561002
-1.446259852
-1.898076404
-2.163264139
-2.926616212
-2.942568857
-3.196964541
-4.33970349
-3.944567288
-4.189052238
-5.685594161
-1.71397996
-3.095710015
-6.32563714
-3.367940051
-3.623830725
-7.278624644
-3.925200213
-4.299677833
-8.08190659
-1227.01964
-1217.993822
-1100.082582
259.4625053
355.6664339
389.5977736
-803.8741962
-757.8801834
-760.399265
-987.0086476
-880.3768631
-908.60184
-1446.364348
-1444.844106
-257.1717151
-329.1010419
-280.6780132
-1256.024144
-1306.691367
-1307.360138
40.01731907
-12.10764746
-1161.570916
-1158.242229
-1209.423075
-62.2547538
-119.1004919
-190.0736916
128.6406236
80.68872245
-1170.289304
-1281.390822
-1307.109015
-1230.862266
-1255.783901
-1156.028063
-1108.756604
-1182.847703
-1206.483043
-1136.877023
-1159.694952
-1092.202965
-1040.544216
-1091.921869
-1114.331134
-1046.943561
-1069.493029
-1022.562615
-563.3636571
-647.0671231
-618.5518151
-701.6505457
-675.1145931
-595.3423181
-841.3722857
-757.2401586
-781.286811
-616.1363285
-735.7279312
-671.7769811
-821.4963001
-786.1009471
-675.2063116
-1048.806558
-911.0066581
-935.0687224
-778.8804292
-866.6969483
-847.5222358
-889.2327657
-880.1442652
-798.5325407
-1059.110858
-968.6147872
-970.0118354
-832.7610915
-899.1398576
-895.223586
-896.4056563
-898.5789054
-838.1949309
-1025.774431
-960.6653771
-954.6404553
-840.2843678
-888.6374493
-893.149045
-875.0283923
-882.5433126
-837.3486657
-975.6634015
-928.7718409
-917.8577347
163.7984388
150.5818232
254.4025871
-10.71622929
27.92299044
-62.79677944
-307.0655432
-362.1841881
-283.0809675
-480.5859804
-427.1492039
-369.7750881
-578.5828342
-496.0207104
-548.7434474
-505.6469432
-562.4361297
-525.2438502
-619.808874
-593.5791194
-538.1741276
-723.7652092
-655.5126854
-678.9709801
-610.6437894
-660.1319501
-641.7737107
-687.8663861
-675.3878867
-628.1395788
-780.1565926
-725.9806742
-735.8256794
-664.7486493
-705.4149959
-697.7689504
-714.5403622
-710.9888265
-672.3702313
-793.5267912
-751.5354539
-752.6470307
228.4423225
251.2028429
76.44617947
78.16740594
158.6963615
-67.12036092
3.685338581
11.4155132
-21.11022169
-6.789392878
-86.77309928
-164.9060296
-191.6834592
-132.3387489
-292.6751473
-245.0572122
-214.6626712
-321.6068978
-280.5169564
-330.102155
-337.6525522
-372.4743407
-334.9814943
-435.5824725
-405.8142786
-370.7490593
-488.9309852
-444.9831531
-474.5933108
-451.581885
-486.0174964
-462.2118232
-526.0029504
-507.226618
-473.3586485
-584.3862134
-544.1559389
-561.9478074
-525.3039823
-556.7166655
-542.4626178
-578.9425397
-568.82181
-538.3767523
-635.8263677
-601.3023726
-610.1639573
164.6115291
175.2973576
70.24524994
71.57695642
120.2070466
-20.83113055
25.63205547
28.29919499
17.18667526
21.69889814
-29.19196493
-94.05109607
-107.6183436
-65.14140281
-185.7471142
-147.8778867
-131.6977127
-188.8052704
-166.7608511
-206.9280273
-232.9402338
-254.3435177
-221.2209234
-313.9420549
-285.2145891
-262.760472
-339.1192809
-310.5992054
-339.9932688
-341.0292008
-365.1738986
-340.5778183
-408.31432
-387.7463212
-363.4900345
-442.3941117
-413.9856807
-434.2973519
-419.8588703
-443.621374
-426.9257562
-471.3443628
-458.3646909
-434.890347
-509.8833501
-483.2609512
-495.78141
128.9686054
136.5827682
63.35233433
65.4044388
98.50171607
-0.3840442312
32.72670932
33.0120298
30.39454807
31.89531013
-3.887040631
-58.32772142
-64.96959688
-32.96993166
-126.2800743
-96.12331011
-87.70760061
-117.8795284
-106.1085527
-137.9739428
-170.5912957
-183.2060492
-155.3355061
-235.1716716
-209.833496
-196.1602541
-242.9027228
-225.3409535
-251.5721985
-265.7887621
-281.816452
-259.178964
-322.7085699
-303.0281156
-286.3842645
-341.345304
-321.2634474
-341.3959713
-339.4246342
-357.3389871
-340.7957842
-386.1159591
-372.4041318
-354.322715
-412.6686162
-391.8215924
-405.514913
102.296167
108.6146264
53.49166331
56.57024057
81.17001939
5.511347654
30.88810487
29.71644526
32.76011837
31.91602499
5.034722651
-42.53750737
-45.1557049
-19.94289811
-94.50779983
-70.05514898
-66.16981026
-80.67196513
-74.8420057
-100.5762442
-134.284335
-141.6492432
-118.4070463
-185.6660763
-164.1127796
-155.6462799
-184.1145501
-173.5061178
-196.0773853
-214.4056191
-225.6872149
-206.2097721
-261.3756601
-244.0767001
-232.0802661
-271.1115048
-257.0505112
-274.9617449
-279.2077996
-292.7394085
-277.5910511
-319.9483313
-306.8401668
-292.9808027
-337.4291862
-321.6318598
-334.9441926
81.48718031
86.36653639
39.6560572
43.05590477
63.83348036
2.71951521
23.1320636
20.92013811
27.82181851
25.50208665
3.929067069
-36.80746835
-37.92559304
-17.65026073
-77.71764248
-57.97681206
-55.78011326
-63.03928297
-60.37164153
-81.23637792
-110.7286706
-115.9125605
-97.05517074
-151.9325273
-134.2240046
-128.1540673
-147.9048661
-140.7873753
-159.3711553
-177.014566
-185.3614927
-168.9907054
-215.9390176
-201.0171279
-192.043887
-220.9610568
-210.6332362
-226.1314859
-233.0838738
-243.5487916
-230.1171804
-268.1948534
-256.2355024
-245.3957525
-279.9686141
-267.7434543
-279.9969677
63.68171255
67.62677562
29.35088484
31.60794975
48.16425409
-1.077574745
15.47844895
13.9651989
18.91886522
17.11975164
-0.2888119402
-32.97460725
-33.85608546
-17.4804043
-66.09415999
-50.07676074
-48.40924684
-53.74545042
-51.85038088
-68.6939028
-93.39194942
-97.29291151
-81.84955358
-127.0658657
-112.3787471
-107.7917036
-122.5212109
-117.276653
-132.6530185
-148.6859989
-155.1055622
-141.318179
-181.1906438
-168.4029617
-161.4538787
-183.6522837
-175.7881147
-189.0819964
-196.8956579
-205.1831429
-193.4541887
-227.024638
-216.3707321
-207.7199984
-235.1662828
-225.5082937
-236.472817
50.2204093
53.23209655
21.91633043
23.56048661
37.10278221
-3.509406422
10.13389976
9.06536464
12.57348418
11.29953049
-2.999466796
-29.78916694
-30.54387248
-17.03826257
-57.15762012
-43.92399463
-42.57034678
-46.83496113
-45.34285257
-59.20423326
-79.94809325
-83.0273677
-70.20283503
-107.8955709
-95.60100214
-91.98065068
-103.4841624
-99.42828106
-112.2714885
-126.4403177
-131.546254
-119.8850316
-153.8048165
-142.8586639
-137.3089757
-154.9024355
-148.7137331
-160.0933757
-167.8286297
-174.5444802
-164.3706551
-193.6907751
-184.3168118
-177.2689621
-199.5137103
-191.7239437
-201.3950394
40.0498343
42.33987966
16.45237569
17.66964187
28.94941209
-5.033347253
6.363199871
5.607782808
8.085358463
7.186870016
-4.72107251
-26.97013552
-27.64918273
-16.35878383
-49.91305071
-38.83838746
-37.68725003
-41.27524989
-40.03293292
-51.60070883
-69.08448743
-71.60768015
-60.84332441
-92.55689611
-82.1853095
-79.22642773
-88.54861338
-85.28836297
-96.10376064
-108.432219
-112.6100543
-102.7041353
-131.6354917
-122.2586344
-117.7081737
-132.0401264
-127.0299558
-136.7756498
-143.969848
-149.5262792
-140.7283408
-166.2097332
-158.0197461
-152.1675167
-170.5502305
-164.1423347
-172.6039683
32.23308304
34.00748554
12.36869588
13.28411735
22.78832136
-5.918565006
3.695037832
3.159815876
4.914689104
4.278668913
-5.745808589
-24.38697754
-25.01490004
-15.48858017
-43.80810426
-34.45876561
-33.44800792
-36.57574887
-35.50058648
-45.24812156
-60.01782075
-62.14615199
-53.04226688
-79.90540714
-71.10507808
-68.61908951
-76.40017951
-73.69622889
-82.86153812
-93.47944467
-96.97877235
-88.53408627
-113.2682513
-105.2273075
-101.4131233
-113.3624294
-109.2067075
-117.5619623
-124.0063596
-128.6871426
-121.0913695
-143.1705317
-136.0468237
-131.1053879
-146.5639237
-141.1967559
-148.5637175
26.10740014
27.5072903
9.282084449
9.975348591
18.03379335
-6.348238517
1.809338655
1.434387682
2.66924785
2.220068914
-6.276121718
-21.97417442
-22.56368959
-14.47895539
-38.51732498
-30.58037428
-29.67353007
-32.4659617
-31.51066692
-39.77623521
-52.2624451
-54.09775702
-46.36017003
-69.21537001
-61.71947718
-59.58549009
-66.23050798
-63.93265914
-71.73334678
-80.80424002
-83.79178278
-76.57585002
-97.7533446
-90.85393751
-87.59815186
-97.7526796
-94.23600112
-101.4045385
-107.0264948
-111.0309428
-104.4816922
-123.5690338
-117.3934453
-113.1601554
-126.3557414
-121.7897393
-128.1810466
21.23687719
22.35481682
6.942586668
7.468186951
14.325969
-6.444028893
0.5000597411
0.2449121284
1.09271515
0.7819916862
-6.446163121
-19.69611506
-20.25431933
-13.37137808
-33.83855561
-27.08035697
-26.25450842
-28.78873198
-27.92472244
-34.95900647
-45.50187078
-47.11197706
-40.51861302
-60.00757724
-53.61078994
-51.74747999
-57.52568436
-55.53551304
-62.19050306
-69.87523575
-72.46652427
-66.29512371
-84.43257427
-78.51468661
-75.69279457
-84.46095099
-81.43530033
-87.58521555
-92.37882408
-95.85080186
-90.21350298
-106.674736
-101.3379369
-97.66492915
-109.0776912
-105.1405196
-110.6680443
17.3212791
18.22378432
5.170685817
5.568526436
11.41220395
-6.293555122
-0.3773502883
-0.5424576267
0.01477404886
-0.1921099838
-6.350324917
-17.53269444
-18.06356531
-12.19897245
-29.63842838
-23.87995499
-23.1200565
-25.44643355
-24.65517551
-30.64913585
-39.520136
-40.95184846
-35.3312957
-51.95245267
-46.49413977
-44.84497722
-49.94250587
-48.19238837
-53.8722234
-60.31825324
-62.59525765
-57.32126077
-72.83671067
-67.76892546
-65.29192222
-72.96475005
-70.32504616
-75.5943791
-79.58816807
-82.63303565
-77.79324526
-91.94579839
-87.3505733
-84.12862981
-94.11291402
-90.6776021
-95.44155144
14.13980772
14.87622992
3.83036738
4.131096926
9.106703456
-5.963618823
-0.9306468288
-1.028444501
-0.6888437992
-0.817830112
-6.059877696
-15.47191344
-15.97794651
-10.98892133
-25.82453056
-20.92598533
-20.22128377
-22.37482728
-21.64365768
-26.74581832
-34.16228323
-35.45008479
-30.6676786
-44.81449014
-40.16716559
-38.69031184
-43.24233532
-41.68380739
-46.52342669
-51.85858595
-53.88290248
-49.38777631
-62.62127596
-58.29553792
-56.09614175
-62.88990798
-60.55898463
-65.06121257
-68.29557298