/*--------------------------------*- C++ -*----------------------------------*\
| =========                 |                                                 |
| \\      /  F ield         | OpenFOAM: The Open Source CFD Toolbox           |
|  \\    /   O peration     | Version:  v2012                                 |
|   \\  /    A nd           | Website:  www.openfoam.com                      |
|    \\/     M anipulation  |                                                 |
\*---------------------------------------------------------------------------*/
FoamFile
{
    version     2.0;
    format      ascii;
    class       volScalarField;
    location    "2.2";
    object      omega;
}
// * * * * * * * * * * * * * * * * * * * * * * * * * * * * * * * * * * * * * //

dimensions      [0 0 -1 0 0 0 0];


internalField   nonuniform List<scalar> 
3019
(
31.93055246
31.93138037
31.93228191
31.93312602
31.96660534
31.96710685
31.96745923
31.96811717
31.96944331
31.97190809
31.97590318
31.98111396
31.79345766
31.79588346
31.7985259
31.80097189
31.83510407
31.83684353
31.83871605
31.85745067
31.86354338
31.87495306
31.89356654
31.91810954
31.6577834
31.66218066
31.66681134
31.67069949
31.70536395
31.70857423
31.71279197
31.73524112
31.75011695
31.77740033
31.82294849
31.88142796
31.52392793
31.52969489
31.53587474
31.54118426
31.57675359
31.5821909
31.59094812
31.62124553
31.6525787
31.71542987
31.81689164
31.94374955
31.39180807
31.3994521
31.40740186
31.41417386
31.45056134
31.45894198
31.47421214
31.51712838
31.58467149
31.71991388
31.96017824
32.27740797
31.2613257
31.27032638
31.27974279
31.28819638
31.32697017
31.34035322
31.36699929
31.4303688
31.55638368
31.84580431
32.46460225
33.57442157
31.13294253
31.14359272
31.15497386
31.16553194
31.20613011
31.22630031
31.26956593
31.36444215
31.57702552
32.16436858
33.72314977
38.67628239
31.00647518
31.01856636
31.0316769
31.04465538
31.08912633
31.11802622
31.18239106
31.31402431
31.64398185
32.63716376
35.77775812
51.39185087
30.88284801
30.89684898
30.91261592
30.92901197
30.97701161
31.01650476
31.10527516
31.27556612
31.74042256
33.12974155
37.46601369
60.84512001
30.76208803
30.77772126
30.79579681
30.81581187
30.87023292
30.92158265
31.03645641
31.24522408
31.84158921
33.53828772
38.51219664
67.93916482
30.64584731
30.66362272
30.68491701
30.70987132
30.76868547
30.83295694
30.97414012
31.22294217
31.94674504
33.89515777
39.41939745
76.92286674
30.53284266
30.55233336
30.57632312
30.60637381
30.67166741
30.74984615
30.91644875
31.20806438
32.05277318
34.23613813
40.47673167
87.96846573
60.23181805
66.87671338
75.76641002
86.62087086
49.38826756
38.28898717
57.39002265
53.51314251
39.21552914
63.89140282
58.0907644
71.30146552
207.3382945
182.6212049
40.25760962
71.56928075
64.76471534
80.65270168
313.8703791
244.6523642
72.57527805
90.24402881
501.2387946
392.8797849
141.4804312
171.4589979
90.88111876
136.3941114
179.5642664
159.3418912
63.695319
210.9594537
228.362846
177.1068782
207.5568188
241.0999648
211.4031591
72.41658868
274.6543892
321.7658208
230.6538055
271.2210789
388.2418212
317.4688517
82.00079686
393.1287635
501.2173584
324.8791767
388.7769641
511.5632347
90.65143393
706.0632891
506.8267411
688.5654084
37.13152808
52.99902601
46.23684688
56.44990341
112.5410929
79.81382112
63.0835844
156.8939958
136.2119254
132.7871644
115.4379104
57.60803921
1274.868383
193.7275726
461.9685637
55.88658402
83.77455945
432.2905102
159.7077853
167.8327513
1091.933651
1274.585286
152.9900037
782.3422602
608.5505009
1262.726602
785.0298638
156.541905
113.3717112
325.2638576
158.6422415
528.6467723
353.2883301
120.7733176
487.2657006
775.0789035
213.8560907
1454.159105
214.4772856
190.5048858
1372.46374
1286.307086
1444.257818
1383.369285
194.6312349
296.1155118
299.1623183
247.9240729
250.427868
426.0248296
433.2697381
355.832049
360.2257429
170.7594432
547.6763739
552.7817537
93.59193903
178.1414384
285.8233606
127.4572012
132.5410498
121.1988537
125.8389657
279.8748773
150.2410354
157.3076628
427.2402093
227.5616926
115.462651
119.7339803
684.7345651
669.2112589
311.7303242
348.594837
141.8346256
148.0713101
134.308668
139.869965
343.9074904
406.21398
1022.309355
1010.5794
1654.942815
1603.45049
478.5268414
336.8205657
725.397154
687.3642179
1005.449726
996.6620735
376.3584543
523.7596413
1691.745661
1663.030539
1703.034745
599.5195647
1345.849935
1279.875509
299.2478088
325.304693
1208.316179
1225.143021
762.8056627
261.8367012
285.2874486
235.1997335
255.1479694
754.2297164
843.3528137
327.3851482
361.117001
293.6353268
318.7465794
848.7250393
462.9422605
211.5101454
229.4925784
682.4881542
716.2846279
1506.107213
478.7195869
544.9594546
451.4969014
467.2628594
1464.258612
599.1670829
612.4699458
567.077991
594.4281234
1341.33905
393.4442924
408.3450802
369.871403
388.2398863
1328.720168
1418.796477
432.3176196
446.1918097
413.2307385
427.560128
1413.058423
948.5453195
955.6436794
918.6003775
946.247728
971.8561582
987.1610646
958.1450632
968.5958654
633.3945079
646.1199222
616.6477808
629.0156122
691.5621626
872.64421
652.1701496
667.0762559
1038.463632
1029.2345
410.9511341
1681.248495
1687.101668
1643.597092
1670.188503
1737.042944
466.8465768
1564.568529
1096.290702
961.8839947
747.4990615
341.2118288
1041.347842
1534.13922
988.3108025
1051.877001
1602.251197
1629.792304
1555.92552
1590.642772
372.3194226
993.8297841
981.8260658
1729.858988
1697.468041
529.0474003
582.3002539
1801.746203
1733.196005
195.9455802
105.1724417
108.8677078
100.4970234
103.9785176
192.4646696
110.1409839
114.1017527
223.5099003
283.9985388
629.6812166
601.6456516
578.694173
510.3726934
261.3572711
1304.16515
1139.401048
1526.644811
1256.524051
774.5920259
521.4694657
529.6738786
1223.132323
741.7036901
784.0376443
535.034095
546.9001398
801.0898244
186.0656081
206.3440456
435.4583068
555.8149326
1004.076187
716.3395581
1189.13711
1238.566883
777.4860136
1822.147416
1308.764239
1363.513536
886.8536024
889.704117
1459.607617
1479.027913
1494.138042
1397.496702
1421.021482
1360.09963
830.5830339
835.7024522
802.375336
809.3154248
1302.377935
1436.583445
874.2382883
878.9636099
841.1636797
846.6574675
1393.578205
647.4504169
634.5069289
287.0407444
308.6543158
664.9443092
651.6255099
477.6466801
464.5670408
240.3138359
1537.10653
1539.86129
1500.419523
1506.044081
1912.713267
1548.604727
1549.865341
258.5108857
498.6353481
482.9065141
1020.212586
701.156447
705.1061568
1639.225819
1033.51831
1038.038831
1004.823135
1026.540273
1627.091111
1682.798755
1698.607413
1680.733832
1045.021721
1049.108698
1040.110711
1043.109339
1673.662675
1617.052009
1660.709379
1127.976097
1553.056069
2152.679336
1303.740047
1639.763153
474.8472629
653.9938004
1030.418445
1140.579589
683.0932573
1003.383546
1322.29027
1180.736614
1248.039666
595.947263
669.7311799
1175.434767
800.7101739
551.7673995
575.9248947
1119.404093
1081.303498
640.6679021
1094.807264
1430.311461
721.5242527
1178.557458
1160.398753
951.2359011
943.6491958
1426.908031
1471.668392
902.534597
899.5357654
1457.688898
1470.695238
1434.514184
1447.698533
822.1119278
826.6869216
1354.143705
1315.592752
813.6700887
817.7970549
862.6779038
867.622193
1426.114394
1404.759169
852.4693425
857.6148009
951.0629601
1533.803569
1522.815446
1549.227278
1542.006256
953.2198942
936.8539964
1486.147458
1467.845301
1512.586335
1500.399745
943.0538697
977.444405
1597.509105
1586.836101
1613.286627
1602.912321
980.2139898
961.1431124
1563.373585
1556.990282
1580.409596
1570.618711
964.1416451
1525.106
1529.438452
637.4930572
930.8038179
927.7763095
938.1244515
935.6413642
642.3397702
1513.432216
1518.454954
1596.112821
1510.60193
712.956379
996.9392178
1006.643775
1431.659431
1377.128884
792.0133594
654.8119007
945.9468547
944.6080194
954.1993836
957.8253139
665.2580868
1561.724505
1554.384335
1042.716099
726.2345318
728.1644069
711.9545332
714.6832941
1029.995175
1681.744359
1696.394945
1649.697097
1667.289881
1639.335125
2086.397568
1498.139754
863.3093924
953.5321261
755.1510182
778.2992855
1085.083725
1437.161142
1997.127883
1574.192107
1496.901347
1000.783928
1628.163267
1614.079831
1665.85804
1620.360759
996.9262429
1610.186597
1622.593867
1568.92812
1581.322292
1714.388606
1059.101935
1067.399267
1051.26455
1057.130563
1710.417094
1752.901238
1081.626764
1140.30477
1069.165192
1084.533398
1756.202729
31.76519485
31.77360864
31.86141109
31.77723707
31.79317553
31.87108689
31.79953277
31.82602279
31.8875999
31.83586903
31.8717409
31.91093557
31.88236988
31.64887531
31.66675534
31.74558703
31.67491154
31.71026642
31.7694367
31.72605629
31.78658458
31.81019458
31.81014793
31.88769567
31.86648085
31.9115873
31.54240584
31.57978101
31.64261934
31.5981419
31.67655922
31.69620227
31.71117878
31.84638787
31.78911511
31.90202176
32.08427706
31.91123871
32.12751562
31.45005481
31.52303287
31.56221109
31.55817097
31.71946576
31.67897801
31.79841133
32.13973798
31.88959125
32.28670461
32.86816707
32.18067071
33.00699011
31.37908039
31.50331974
31.51488917
31.56793393
31.89660268
31.74893982
32.06650039
32.89166029
32.26921955
33.31445667
35.54586214
33.18136693
36.42665572
31.3262583
31.51908222
31.50451155
31.62844146
32.20275109
31.95907677
32.5198808
34.22734756
33.17403233
35.24967256
44.80350696
36.54413354
41.9411438
48.2333751
40.46902444
31.28437124
31.55716803
31.52366104
31.71553499
32.54860298
32.2812284
33.01401135
35.57411274
34.59493709
36.2871921
38.23925388
37.53138675
53.30239251
60.34855406
57.63448164
31.25203195
31.61006563
31.56986068
31.81549042
32.86776226
32.63310654
33.44233612
36.49038533
35.83657313
37.7705963
40.26935476
39.87065886
61.61404963
72.89034782
71.68242209
31.22753601
31.67023803
31.62491916
31.91865736
33.15202568
32.94192477
33.8078879
37.19897029
36.67108448
38.75444736
41.59459657
41.25897627
69.03535824
90.81028199
88.14074008
31.20975298
31.73518856
31.68781088
32.02381523
33.42152162
33.22148368
34.15084354
37.91034834
37.35954287
39.70787418
43.08447
42.60398052
78.11444391
107.0884434
103.6398492
31.75497807
33.48818127
38.08986798
40.86612065
46.21875242
44.30357743
90.33407604
130.2232879
125.0942045
70.74995103
69.5631801
59.43063689
87.21728737
84.16562971
65.83707434
102.5451274
99.36280778
74.63517995
123.5006083
118.9299184
84.89588562
74.86323682
51.76356847
43.60339068
41.62939227
50.94004851
40.95251304
40.61441427
38.03251324
55.54165412
43.73244142
44.35171175
42.83796994
43.53069919
55.03723826
42.28112157
41.89977775
38.96174015
61.2679109
45.49153484
46.34147957
44.55872735
45.24718752
60.41746246
94.44782591
91.69616267
70.17240213
203.2970056
157.0719433
159.5877493
143.4707477
145.5884787
185.7960366
44.07798651
43.412316
39.91470434
68.42818505
48.08658345
49.36379696
46.64838475
47.71364227
67.48635061
112.04487
108.2804079
79.34483736
302.9924892
204.0270855
207.3563191
184.1069534
187.7008583
251.3205354
49.76588669
51.03168676
76.38681452
137.6385379
131.9800369
90.88496929
462.6514346
277.7898422
273.7140071
245.2418924
250.4873913
407.080375
145.6736513
203.3299655
186.0246259
277.6959155
258.5697716
165.1911253
97.63516894
114.5910755
104.2091081
175.3049771
167.9171849
132.2074712
171.0510397
96.17423843
99.37608615
92.68343831
95.22141267
168.2053863
64.81661692
82.85268765
76.16456317
217.0288359
362.9585543
349.9937271
442.9201714
429.9020551
221.5935125
182.1203376
297.1914265
283.2029954
345.9224021
334.0769379
202.9106752
236.0357175
178.3124284
181.4555794
162.1444257
164.7411988
215.4133366
73.52431894
98.35058217
95.39494448
277.8432461
342.1711307
337.3824281
397.6460345
393.2987658
318.1998013
237.9050928
460.0948893
447.232274
331.9469334
326.3350659
267.8261502
372.788591
235.7979569
240.6101454
210.847153
214.4867763
328.3354373
83.46651899
117.4791504
113.3528833
397.3823263
512.3415095
507.7075506
692.0829384
685.011334
494.9569441
328.5263639
406.4024205
401.5891172
502.6040365
497.9603842
384.6063335
274.3946955
139.6141968
716.6236522
1075.999661
1067.881884
512.5203186
703.1482171
697.6257946
1044.753259
990.5247068
661.4498281
39.41638341
38.87318604
36.73655514
50.92512658
41.56124818
42.58020625
39.62045293
41.16857364
50.01476531
65.08526076
62.8715543
54.99096308
101.3452613
72.4634002
77.02521176
66.13603075
70.76281227
96.22286935
75.69678914
73.78308763
62.1667325
148.8515224
87.81113947
91.69334097
84.40059228
86.85644949
146.2615095
125.263023
81.59796699
83.7509313
78.08512449
80.91275114
122.9818491
58.63505517
68.36585477
66.83818138
226.8607425
283.6886085
228.9593023
716.8516155
612.9516085
407.4046276
62.146208
84.69905054
64.26512377
76.31840051
60.15804962
133.4405454
84.82191329
68.4708129
265.8246794
273.718459
452.5148542
162.4159425
205.2273045
200.8114777
213.5803266
208.5020121
164.9923164
224.7554574
208.4810901
149.4163849
401.8779974
437.0815163
686.1999165
160.4492646
251.6488671
230.6641377
138.6936648
126.8969454
105.699908
247.812997
166.3475217
179.8730246
126.7699403
138.9314511
221.3963512
504.9774727
358.7566859
375.409755
275.1606313
288.3582011
375.8324616
126.406663
159.3695435
149.7761803
397.3917279
369.1062622
218.3614539
219.5271625
425.4162563
407.1255146
313.9667841
301.4858606
186.3169677
198.9199844
330.113107
318.0470228
365.8153616
361.9922808
293.0554922
302.2974872
373.5382099
369.6444284
298.4189123
295.1889015
245.3175077
253.1079907
305.0119763
301.7040865
545.8419163
540.0793448
420.631343
442.5306843
574.7957692
558.7706241
459.2863527
448.7204813
351.3402914
364.3521621
473.7265626
467.472438
217.9447916
738.1628901
729.9236712
540.5617141
561.5320243
754.9971187
741.699642
112.8488007
126.9316267
197.6535428
200.8145243
299.1787254
129.1181902
157.5129841
155.1875489
162.2501515
159.8633079
130.8109292
122.7250169
148.5345992
146.3395028
152.8813405
150.6153807
124.2565693
253.8860044
190.2992415
194.3098513
152.5431756
190.6394944
187.2589017
197.6004885
193.8114436
154.8190695
411.7981704
255.2264915
261.3264717
172.72626
175.598805
232.0196259
116.8622576
140.3527554
138.4016429
144.3524986
142.2890497
118.275417
678.3321248
504.1733294
509.6928771
494.9964639
500.004769
674.4763621
315.0697273
389.4281479
385.2845661
226.4847354
231.1278276
366.5515631
143.8546304
178.1266552
175.2090888
184.1996201
181.0838244
145.9179631
136.1182234
167.1983098
164.6936081
172.4418283
169.7808505
137.9716802
332.0581556
218.2796674
222.2510302
522.2697959
517.8259668
401.915325
690.7481751
695.2776784
1013.459378
487.7705726
675.5048026
659.6211772
417.9208788
411.1848333
332.093925
700.0107571
525.8344742
537.8996934
513.6032396
520.5731275
698.2174518
1002.730687
680.9098732
685.4956245
671.4826298
676.0404582
998.9077958
380.4166529
493.1226174
488.5153463
713.951636
708.1886363
517.8659007
626.9411916
897.7351874
810.4138185
412.8938216
324.328213
249.3972206
299.5959549
386.0515246
379.917189
555.8607436
452.4101644
501.1056791
512.8211384
770.2252645
269.2611302
359.8277212
348.0929523
380.4021421
370.1519697
276.6970259
241.7033687
308.3640444
293.9282962
335.9479788
322.8061059
248.277383
732.929022
466.2361849
486.67523
338.1618526
456.2742874
432.0428815
507.3842176
484.9432999
350.1796846
302.3201213
398.1854841
388.7528522
417.9266058
405.0877568
310.0852307
332.9703457
343.0418868
471.8238632
217.7610467
261.5355404
252.4201187
281.7292111
270.8791396
222.7787298
492.4381799
672.1503597
650.8814521
827.1138492
749.3287045
516.223114
455.6012644
613.8789469
610.7529268
626.6749117
624.5481336
462.1735928
603.685438
904.9358849
901.7544504
911.9018336
907.8865697
608.0438994
580.5963201
889.3430246
871.0642582
899.1803178
895.7137371
588.6938508
398.5054782
553.1880897
548.0028465
563.2609177
558.1578281
403.4444616
376.8376021
530.4636737
521.5328851
542.6848912
537.0176597
382.7913928
436.8758007
593.8155592
589.0606579
603.9562335
599.5617632
441.7988402
418.0528703
573.6435381
568.4910347
583.9111602
578.9260244
422.8664665
620.7191246
917.5393638
914.8277013
923.9109165
920.944355
624.910073
415.3631888
532.5017362
528.2803591
634.0604106
601.1857856
453.9264602
913.6104596
608.5084762
632.3823285
552.7440375
577.7189631
828.8128661
347.4834628
436.9191879
426.3158329
483.785264
479.0002275
368.358036
991.6921087
661.7378802
666.7031726
646.9643532
655.5912253
988.2535894
535.4035906
725.4327096
718.8630734
786.5051875
757.8841944
568.3341038
152.2917453
154.6464164
199.5292367
106.3839518
125.8850508
124.2353755
129.2969406
127.5723383
107.6146822
101.6386585
119.4962221
117.9883531
122.6201911
121.0389454
102.8009791
189.0804482
147.7633578
149.999145
111.4396604
132.8474189
131.0552832
136.5262342
134.6624194
112.7562122
219.3776765
167.3454088
170.0472533
350.487552
346.5145716
281.0131871
623.8167036
449.0071139
454.2287976
434.7512283
442.7772561
615.4998552
549.0072644
412.8547658
424.3696303
394.4893497
402.6190072
524.5773053
264.5110293
320.9816114
316.2372587
193.6572451
222.0217947
210.4515035
243.0508716
232.7325362
199.5100099
414.05969
305.6441569
318.2538337
643.2231772
468.0671933
472.5522644
458.9983838
463.5851032
638.9768001
290.0191401
358.1758149
354.3756719
381.4040629
377.3930883
305.3769812
660.2081048
485.9068363
490.6339698
476.9646513
481.5015303
655.9441992
473.5428505
366.6618726
370.5269086
358.8063805
362.6548323
468.8118499
242.8598642
291.9796507
288.7999073
312.11067
308.4757824
255.6951122
493.5076677
383.2913119
388.0068954
374.7083315
378.6421672
486.8013767
31.90180341
31.90226655
31.96727581
31.90289129
31.90409085
31.96755139
31.90484029
31.90648027
31.96867983
31.90884404
31.91210272
31.97049708
31.91644059
31.92198161
31.97371396
31.92874596
31.93636781
31.97845822
31.94445082
31.95241718
31.98351009
31.77087044
31.77152445
31.83604945
31.77249881
31.77373506
31.83767463
31.77531359
31.76358815
31.85651957
31.82629921
31.82777173
31.85847682
31.8339962
31.83694576
31.86551493
31.84844114
31.85359236
31.8783973
31.87187749
31.87941565
31.89853621
31.90270029
31.91111801
31.92346992
31.64191986
31.64319567
31.70700997
31.64523573
31.64795265
31.71041882
31.65135724
31.64497116
31.73296109
31.70592942
31.7093807
31.73817145
31.72392863
31.73072608
31.75581492
31.75741942
31.76958992
31.78733102
31.81273973
31.83027077
31.83713345
31.88444242
31.90048833
31.89602396
31.51427954
31.51655912
31.57920892
31.52005854
31.52507775
31.58604647
31.53173931
31.53421574
31.61614425
31.59448568
31.60146045
31.62720188
31.63214996
31.64708091
31.66476699
31.70845234
31.73672465
31.73691487
31.83287653
31.87212086
31.84671718
31.98275405
32.02766511
31.96835714
31.38955713
31.39337673
31.45426761
31.3992317
31.40761185
31.46542775
31.41948186
31.43549462
31.50744525
31.49342431
31.50727132
31.52903805
31.57298745
31.60387342
31.61118453
31.73731069
31.79887085
31.76893932
32.04127591
32.1412079
32.03242648
32.42725892
32.56002893
32.32336992
31.26745348
31.27351709
31.33265033
31.28304222
31.29686162
31.35119596
31.31718889
31.35290535
31.41312203
31.41207927
31.43819726
31.45277998
31.55761796
31.61726511
31.60716613
31.90670369
32.05246605
31.96439799
32.69093321
32.99170092
32.68730281
34.12932557
34.72037566
33.78748011
31.14845051
31.15743497
31.21440129
31.17173021
31.1930563
31.24367406
31.22488968
31.2860576
31.33464212
31.35102525
31.39208126
31.40150986
31.59250018
31.70422354
31.67338117
32.27359774
32.58366932
32.42302437
34.19366722
35.12660469
34.42732087
31.03393461
31.0468291
31.10068524
31.0671747
31.09769743
31.14378163
31.14318703
31.23104148
31.27076888
31.30409875
31.36140648
31.36668362
31.66986734
31.84588112
31.80253964
32.77197168
33.29558347
33.10834207
30.92429892
30.94194535
30.99250861
30.96940268
31.01047158
31.05216912
31.07090664
31.18533897
31.21891004
31.2672243
31.34279555
31.34642469
31.76507321
32.0027547
31.96339666
33.23877967
33.92907584
33.78521411
30.81965438
30.84307429
30.89004063
30.87840562
30.93080642
30.96812396
31.00650319
31.14664669
31.17501598
31.23893356
31.33434039
31.33565706
31.86709153
32.15916388
32.12081568
33.63081712
34.42917738
34.31231669
30.72018633
30.75003325
30.79331076
30.79376245
30.85781389
30.89071583
30.94860455
31.11358334
31.13810207
31.21765419
31.33438994
31.33395497
31.97009455
32.31037249
32.27553638
33.97921121
34.86579735
34.75850608
30.70172914
30.81869004
31.10766527
31.20196545
31.34012542
31.34013946
32.07654103
32.46302566
32.42714983
34.32440303
35.3034443
35.1900411
54.07493427
50.87841186
47.33308248
44.04413582
46.7439515
56.723502
50.90990196
51.32822726
48.67866729
49.06335233
54.04190179
63.0193733
55.05445869
55.7150512
51.76566933
52.23666149
58.82820413
70.42870825
60.75993465
61.57566802
56.38958511
57.09294833
65.65591267
310.2931046
260.6683271
263.2750997
62.36375456
63.24278992
73.91921752
488.7255243
383.7159611
389.5459888
319.2814844
322.9558629
397.5641958
176.6248688
139.398001
141.4100955
127.8481063
129.7703718
162.5131518
273.2216616
270.1175062
226.0222851
233.0687639
279.4067543
276.3057726
383.4563046
312.0474626
315.664244
265.8455187
268.6161228
321.0592863
395.3247526
400.7093521
519.4714577
100.7291196
52.38629655
47.8271975
48.28220099
43.6410341
44.50505468
47.65333946
109.3479541
94.19460538
96.49752885
73.98848175
78.02822975
84.9906386
154.0733317
124.2584314
126.0838221
111.5081502
113.4888287
139.7829741
130.005436
108.1998371
109.7763521
98.51180451
100.3956531
118.1247606
93.95771888
85.70736146
78.02980261
350.5007012
355.1380964
438.353911
301.5128288
244.7245847
258.4552416
148.1998999
161.7261433
177.9206862
243.7556465
237.1252921
213.8631152
215.7741689
253.3469848
249.006113
204.0883334
169.415354
153.6857977
249.023186
250.025975
290.7837219
272.5406359
249.0716032
248.5691737
421.7569766
342.1558701
346.5819975
289.2719507
292.8989641
354.0411497
339.7451597
282.8425057
286.0431132
31.7675674
31.79743658
31.7954606
31.80231076
31.79951166
31.77016387
31.85998891
31.82947487
31.83160323
31.78197462
31.80906454
31.80520227
31.8181492
31.81297269
31.78686708
31.86843398
31.84019683
31.8441638
31.80765792
31.82994106
31.82326239
31.84466014
31.83635496
31.81576117
31.88332027
31.85899518
31.8653831
31.8481568
31.86225605
31.85246747
31.88219421
31.87107285
31.85935872
31.90529658
31.88677637
31.89502041
31.89544864
31.90141084
31.89129188
31.90934755
31.90597406
31.93028552
31.91842519
31.6538193
31.68121687
31.67699724
31.69204639
31.68609591
31.65968058
31.74142799
31.71337795
31.71836149
31.6847815
31.70693385
31.69880718
31.72745354
31.71619065
31.69637272
31.76189072
31.73819314
31.74732379
31.74412302
31.75511588
31.74013437
31.78872877
31.77124087
31.76326557
31.79766482
31.78267246
31.79798689
31.83512585
31.83052105
31.80862283
31.87364808
31.85155627
31.86065046
31.85028676
31.8487782
31.86763841
31.9339318
31.91140818
31.89352998
31.9269396
31.9500295
31.90729716
31.91286008
31.55244264
31.5766242
31.56823432
31.59885133
31.586582
31.56470048
31.63421272
31.60979814
31.61989089
31.62006654
31.63226911
31.61392638
31.67813595
31.65371168
31.64559481
31.67913905
31.66482846
31.68549065
31.74969735
31.74015989
31.7080818
31.81530515
31.77527911
31.79513049
31.76258762
31.76583371
31.79756801
31.96347759
31.90419029
31.85919443
31.9979095
31.95018481
32.02738711
31.8774459
31.91174248
31.94870905
32.20367075
32.0905177
32.05115049
32.14848544
32.25125124
31.99829227
32.05116044
31.46932862
31.48737782
31.47100256
31.53353727
31.50797482
31.49348656
31.54381029
31.52471315
31.54658521
31.60243047
31.60109466
31.56405484
31.6981634
31.64540778
31.65412397
31.64187782
31.64233332
31.68583488
31.89421107
31.84092698
31.7638603
32.03155047
31.92929512
32.0089728
31.82544099
31.87102694
31.95241876
32.45656336
32.27277899
32.14846073
32.53092098
32.39244656
32.66565242
32.10313476
32.25378743
32.3578539
33.27097323
32.80652601
32.72035051
32.95005798
33.41274589
32.4110061
32.62259574
31.41229775
31.42429722
31.39481017
31.50530116
31.46089955
31.4528394
31.48089759
31.47017862
31.50885382
31.65290285
31.63069685
31.56125834
31.83654026
31.72125633
31.7610435
31.66943728
31.69407872
31.78955392
32.28357034
32.15680264
31.97984652
32.64152776
32.37395998
32.55563222
32.10390516
32.22940121
32.44093897
33.84937163
33.37140134
32.97003124
34.37019662
33.80624775
34.59272139
32.90765448
33.38203799
33.80888902
37.97234584
35.88707702
35.24659486
36.77953441
40.24350568
34.11278419
35.10365111
31.37533409
31.38282875
31.33791762
31.51140851
31.43868088
31.43690802
31.44677047
31.44243848
31.50722701
31.7719944
31.73367711
31.60713259
32.111404
31.89823901
31.95915076
31.7976349
31.84884647
32.03495695
32.93614142
32.74692567
32.38708824
33.84842568
33.22101874
33.48814652
32.75298849
32.98566541
33.50462843
36.77227554
35.89381413
34.70989817
40.41515992
37.50601541
39.16857886
35.28426224
36.52901405
38.51920874
44.95423852
43.90134392
45.55014192
31.35045567
31.35521199
31.29370849
31.54536639
31.43610544
31.43806879
31.43467551
31.43580872
31.53599272
31.92321172
31.88304557
31.69128956
32.46183867
32.13375044
32.1943399
32.00992215
32.0759609
32.37691821
33.63050874
33.46551428
32.89320957
35.27754502
34.23334913
34.45582518
33.73946525
33.99813671
34.95460797
31.33732616
31.33990194
31.2594026
31.59641487
31.4487638
31.4532609
31.4411431
31.44453813
31.58269123
32.08129677
32.04271039
31.7905825
32.79267604
32.36933045
32.4244781
32.25402665
32.31177106
32.71375506
34.19135177
34.0643116
33.34344697
36.28865785
35.01646757
35.17682386
34.65904582
34.84575792
36.07657416
31.3335784
31.33357524
31.23310339
31.65569776
31.4715112
31.47771189
31.45883419
31.46464744
31.63963773
32.23537844
32.19872092
31.89399123
33.08456473
32.58770823
32.6385396
32.47989983
32.53351249
33.01351879
34.65086157
34.54125902
33.72110167
37.0197904
35.60809792
35.74613263
35.3257363
35.47149643
36.85468814
89.93256445
80.30130849
81.02908193
78.89915464
79.61450478
89.02919374
31.3373061
31.33662461
31.21491942
31.72161217
31.50285323
31.50894335
31.48613059
31.49204789
31.70149953
32.38729936
32.35239522
32.00046639
33.35595911
32.79595991
32.84482502
32.6924121
32.74097012
33.28636708
35.08166409
34.97264167
34.06593148
37.71044791
36.1468107
36.28973703
35.87749199
36.01538181
37.54572722
105.9109949
92.62589574
93.54672205
90.88608465
91.77065969
104.7709794
31.51973439
31.52569069
31.76794934
32.89702293
32.94774374
33.55677631
36.42704856
36.57923375
38.30645298
128.4260274
109.7673313
111.224933
107.2361234
108.4904461
126.7564249
101.4605928
89.21186938
90.06207799
87.60122256
88.4176075
100.4066735
121.9231973
104.8370775
106.0762894
102.5540067
103.7016688
120.4108906
62.11862864
56.55313168
59.98970058
49.07700517
51.54490234
56.81198889
45.32111934
47.91373327
45.27373951
44.36377569
45.24856493
43.1007731
53.31626236
49.60779961
46.90922348
51.04586595
57.19642067
50.14511531
50.52186487
56.10552518
47.23660419
46.94735093
44.14016663
54.50817825
49.42011087
49.78554172
53.82277539
54.42689965
62.15040368
45.76001303
49.27556954
48.88805364
50.13470156
49.69657316
46.03516565
44.78061387
47.84521394
47.53521965
48.5176843
48.17402993
45.00357217
59.60220006
52.73045905
53.26291966
93.50784484
83.14027869
83.88640278
81.71621937
82.44936957
92.59538502
59.25086669
60.00961003
69.43874694
48.48978458
53.24682286
52.69004602
54.42227818
53.82662968
48.89842792
46.98503308
51.09257279
50.60784385
52.13680609
51.61142719
47.33133365
66.55515517
57.80212577
58.52766026
110.7583772
96.32581746
97.33051349
94.43645041
95.39465416
109.5099871
255.8595998
258.2465375
306.6649824
50.28024643
55.66670886
55.033684
56.95922537
56.30664663
50.61941864
74.91425153
64.09947433
65.02719217
135.7308625
114.7707609
116.00159
112.3838064
113.8902967
133.8874331
370.8649239
378.358922
474.8387444
305.6919544
297.2754596
273.6976727
402.2084276
326.6267409
330.5373138
197.7524989
178.5982151
180.650608
175.9230978
177.1479217
192.1346632
271.6271741
221.3903948
225.9907932
211.231868
216.7568436
265.4141917
135.4709841
137.4241013
173.8037507
97.22044211
113.6973943
112.3450552
116.5203608
115.0895392
98.28346796
93.84184013
108.5338006
107.2203094
111.0396166
109.7773325
94.38766784
164.8062253
131.5803905
133.5194709
358.3191743
288.0122796
291.9176943
281.5455069
284.7656851
353.8998471
438.5905699
335.9451514
339.7101424
328.4671245
332.2021727
434.2635828
223.8127202
267.0084035
263.8427076
292.7894072
236.7025798
240.0657404
229.6932537
233.3390701
288.171748
342.002181
275.227755
278.5555543
268.925429
272.1505549
338.019761
97.34613127
86.06387303
86.84091901
84.5851388
85.34241755
96.36712572
285.6491453
282.5129525
235.4232016
455.8283085
351.0905495
354.9081045
343.4875238
347.266371
451.4858402
304.5761548
308.3232615
378.3757705
324.6925899
271.2799048
274.1749355
116.0692422
100.3774397
101.4826344
98.30438958
99.35328887
114.6988594
275.8679245
319.0071373
312.810482
117.415033
46.75339485
47.33335877
51.72602684
48.92090615
45.34819928
46.1050618
88.78866467
91.67993297
105.578823
74.22699257
79.98633926
77.43388239
84.1481097
82.07815007
75.59508736
74.7708862
71.40470867
68.35100194
90.53918825
82.00302211
85.58098653
120.4900114
122.5372772
151.5171806
89.00858224
102.8940359
101.1870568
105.9176602
104.457589
90.30078607
85.17332359
96.66694563
95.51754554
99.4518031
97.9616447
85.91716273
143.1761867
115.8752775
118.2847688
105.1790437
106.708816
127.5942086
82.37167403
92.34927391
91.21540236
94.45315603
93.38003852
83.00678433
79.19257709
87.45934854
85.82175383
90.10230815
88.78275279
80.0146668
120.6018692
102.0607464
103.6860878
68.26220808
73.47597045
70.12679005
66.52084138
70.38137828
110.5394361
98.67057017
107.5264418
78.55775117
84.8617722
96.85475866
72.52906257
78.09847567
71.64252556
444.4797109
359.5889149
365.371968
219.0314226
187.3407756
190.3955126
182.5177978
185.0125498
213.826174
244.4469771
201.0525692
206.0623508
193.311469
197.1457196
237.3457757
209.7294987
226.8314057
275.2844641
199.0813925
186.1421977
171.8182565
198.4995093
177.1466811
191.2410817
386.5558353
303.3297694
307.7237355
295.2495723
300.290071
376.9442051
260.5838104
257.1345469
217.5377377
420.518382
320.8793142
324.7197581
312.4151162
316.8231765
414.6924502
309.8466717