/*--------------------------------*- C++ -*----------------------------------*\
| =========                 |                                                 |
| \\      /  F ield         | OpenFOAM: The Open Source CFD Toolbox           |
|  \\    /   O peration     | Version:  v2012                                 |
|   \\  /    A nd           | Website:  www.openfoam.com                      |
|    \\/     M anipulation  |                                                 |
\*---------------------------------------------------------------------------*/
FoamFile
{
    version     2.0;
    format      ascii;
    class       pointVectorField;
    location    "1.48";
    object      pointDisplacement;
}
// * * * * * * * * * * * * * * * * * * * * * * * * * * * * * * * * * * * * * //

dimensions      [0 1 0 0 0 0 0];


internalField   nonuniform List<vector> 
6426
(
(0 0 0)
(0 0 0)
(0 0 0)
(0 0 0)
(0 0 0)
(0 0 0)
(0 0 0)
(0 0 0)
(0 0 0)
(0 0 0)
(-0.0008382104562 -0.09630012135 0)
(-0.0008517818967 -0.09657647084 0)
(-0.0008634954112 -0.09685291991 0)
(-0.0002917116635 -0.09686117403 0)
(-0.0002655551939 -0.09630881095 0)
(0.008469761939 -0.09649030013 0)
(0.008423050866 -0.09759599685 0)
(0.008375883483 -0.09870137205 0)
(0.01072311458 -0.09875612431 0)
(0.01081449315 -0.09654390378 0)
(0.009642563385 -0.09651721645 0)
(0.01711542034 -0.09236805459 3.433503482e-13)
(0.01680971223 -0.09313659901 3.384653668e-13)
(0.01794012995 -0.087585953 3.182037966e-13)
(0.01842286465 -0.08768788332 3.258365799e-13)
(0.01859815744 -0.06517084483 2.421673972e-13)
(0.01792579271 -0.06432640082 2.337158245e-13)
(0.01663530235 -0.05480947446 1.992017662e-13)
(0.01733849389 -0.05579913126 2.074174166e-13)
(0.01055863998 -0.02726064761 1.015298956e-13)
(0.009922857593 -0.02621489577 9.545142454e-14)
(0.007260851569 -0.01799557846 6.557254739e-14)
(0.007820797427 -0.01894408992 7.061018437e-14)
(0.001112649747 -0.002276515941 8.493206138e-15)
(0.0009044898068 -0.001893562644 6.911138328e-15)
(7.171745514e-05 -0.0001428834851 5.273559367e-16)
(0.0001370199864 -0.0002667792692 9.992007222e-16)
(0 0 0)
(0 0 0)
(0 0 0)
(0 0 0)
(0 0 0)
(0 0 0)
(0 0 0)
(0 0 0)
(0 0 0)
(0 0 0)
(0 0 0)
(0 0 0)
(0 0 0)
(0 0 0)
(-0.001411596743 -0.1050672874 0)
(-0.001425923608 -0.1056223821 0)
(-0.001440264282 -0.1061779927 0)
(-0.0002580207391 -0.1062085082 0)
(-0.0002293517172 -0.105097803 0)
(0.008046320638 -0.1053114109 0)
(0.00798899591 -0.1075323055 0)
(0.01031817682 -0.1071808986 3.580469254e-13)
(0.01040344335 -0.1052889119 3.591432707e-13)
(0.01591617494 -0.09517907828 3.241851232e-13)
(0.01551638217 -0.09508632525 3.172601071e-13)
(0.01630518724 -0.08775110709 2.92738056e-13)
(0.01678505052 -0.08823363974 3.004679838e-13)
(0.01560197973 -0.05991376605 2.040867475e-13)
(0.0149704257 -0.05875695584 1.960653861e-13)
(0.01335257866 -0.04803599504 1.603439603e-13)
(0.01426636564 -0.05025689749 1.712519015e-13)
(0.007489453851 -0.02112355698 7.209510766e-14)
(0.006527309817 -0.01879415325 6.283862319e-14)
(0.004436206773 -0.01198394901 4.009292898e-14)
(0.005054954982 -0.01337345287 4.567179968e-14)
(0.0001862270776 -0.0004164091835 1.415534356e-15)
(8.411774053e-05 -0.0001921076762 6.383782392e-16)
(0 0 0)
(0 0 0)
(0 0 0)
(0 0 0)
(0 0 0)
(0 0 0)
(0 0 0)
(0 0 0)
(0 0 0)
(0 0 0)
(0 0 0)
(0 0 0)
(0 0 0)
(0 0 0)
(0 0 0)
(0 0 0)
(-0.00164092059 -0.1139518977 0)
(-0.001698258634 -0.1161733081 0)
(0.0006662228668 -0.1162343391 0)
(0.0007235609105 -0.1140129286 0)
(0.007758674956 -0.1131761821 3.562289352e-13)
(0.007602766436 -0.1135802318 3.506916979e-13)
(0.009644162872 -0.1101484645 3.399364124e-13)
(0.009899244556 -0.1106389851 3.48068796e-13)
(0.01420538224 -0.09272277783 2.91433544e-13)
(0.01359206748 -0.09042693016 2.788325126e-13)
(0.01390792144 -0.08108761288 2.500222251e-13)
(0.01462661298 -0.08369474985 2.630395901e-13)
(0.01238646883 -0.0515883844 1.622174617e-13)
(0.01150853752 -0.04882290232 1.506295089e-13)
(0.009770945239 -0.03799010188 1.172534292e-13)
(0.01063257395 -0.04058451316 1.276756478e-13)
(0.004177944253 -0.01276427339 4.021782907e-14)
(0.00358984028 -0.01117528517 3.454181385e-14)
(0.00183712021 -0.005367313653 1.659783422e-14)
(0.002495332163 -0.007155381521 2.255140519e-14)
(0 0 0)
(0 0 0)
(0 0 0)
(0 0 0)
(0 0 0)
(0 0 0)
(0 0 0)
(0 0 0)
(0 0 0)
(0 0 0)
(0 0 0)
(0 0 0)
(0 0 0)
(0 0 0)
(0 0 0)
(0 0 0)
(0 0 0)
(0 0 0)
(-0.001737810437 -0.1179362241 3.450850716e-13)
(-0.001642679034 -0.1144598441 3.289452044e-13)
(0.0005342944375 -0.1126060072 3.23477356e-13)
(0.0005430344898 -0.1164995723 3.407274463e-13)
(0.006747303568 -0.1065746742 3.112926583e-13)
(0.006323395973 -0.1011161842 2.901290319e-13)
(0.007795830038 -0.09507129935 2.727124082e-13)
(0.008387243809 -0.1009725767 2.94833602e-13)
(0.0110393496 -0.07719095288 2.252781295e-13)
(0.0099724645 -0.07072138826 2.027822354e-13)
(0.0098244678 -0.0610777793 1.751376821e-13)
(0.01100423008 -0.06742884516 1.967870311e-13)
(0.008192360832 -0.03656681722 1.067756994e-13)
(0.006944167781 -0.03148417048 9.033052084e-14)
(0.005426010399 -0.02256969578 6.478151349e-14)
(0.006588807415 -0.02697028101 7.879807917e-14)
(0.001653950195 -0.005432705235 1.589006704e-14)
(0.001065299671 -0.003559900966 1.022792961e-14)
(0.0002387582102 -0.000749653077 2.15105711e-15)
(0.0005519168903 -0.001702728463 4.982125823e-15)
(0 0 0)
(0 0 0)
(0 0 0)
(0 0 0)
(0 0 0)
(0 0 0)
(0 0 0)
(0 0 0)
(0 0 0)
(0 0 0)
(0 0 0)
(0 0 0)
(0 0 0)
(0 0 0)
(0 0 0)
(0 0 0)
(0 0 0)
(0 0 0)
(-0.00110255838 -0.09211276556 2.513128594e-13)
(-0.0008849779278 -0.08152601009 2.187416914e-13)
(0.0005571287329 -0.07905175147 2.120387199e-13)
(0.0005585411556 -0.08965105133 2.445266212e-13)
(0.004678126631 -0.07622120831 2.077227279e-13)
(0.004035068366 -0.06583922523 1.764838276e-13)
(0.004750314727 -0.05973110816 1.600941602e-13)
(0.00558530206 -0.06987457055 1.904032487e-13)
(0.006374841023 -0.04686826708 1.276895256e-13)
(0.005141216936 -0.03819912373 1.023764407e-13)
(0.004689755079 -0.03065277718 8.215650382e-14)
(0.00596792658 -0.03855456019 1.050409759e-13)
(0.003267374995 -0.01548443681 4.221623051e-14)
(0.002208671324 -0.01061767064 2.847722058e-14)
(0.001302525139 -0.005758494419 1.544597783e-14)
(0.002165595491 -0.009431723311 2.571554081e-14)
(1.820767646e-05 -6.399836901e-05 1.804112415e-16)
(0 0 0)
(0 0 0)
(0 0 0)
(0 0 0)
(0 0 0)
(0 0 0)
(0 0 0)
(0 0 0)
(0 0 0)
(0 0 0)
(0 0 0)
(0 0 0)
(0 0 0)
(0 0 0)
(0 0 0)
(0 0 0)
(0 0 0)
(0 0 0)
(0 0 0)
(0 0 0)
(0 0 0)
(-0.0003268240107 -0.04583941494 1.171562847e-13)
(-0.0002030441991 -0.03425250013 8.618106229e-14)
(0.0003507863431 -0.03246120181 8.165690346e-14)
(0.0004331560315 -0.04378670667 1.118827253e-13)
(0.002047794344 -0.03337254531 8.52512505e-14)
(0.0014442402 -0.02354213765 5.920264279e-14)
(0.001546688104 -0.01975995932 4.969635814e-14)
(0.002267567424 -0.02884148161 7.367717547e-14)
(0.001869625342 -0.01432550088 3.659572645e-14)
(0.001062406005 -0.008230182095 2.070565941e-14)
(0.0007278860379 -0.004986509428 1.254552018e-14)
(0.001458416769 -0.009868999304 2.521594045e-14)
(0.0001676133854 -0.0008415794076 2.15105711e-15)
(4.706090546e-07 -2.399155508e-06 1.387778781e-17)
(0 0 0)
(1.959720068e-06 -9.069726701e-06 2.775557562e-17)
(0 0 0)
(0 0 0)
(0 0 0)
(0 0 0)
(0 0 0)
(0 0 0)
(0 0 0)
(0 0 0)
(0 0 0)
(0 0 0)
(0 0 0)
(0 0 0)
(0 0 0)
(0 0 0)
(0 0 0)
(0 0 0)
(0 0 0)
(0 0 0)
(0 0 0)
(0 0 0)
(0 0 0)
(0 0 0)
(-2.304707825e-05 -0.007344924737 1.765254609e-14)
(-6.409559023e-06 -0.002446284721 5.800915304e-15)
(2.605974741e-05 -0.002002976742 4.74620343e-15)
(8.349129057e-05 -0.006543353813 1.572353359e-14)
(0.0001827987504 -0.003018416881 7.258083023e-15)
(2.264974218e-05 -0.0003779289562 8.881784197e-16)
(4.174533671e-06 -5.525487425e-05 1.387778781e-16)
(0.0001387968833 -0.00181436869 4.357625372e-15)
(0 0 0)
(0 0 0)
(0 0 0)
(0 0 0)
(0 0 0)
(0 0 0)
(0 0 0)
(0 0 0)
(0 0 0)
(0 0 0)
(0 0 0)
(0 0 0)
(0 0 0)
(0 0 0)
(0 0 0)
(0 0 0)
(0 0 0)
(0 0 0)
(0 0 0)
(0 0 0)
(0 0 0)
(0 0 0)
(0 0 0)
(0 0 0)
(0 0 0)
(0 0 0)
(0 0 0)
(0 0 0)
(0 0 0)
(0 0 0)
(0 0 0)
(0 0 0)
(0 0 0)
(0 0 0)
(0 0 0)
(0 0 0)
(0 0 0)
(0 0 0)
(0 0 0)
(0 0 0)
(0 0 0)
(0 0 0)
(0 0 0)
(0 0 0)
(0 0 0)
(0 0 0)
(0 0 0)
(0 0 0)
(0 0 0)
(0 0 0)
(0 0 0)
(0 0 0)
(0 0 0)
(0 0 0)
(0 0 0)
(0 0 0)
(0 0 0)
(0 0 0)
(0 0 0)
(0 0 0)
(0 0 0)
(0 0 0)
(0 0 0)
(0 0 0)
(0 0 0)
(0 0 0)
(0 0 0)
(0 0 0)
(0 0 0)
(0 0 0)
(0 0 0)
(0 0 0)
(0 0 0)
(0 0 0)
(0 0 0)
(0 0 0)
(0 0 0)
(0 0 0)
(0 0 0)
(0 0 0)
(0 0 0)
(0 0 0)
(0 0 0)
(0 0 0)
(0 0 0)
(0 0 0)
(0 0 0)
(0 0 0)
(0 0 0)
(0 0 0)
(0 0 0)
(0 0 0)
(0 0 0)
(0 0 0)
(0 0 0)
(0 0 0)
(0 0 0)
(0 0 0)
(0 0 0)
(0 0 0)
(0 0 0)
(0 0 0)
(0 0 0)
(0 0 0)
(0 0 0)
(0 0 0)
(0 0 0)
(0 0 0)
(0 0 0)
(0 0 0)
(0 0 0)
(0 0 0)
(0 0 0)
(0 0 0)
(0 0 0)
(0 0 0)
(0 0 0)
(0 0 0)
(0 0 0)
(0 0 0)
(0 0 0)
(0 0 0)
(0 0 0)
(0 0 0)
(0 0 0)
(0 0 0)
(0 0 0)
(0 0 0)
(0 0 0)
(0 0 0)
(0 0 0)
(0 0 0)
(0 0 0)
(0 0 0)
(0 0 0)
(0 0 0)
(0 0 0)
(0 0 0)
(0 0 0)
(0 0 0)
(0 0 0)
(0 0 0)
(0 0 0)
(0 0 0)
(0 0 0)
(0 0 0)
(0 0 0)
(0 0 0)
(0 0 0)
(0 0 0)
(0 0 0)
(0 0 0)
(0 0 0)
(0 0 0)
(0 0 0)
(0 0 0)
(0 0 0)
(0 0 0)
(0 0 0)
(0 0 0)
(0 0 0)
(0 0 0)
(0 0 0)
(0 0 0)
(0 0 0)
(0 0 0)
(0 0 0)
(0 0 0)
(0 0 0)
(0 0 0)
(0 0 0)
(0 0 0)
(0 0 0)
(0 0 0)
(0 0 0)
(0 0 0)
(0 0 0)
(0 0 0)
(0 0 0)
(0 0 0)
(0 0 0)
(0 0 0)
(0 0 0)
(0 0 0)
(0 0 0)
(0 0 0)
(0 0 0)
(0 0 0)
(0 0 0)
(0 0 0)
(0 0 0)
(0 0 0)
(0 0 0)
(0 0 0)
(0 0 0)
(0 0 0)
(0 0 0)
(0 0 0)
(0 0 0)
(0 0 0)
(0 0 0)
(0 0 0)
(0 0 0)
(0 0 0)
(0 0 0)
(0 0 0)
(0 0 0)
(0 0 0)
(0 0 0)
(0 0 0)
(0 0 0)
(0 0 0)
(0 0 0)
(0 0 0)
(0 0 0)
(0 0 0)
(0 0 0)
(0 0 0)
(0 0 0)
(0 0 0)
(0 0 0)
(0 0 0)
(0 0 0)
(0 0 0)
(0 0 0)
(0 0 0)
(0 0 0)
(0 0 0)
(0 0 0)
(0 0 0)
(0 0 0)
(0 0 0)
(0 0 0)
(0 0 0)
(0 0 0)
(0 0 0)
(0 0 0)
(0 0 0)
(0 0 0)
(0 0 0)
(0 0 0)
(0 0 0)
(0 0 0)
(0 0 0)
(0 0 0)
(0 0 0)
(0 0 0)
(0 0 0)
(0 0 0)
(0 0 0)
(0 0 0)
(0 0 0)
(0 0 0)
(0 0 0)
(0 0 0)
(0 0 0)
(0 0 0)
(0 0 0)
(0 0 0)
(0 0 0)
(0 0 0)
(0 0 0)
(0 0 0)
(0 0 0)
(0 0 0)
(0 0 0)
(0 0 0)
(0 0 0)
(0 0 0)
(0 0 0)
(0 0 0)
(0 0 0)
(0 0 0)
(0 0 0)
(0 0 0)
(0 0 0)
(0 0 0)
(0 0 0)
(0 0 0)
(0 0 0)
(0 0 0)
(0 0 0)
(0 0 0)
(0 0 0)
(0 0 0)
(0 0 0)
(0 0 0)
(0 0 0)
(0 0 0)
(0 0 0)
(0 0 0)
(0 0 0)
(0 0 0)
(0 0 0)
(0 0 0)
(0 0 0)
(0 0 0)
(0 0 0)
(0 0 0)
(0 0 0)
(0 0 0)
(0 0 0)
(0 0 0)
(0 0 0)
(0 0 0)
(0 0 0)
(0 0 0)
(0 0 0)
(0 0 0)
(0 0 0)
(0 0 0)
(0 0 0)
(0 0 0)
(0 0 0)
(0 0 0)
(0 0 0)
(0 0 0)
(0 0 0)
(0 0 0)
(0 0 0)
(0 0 0)
(0 0 0)
(0 0 0)
(0 0 0)
(0 0 0)
(0 0 0)
(0 0 0)
(0 0 0)
(0 0 0)
(0 0 0)
(0 0 0)
(0 0 0)
(0 0 0)
(0 0 0)
(0 0 0)
(0 0 0)
(0 0 0)
(0 0 0)
(0 0 0)
(0 0 0)
(0 0 0)
(0 0 0)
(0 0 0)
(0 0 0)
(0 0 0)
(0 0 0)
(0 0 0)
(0 0 0)
(0 0 0)
(0 0 0)
(0 0 0)
(0 0 0)
(0 0 0)
(0 0 0)
(0 0 0)
(0 0 0)
(0 0 0)
(0 0 0)
(0 0 0)
(0 0 0)
(0 0 0)
(0 0 0)
(0 0 0)
(0 0 0)
(0 0 0)
(0 0 0)
(0 0 0)
(0 0 0)
(0 0 0)
(0 0 0)
(0 0 0)
(0 0 0)
(0 0 0)
(0 0 0)
(0 0 0)
(0 0 0)
(0 0 0)
(0 0 0)
(0 0 0)
(0 0 0)
(0 0 0)
(0 0 0)
(0 0 0)
(0 0 0)
(0 0 0)
(0 0 0)
(0 0 0)
(0 0 0)
(0 0 0)
(0 0 0)
(0 0 0)
(0 0 0)
(0 0 0)
(0 0 0)
(0 0 0)
(0 0 0)
(0 0 0)
(0 0 0)
(0 0 0)
(0 0 0)
(0 0 0)
(0 0 0)
(0 0 0)
(0 0 0)
(0 0 0)
(0 0 0)
(0 0 0)
(0 0 0)
(0 0 0)
(0 0 0)
(0 0 0)
(0 0 0)
(0 0 0)
(0 0 0)
(0 0 0)
(0 0 0)
(0 0 0)
(0 0 0)
(0 0 0)
(0 0 0)
(0 0 0)
(0 0 0)
(0 0 0)
(0 0 0)
(0 0 0)
(0 0 0)
(0 0 0)
(0 0 0)
(0 0 0)
(0 0 0)
(0 0 0)
(0 0 0)
(0 0 0)
(0 0 0)
(0 0 0)
(0 0 0)
(0 0 0)
(0 0 0)
(0 0 0)
(0 0 0)
(0 0 0)
(0 0 0)
(0 0 0)
(0 0 0)
(0 0 0)
(0 0 0)
(0 0 0)
(0 0 0)
(0 0 0)
(0 0 0)
(0 0 0)
(0 0 0)
(0 0 0)
(0 0 0)
(0 0 0)
(0 0 0)
(0 0 0)
(0 0 0)
(0 0 0)
(0 0 0)
(0 0 0)
(0 0 0)
(0 0 0)
(0 0 0)
(0 0 0)
(0 0 0)
(0 0 0)
(0 0 0)
(0 0 0)
(0 0 0)
(0 0 0)
(0 0 0)
(0 0 0)
(0 0 0)
(0 0 0)
(0 0 0)
(0 0 0)
(0 0 0)
(0 0 0)
(0 0 0)
(0 0 0)
(0 0 0)
(0 0 0)
(0 0 0)
(0 0 0)
(0 0 0)
(0 0 0)
(0 0 0)
(0 0 0)
(0 0 0)
(0 0 0)
(0 0 0)
(0 0 0)
(0 0 0)
(0 0 0)
(0 0 0)
(0 0 0)
(0 0 0)
(0 0 0)
(0 0 0)
(0 0 0)
(0 0 0)
(0 0 0)
(0 0 0)
(0 0 0)
(0 0 0)
(0 0 0)
(0 0 0)
(0 0 0)
(0 0 0)
(0 0 0)
(0 0 0)
(0 0 0)
(0 0 0)
(0 0 0)
(0 0 0)
(0 0 0)
(0 0 0)
(0 0 0)
(0 0 0)
(0 0 0)
(0 0 0)
(0 0 0)
(0 0 0)
(0 0 0)
(0 0 0)
(0 0 0)
(0 0 0)
(0 0 0)
(0 0 0)
(0 0 0)
(0 0 0)
(0 0 0)
(0 0 0)
(0 0 0)
(0 0 0)
(0 0 0)
(0 0 0)
(0 0 0)
(0 0 0)
(0 0 0)
(0 0 0)
(0 0 0)
(0 0 0)
(0 0 0)
(0 0 0)
(0 0 0)
(0 0 0)
(0 0 0)
(0 0 0)
(0 0 0)
(0 0 0)
(0 0 0)
(0 0 0)
(0 0 0)
(0 0 0)
(0 0 0)
(0 0 0)
(0 0 0)
(0 0 0)
(0 0 0)
(0 0 0)
(0 0 0)
(0 0 0)
(0 0 0)
(0 0 0)
(0 0 0)
(0 0 0)
(0 0 0)
(0 0 0)
(0 0 0)
(0 0 0)
(0 0 0)
(0 0 0)
(0 0 0)
(0 0 0)
(0 0 0)
(0 0 0)
(0 0 0)
(0 0 0)
(0 0 0)
(0 0 0)
(0 0 0)
(0 0 0)
(0 0 0)
(0 0 0)
(0 0 0)
(0 0 0)
(0 0 0)
(0 0 0)
(0 0 0)
(0 0 0)
(0 0 0)
(0 0 0)
(0 0 0)
(0 0 0)
(0 0 0)
(0 0 0)
(0 0 0)
(0 0 0)
(0 0 0)
(0 0 0)
(0 0 0)
(0 0 0)
(0 0 0)
(0 0 0)
(0 0 0)
(0 0 0)
(0 0 0)
(0 0 0)
(0 0 0)
(0 0 0)
(0 0 0)
(0 0 0)
(0 0 0)
(0 0 0)
(0 0 0)
(0 0 0)
(0 0 0)
(0 0 0)
(0 0 0)
(0 0 0)
(0 0 0)
(0 0 0)
(0 0 0)
(0 0 0)
(0 0 0)
(0 0 0)
(0 0 0)
(0 0 0)
(0 0 0)
(0 0 0)
(0 0 0)
(0 0 0)
(0 0 0)
(0 0 0)
(0 0 0)
(0 0 0)
(0 0 0)
(0 0 0)
(0 0 0)
(0 0 0)
(0 0 0)
(0 0 0)
(0 0 0)
(0 0 0)
(0 0 0)
(0 0 0)
(0 0 0)
(0 0 0)
(0 0 0)
(0 0 0)
(0 0 0)
(0 0 0)
(0 0 0)
(0 0 0)
(0 0 0)
(0 0 0)
(0 0 0)
(0 0 0)
(0 0 0)
(0 0 0)
(0 0 0)
(0 0 0)
(0 0 0)
(0 0 0)
(0 0 0)
(0 0 0)
(0 0 0)
(0 0 0)
(0 0 0)
(0 0 0)
(0 0 0)
(0 0 0)
(0 0 0)
(0 0 0)
(-0.0008261937809 -0.09602326712 0)
(-0.001113852276 -0.09601873311 0)
(-0.001125290941 -0.09629565388 0)
(-0.0002406285293 -0.0957556934 0)
(-0.0008139624966 -0.09574641844 0)
(0.008513871283 -0.09538340055 0)
(0.007344711332 -0.09535740419 0)
(0.007300140353 -0.09646418861 0)
(-0.001397258322 -0.1045116768 0)
(-0.001988393599 -0.1044964187 0)
(-0.00200272445 -0.1050520295 0)
(-0.001137627815 -0.09657229335 0)
(-0.0002006826954 -0.1039870978 0)
(-0.0007496473919 -0.10399048 0)
(-0.001303733196 -0.1040025059 0)
(0.008165807336 -0.1031142155 0)
(0.006996209718 -0.1030871754 0)
(0.005819616008 -0.1030591803 0)
(0.005764482011 -0.1041612009 0)
(0.005716984779 -0.1052693552 0)
(0.007253278508 -0.09756972657 0)
(0.00396916745 -0.09195550562 0)
(-0.001612251568 -0.1128411924 0)
(-0.002794494898 -0.1128106769 0)
(-0.00282316392 -0.1139213821 0)
(-0.002017047144 -0.1056071243 0)
(-0.000964734859 -0.0921360341 0)
(-0.0006762136551 -0.09214136473 0)
(0.003787810665 -0.09638509352 0)
(0.00383554353 -0.09527901019 0)
(0.002671112925 -0.09525478784 0)
(0.002646658214 -0.09580802081 0)
(0.002621694608 -0.09636056955 0)
(0.003365927831 -0.09249782586 0)
(0.003947565922 -0.09250999957 0)
(-0.0003856668483 -0.09214741875 0)
(-0.001079524562 -0.1007063767 0)
(-0.001644459455 -0.1007012419 0)
(-0.00167956094 -0.1012492959 0)
(-0.001115409727 -0.1012541523 0)
(-0.00104312369 -0.1001582014 0)
(-0.001609594693 -0.1001524591 0)
(-0.0005086525812 -0.1007135748 0)
(-0.0004723532904 -0.100165655 0)
(0.003579210609 -0.1008003497 0)
(0.003633705073 -0.09969810616 0)
(0.002458613591 -0.09967051126 0)
(0.002397673543 -0.1007704719 0)
(0.002596323451 -0.09691310777 0)
(0.002570706335 -0.09746517503 0)
(0.003738402004 -0.09749010113 0)
(-0.0007504973793 -0.09408445071 0)
(-0.001045140225 -0.09407720688 0)
(-0.001051867684 -0.09435600444 0)
(-0.000759829615 -0.09436230344 0)
(-0.002965379449 -0.0984741462 0)
(-0.002948196673 -0.09819964511 0)
(-0.003247679865 -0.09819072766 0)
(-0.000948000093 -0.09850814981 0)
(-0.0009182281263 -0.09795727387 0)
(-0.001487151204 -0.09795059067 0)
(-0.001501730269 -0.09822639792 0)
(-0.001516040055 -0.09850159264 0)
(-0.0007414316412 -0.09380664272 0)
(-0.001038213585 -0.09379867258 0)
(-0.0004592968596 -0.09409041835 0)
(-0.0004490970204 -0.09381305262 0)
(0.001559482689 -0.09412595516 0)
(0.001582621394 -0.09357170738 0)
(0.001005242196 -0.09356093418 0)
(0.0009819433985 -0.09411538432 0)
(0.001048459397 -0.09245199827 0)
(0.001626592788 -0.0924631523 0)
(-0.003451411731 -0.1028913787 0)
(-0.003439786385 -0.1026151855 0)
(-0.001546210503 -0.09905240666 0)
(-0.0009781408354 -0.09905891297 0)
(-0.002974117668 -0.09875268537 0)
(-0.003047723862 -0.1006917622 0)
(-0.003034623581 -0.1004162266 0)
(0.0007808856384 -0.111792034 0)
(-0.0004013525325 -0.1117615186 0)
(-0.001583595862 -0.1117310031 0)
(0.007863562133 -0.1117935723 3.588518371e-13)
(0.005509853798 -0.111914096 0)
(0.005451525373 -0.1141074716 3.593375597e-13)
(0.005653185592 -0.1063610856 0)
(0.005624529886 -0.107471275 0)
(0.001462609918 -0.09633803388 0)
(0.001487738441 -0.09578569589 0)
(0.0009105150052 -0.09577528807 0)
(0.0008855076326 -0.09632773243 0)
(0.000958783229 -0.09466906369 0)
(0.001536200039 -0.09467957975 0)
(-0.0004697997407 -0.09436772464 0)
(0.003317373113 -0.1051893495 0)
(0.003392219607 -0.1040984204 0)
(0.002214578964 -0.104073186 0)
(0.002135129783 -0.1051588339 0)
(0.002332997147 -0.1018687874 0)
(0.003524529429 -0.1019022271 0)
(-0.0005458801341 -0.1012610577 0)
(-0.001526257824 -0.1095095926 0)
(-0.001497588816 -0.1083988873 0)
(-0.002679832126 -0.1083683718 0)
(-0.002708501148 -0.109479077 0)
(-0.001773441326 -0.0929946628 0)
(-0.001569154005 -0.09296101196 0)
(-0.001648025808 -0.09260577094 0)
(-0.0007091251985 -0.09297381523 0)
(-0.0006996782332 -0.09269539761 0)
(-0.0009960047193 -0.09268816195 0)
(-0.001003263626 -0.09296704904 0)
(-0.003061514101 -0.1009672285 0)
(-0.002900353059 -0.102893471 0)
(-0.002860587333 -0.1023444533 0)
(-0.003413810746 -0.1023446282 0)
(-0.001234588344 -0.1028930519 0)
(-0.00119475713 -0.1023466171 0)
(-0.001754568561 -0.1023442473 0)
(-0.001788775699 -0.1028928922 0)
(-0.003487577299 -0.1031599178 0)
(-0.001919606279 -0.09405943651 0)
(-0.001928761698 -0.09433713893 0)
(-0.001639916782 -0.09434216818 0)
(-0.001639032121 -0.09406177436 0)
(-0.001953121811 -0.09516970692 0)
(-0.001661742445 -0.09517588567 0)
(-0.00165059258 -0.09489947367 0)
(-0.001937742974 -0.09489469466 0)
(-0.0007908034291 -0.09519346176 0)
(-0.0007802134333 -0.09491688044 0)
(-0.00106867333 -0.09491165464 0)
(-0.00107941057 -0.09518818053 0)
(-0.002208903335 -0.09489528418 0)
(-0.002238304465 -0.09516575303 0)
(-0.002131112911 -0.09408970037 0)
(-0.002207794568 -0.09431852796 0)
(-0.001998903633 -0.09627780228 0)
(-0.001994040556 -0.09599859524 0)
(-0.002290069807 -0.095991264 0)
(-0.002292869671 -0.09627093729 0)
(-0.002277009027 -0.09543365871 0)
(-0.001975632529 -0.09544262504 0)
(-0.003231821824 -0.09730894991 0)
(-0.002890097089 -0.09737853073 0)
(-0.002877739677 -0.09710137556 0)
(-0.003152629813 -0.09708426534 0)
(-0.002031452303 -0.0973902142 0)
(-0.002020975049 -0.09711270076 0)
(-0.002308580539 -0.09710801324 0)
(-0.002318219728 -0.09738585805 0)
(-0.002298672492 -0.09654955222 0)
(-0.002005352478 -0.09655624567 0)
(-0.002085522584 -0.09849422389 0)
(-0.002071292844 -0.09821913035 0)
(-0.002359515733 -0.09821396229 0)
(-0.002373656608 -0.09848921299 0)
(-0.00232975322 -0.0976632926 0)
(-0.002043506673 -0.09766742881 0)
(-0.00316817942 -0.09765889364 0)
(-0.002899892375 -0.09765642314 0)
(-0.002004002962 -0.0937027623 0)
(-0.001014114982 -0.09324465607 0)
(-0.0007196753116 -0.0932517914 0)
(-0.00185002684 -0.09323216555 0)
(-0.001595512607 -0.09323336616 0)
(-0.001644329211 -0.09377915606 0)
(-0.003385973824 -0.1017939605 0)
(0.009685904224 -0.09541009054 0)
(0.01736587453 -0.09122552325 3.470418397e-13)
(0.01548810672 -0.09371756038 3.566869022e-13)
(0.0153171158 -0.09533213106 3.545219673e-13)
(-0.001090844258 -0.09546468845 0)
(-0.0008030160713 -0.09546958821 0)
(-0.001676577572 -0.09545127332 0)
(-0.001705207189 -0.09628471194 0)
(-0.001697133467 -0.09600651699 0)
(0.005134850991 -0.09198058627 0)
(0.008643206522 -0.09205864957 0)
(0.007474410355 -0.09203255936 0)
(-0.001247051147 -0.09213267043 0)
(-0.00128101242 -0.09240296996 0)
(-0.000983853627 -0.09241064009 0)
(-0.0006886416734 -0.09241779536 0)
(-0.0004166281569 -0.09298033257 0)
(-0.0004063915357 -0.09270214182 0)
(0.0004511216878 -0.09299586467 0)
(0.0004620141475 -0.09271846519 0)
(0.0001736093666 -0.09271334406 0)
(0.0001625182066 -0.09299084165 0)
(0.0001940228552 -0.09215907756 0)
(0.0004831120996 -0.09216468097 0)
(-0.002582374456 -0.09626563289 0)
(-0.002570554069 -0.09598908333 0)
(-0.002782427315 -0.09601975073 0)
(-0.002860837354 -0.09624713988 0)
(-0.002649836985 -0.09563408982 0)
(-0.003072523837 -0.09685697159 0)
(-0.002862888871 -0.09682542046 0)
(-0.002938375528 -0.0964713509 0)
(-0.002589818396 -0.09682482861 0)
(-0.002590580809 -0.09654356631 0)
(-0.00340006594 -0.1020695222 0)
(-0.003204211017 -0.09792604234 0)
(-0.003000610229 -0.09958586941 0)
(-0.002991915449 -0.09930841321 0)
(-0.002141978592 -0.09959786227 0)
(-0.00212796519 -0.09932235016 0)
(-0.002412173487 -0.0993192474 0)
(-0.002425677492 -0.09959482428 0)
(-0.002386716623 -0.09876598867 0)
(-0.002100451937 -0.0987700221 0)
(-0.001499924258 -0.09213140894 0)
(-0.0015760217 -0.09237682262 0)
(-0.001294304339 -0.09296155013 0)
(-0.001293253061 -0.09268054113 0)
(-0.001935610104 -0.09461526227 0)
(-0.002283045033 -0.09454310777 0)
(-0.002412456668 -0.09492941858 0)
(-0.002491285948 -0.09516485011 0)
(-0.001989061153 -0.09571908146 0)
(-0.002292249244 -0.09570950052 0)
(-0.002572548423 -0.09540754931 0)
(-0.002605287699 -0.09738154577 0)
(-0.002595086361 -0.09710392196 0)
(-0.002921056628 -0.09792937601 0)
(-0.00263268646 -0.09793423814 0)
(-0.002616293822 -0.0976591488 0)
(-0.001929378371 -0.09347543031 0)
(-0.001631805718 -0.09350236654 0)
(-0.001328689634 -0.09351199724 0)
(-0.001308147652 -0.0932378926 0)
(-0.001342870803 -0.09406910901 0)
(-0.001340102241 -0.09378922842 0)
(0.009813939092 -0.09208571898 0)
(0.01333042 -0.09216698615 0)
(0.01098482643 -0.09211279239 0)
(0.01875042023 -0.08694354488 3.306244167e-13)
(0.01909131737 -0.0652772932 2.482319905e-13)
(0.01965909107 -0.07371839983 2.802758026e-13)
(0.01920737108 -0.07384710517 2.74363865e-13)
(0.01806812975 -0.05676510637 2.159245005e-13)
(0.01142321044 -0.02881146696 1.098010571e-13)
(0.0140378211 -0.03790255221 1.44342871e-13)
(0.0131801796 -0.03643274486 1.355859869e-13)
(0.008647589334 -0.02046462832 7.804867863e-14)
(0.0015201446 -0.003038415148 1.16157084e-14)
(0.003464321696 -0.007300365789 2.788047571e-14)
(0.002865484202 -0.006180650501 2.306488334e-14)
(-0.0003759292122 -0.09851635971 0)
(-0.0003465120084 -0.09796526812 0)
(0.001353282984 -0.09854581616 0)
(0.001382197281 -0.09799460835 0)
(0.000804112314 -0.09798417829 0)
(0.0007758207411 -0.09853566029 0)
(0.000859503266 -0.09688020268 0)
(0.001436660968 -0.09689055719 0)
(0.01052213067 -0.1031727128 0)
(0.01621410985 -0.09454447473 3.288896933e-13)
(0.01472215802 -0.09941023457 3.459593723e-13)
(0.01449980311 -0.1004260008 3.421568584e-13)
(0.01513839222 -0.09686956308 3.52190499e-13)
(0.01721522386 -0.08833920908 3.072403443e-13)
(0.01650367196 -0.06200583475 2.156885781e-13)
(0.01739733267 -0.07179478357 2.496891582e-13)
(0.01663399613 -0.0701915492 2.390310172e-13)
(0.01859080934 -0.07322516924 2.659955589e-13)
(0.01501311648 -0.05174668953 1.800781746e-13)
(0.008110467416 -0.02238919149 7.804867863e-14)
(0.0106538971 -0.03149544234 1.097177904e-13)
(0.009961693531 -0.03009015204 1.026401186e-13)
(0.01249217112 -0.0353358782 1.285638263e-13)
(0.005578926794 -0.01444664713 5.040412532e-14)
(0.000431610874 -0.0009445712805 3.302913498e-15)
(0.001668706895 -0.003848756577 1.34336986e-14)
(0.001182749215 -0.002786807461 9.520162436e-15)
(0.002522559687 -0.005566916839 2.031708135e-14)
(-0.0003440144888 -0.1095401081 0)
(-0.0003153454669 -0.1084294029 0)
(0.003202710341 -0.1096316546 0)
(0.003231379363 -0.1085209493 0)
(0.002049136034 -0.1084904338 0)
(0.002020467012 -0.109601139 0)
(0.002106460761 -0.1062695392 0)
(0.003288704091 -0.1063000547 0)
(0.0100869025 -0.1101463677 3.533839887e-13)
(0.01470046626 -0.09403490878 3.0137004e-13)
(0.01361832788 -0.1011990787 3.244071678e-13)
(0.01322600499 -0.1003528738 3.154837502e-13)
(0.01418701117 -0.1008192794 3.364808432e-13)
(0.01521359471 -0.08534861847 2.735173199e-13)
(0.01312016212 -0.05360529582 1.71876402e-13)
(0.01440229239 -0.06473031016 2.074729277e-13)
(0.01369093416 -0.0627324627 1.972033647e-13)
(0.0160324642 -0.06917226726 2.307598557e-13)
(0.01159486795 -0.04343504859 1.393191118e-13)
(0.005186240442 -0.01555100268 4.996003611e-14)
(0.007416280434 -0.02381684741 7.646661082e-14)
(0.006346131003 -0.02076320577 6.537825836e-14)
(0.008961675989 -0.0276359916 9.234280007e-14)
(0.003105099106 -0.008731296935 2.806088695e-14)
(0 0 0)
(0.0003290996506 -0.0008249140505 2.650657471e-15)
(0.0001536223059 -0.0003928040345 1.235123115e-15)
(0.0008919325873 -0.002146256631 7.188694084e-15)
(-0.001775614763 -0.1192305046 3.552991235e-13)
(-0.004134420189 -0.1196326625 3.566730244e-13)
(-0.004045229682 -0.1186909996 3.474720511e-13)
(-0.004005402091 -0.1138908667 0)
(-0.004062740134 -0.1161122772 0)
(0.0005685170054 -0.1183330436 3.52454177e-13)
(0.0071014832 -0.1104375291 3.284733596e-13)
(0.00506601587 -0.1141539774 3.396866122e-13)
(0.00484562564 -0.110966325 3.242406343e-13)
(0.005366535461 -0.1155346946 3.568950691e-13)
(0.008892764787 -0.1054344157 3.134853488e-13)
(0.01200512318 -0.08266729743 2.456368442e-13)
(0.01141483378 -0.09146120451 2.717964742e-13)
(0.01059232823 -0.0861723416 2.515071484e-13)
(0.01273156905 -0.09851090292 3.038125307e-13)
(0.01208811145 -0.07293148397 2.167016566e-13)
(0.009388524379 -0.04123056002 1.225824997e-13)
(0.01073372406 -0.05184837749 1.540989558e-13)
(0.009527534814 -0.04676266948 1.365157987e-13)
(0.01283389189 -0.05990019206 1.847411113e-13)
(0.007722272182 -0.03109114635 9.248157795e-14)
(0.002295357982 -0.007408697711 2.206568261e-14)
(0.004001359095 -0.01382272841 4.114764085e-14)
(0.003149446658 -0.01106836123 3.236300117e-14)
(0.005631377714 -0.01877117032 5.798139746e-14)
(0.0009464229393 -0.002868254889 8.54871729e-15)
(0 0 0)
(0 0 0)
(0 0 0)
(1.472509894e-05 -3.838077355e-05 1.110223025e-16)
(-0.001311985448 -0.1013402642 2.812472477e-13)
(-0.00322061059 -0.1027034947 2.851330283e-13)
(-0.002813903953 -0.09355076119 2.553235401e-13)
(-0.003855233513 -0.1154870556 3.320538289e-13)
(0.0005495076209 -0.09898137185 2.745859096e-13)
(0.005281577802 -0.08575136301 2.37670994e-13)
(0.003904598759 -0.09118980061 2.528116605e-13)
(0.003504242202 -0.08167687615 2.226413498e-13)
(0.004577851628 -0.1060236865 3.043260088e-13)
(0.006382945012 -0.07933224377 2.198380367e-13)
(0.00761368324 -0.05535625228 1.533634331e-13)
(0.007576524082 -0.06396697871 1.772054725e-13)
(0.006451588276 -0.05501600023 1.498801083e-13)
(0.009668518976 -0.07974425863 2.286643097e-13)
(0.007275086359 -0.04643346961 1.28647093e-13)
(0.004439915568 -0.02073980014 5.749567489e-14)
(0.005616724493 -0.02880699141 7.985279105e-14)
(0.00433851547 -0.02255888268 6.147859999e-14)
(0.008250317814 -0.04111611427 1.179334408e-13)
(0.003171069071 -0.01360413537 3.771982726e-14)
(0.0002069607679 -0.0007153669834 1.984523657e-15)
(0.0009031414924 -0.003335744328 9.24260668e-15)
(0.0003980287866 -0.00149418007 4.080069615e-15)
(0.002321572503 -0.008297342177 2.382816167e-14)
(0 0 0)
(0 0 0)
(0 0 0)
(0 0 0)
(0 0 0)
(-0.000485709011 -0.05791795616 1.503935865e-13)
(-0.001518076024 -0.05926515168 1.539185446e-13)
(-0.001133184262 -0.04706906195 1.203065425e-13)
(-0.002378809397 -0.08298294247 2.227107387e-13)
(0.0004968683675 -0.05565734623 1.444955267e-13)
(0.002698023809 -0.04399537862 1.141725603e-13)
(0.002128665915 -0.0486108007 1.26162969e-13)
(0.001653680113 -0.03745913398 9.570122472e-14)
(0.003068365093 -0.07115535534 1.907640712e-13)
(0.003062957992 -0.03881253656 1.007249839e-13)
(0.002846477026 -0.02158442009 5.601075159e-14)
(0.003130122993 -0.02740673184 7.112366252e-14)
(0.002164663962 -0.01912010569 4.884981308e-14)
(0.005312296372 -0.04571857529 1.225131108e-13)
(0.002390681045 -0.01598832711 4.149458555e-14)
(0.0006157550622 -0.003046375864 7.91033905e-15)
(0.001194905226 -0.006470169862 1.679212325e-14)
(0.0005281778221 -0.00289999819 7.410738689e-15)
(0.003144858737 -0.01657454727 4.443667656e-14)
(0.0001806952118 -0.0008233886186 2.137179322e-15)
(0 0 0)
(0 0 0)
(0 0 0)
(8.539311814e-05 -0.0003258045588 8.743006319e-16)
(0 0 0)
(0 0 0)
(0 0 0)
(0 0 0)
(0 0 0)
(-5.652315368e-05 -0.0145427785 3.547162564e-14)
(-0.0003051753521 -0.01524751511 3.720634911e-14)
(-0.00014903098 -0.007841257945 1.884603584e-14)
(-0.0007983030988 -0.03533123584 8.89011087e-14)
(0.0001644756995 -0.01338905981 3.26683125e-14)
(0.0004863457262 -0.007974696151 1.945665851e-14)
(0.0004476094282 -0.01000693967 2.442490654e-14)
(0.0001912629611 -0.004286667537 1.029731855e-14)
(0.001200536302 -0.02700711486 6.793177132e-14)
(0.0004544145414 -0.005882439532 1.434963259e-14)
(0.0001013804961 -0.0008050749792 1.970645869e-15)
(0.000233675936 -0.002129435736 5.19029264e-15)
(1.765943592e-05 -0.000163060092 3.885780586e-16)
(0.00133613013 -0.01191256017 2.996214388e-14)
(1.172796967e-05 -8.255793493e-05 1.942890293e-16)
(0 0 0)
(0 0 0)
(0 0 0)
(0.0001201807494 -0.0006694221702 1.679212325e-15)
(0 0 0)
(0 0 0)
(0 0 0)
(0 0 0)
(0 0 0)
(0 0 0)
(0 0 0)
(0 0 0)
(0 0 0)
(0 0 0)
(0 0 0)
(0 0 0)
(0 0 0)
(-4.977877332e-05 -0.002729801358 6.467049118e-15)
(0 0 0)
(0 0 0)
(0 0 0)
(0 0 0)
(3.907753296e-05 -0.0008822188929 2.081668171e-15)
(0 0 0)
(0 0 0)
(0 0 0)
(0 0 0)
(0 0 0)
(0 0 0)
(0 0 0)
(0 0 0)
(0 0 0)
(0 0 0)
(0 0 0)
(0 0 0)
(0 0 0)
(0 0 0)
(0 0 0)
(0 0 0)
(0 0 0)
(0 0 0)
(0 0 0)
(0 0 0)
(0 0 0)
(0 0 0)
(0 0 0)
(0 0 0)
(0 0 0)
(0 0 0)
(0 0 0)
(0 0 0)
(0 0 0)
(0 0 0)
(0 0 0)
(0 0 0)
(0 0 0)
(0 0 0)
(0 0 0)
(0 0 0)
(0 0 0)
(0 0 0)
(0 0 0)
(0 0 0)
(0 0 0)
(0 0 0)
(0 0 0)
(0 0 0)
(0 0 0)
(0 0 0)
(0 0 0)
(0 0 0)
(0 0 0)
(0 0 0)
(0 0 0)
(0 0 0)
(0 0 0)
(0 0 0)
(0 0 0)
(0 0 0)
(0 0 0)
(0 0 0)
(0 0 0)
(0 0 0)
(0 0 0)
(0 0 0)
(0 0 0)
(0 0 0)
(0 0 0)
(0 0 0)
(0 0 0)
(0 0 0)
(0 0 0)
(0 0 0)
(0 0 0)
(0 0 0)
(0 0 0)
(0 0 0)
(0 0 0)
(0 0 0)
(0 0 0)
(0 0 0)
(0 0 0)
(0 0 0)
(0 0 0)
(0 0 0)
(0 0 0)
(0 0 0)
(0 0 0)
(0 0 0)
(0 0 0)
(0 0 0)
(0 0 0)
(0 0 0)
(0 0 0)
(0 0 0)
(0 0 0)
(0 0 0)
(0 0 0)
(0 0 0)
(0 0 0)
(0 0 0)
(0 0 0)
(0 0 0)
(0 0 0)
(0 0 0)
(0 0 0)
(0 0 0)
(0 0 0)
(0 0 0)
(0 0 0)
(0 0 0)
(0 0 0)
(0 0 0)
(0 0 0)
(0 0 0)
(0 0 0)
(0 0 0)
(0 0 0)
(0 0 0)
(0 0 0)
(0 0 0)
(0 0 0)
(0 0 0)
(0 0 0)
(0 0 0)
(0 0 0)
(0 0 0)