/*--------------------------------*- C++ -*----------------------------------*\
| =========                 |                                                 |
| \\      /  F ield         | OpenFOAM: The Open Source CFD Toolbox           |
|  \\    /   O peration     | Version:  v2012                                 |
|   \\  /    A nd           | Website:  www.openfoam.com                      |
|    \\/     M anipulation  |                                                 |
\*---------------------------------------------------------------------------*/
FoamFile
{
    version     2.0;
    format      ascii;
    class       volScalarField;
    location    "0.5";
    object      k;
}
// * * * * * * * * * * * * * * * * * * * * * * * * * * * * * * * * * * * * * //

dimensions      [0 2 -2 0 0 0 0];


internalField   nonuniform List<scalar> 
3259
(
36.99409057
36.99353471
36.98652574
36.97689614
36.96823395
36.96181286
36.95820192
36.95600354
36.90986796
36.9090876
36.90868873
36.90842536
36.98909556
36.98771753
36.95700224
36.91156661
36.86883531
36.8371173
36.79557804
36.7830555
36.73203277
36.72932178
36.72798993
36.72727374
37.01943153
37.02049939
36.97195856
36.88644061
36.78948583
36.71759657
36.64640755
36.61834275
36.55906946
36.55301054
36.55008321
36.54886422
37.1303506
37.12949565
37.05556208
36.92865781
36.78054998
36.64145572
36.52276089
36.4684476
36.39293091
36.38129491
36.37561145
36.37335267
37.40951051
37.39846948
37.26538132
37.05982858
36.83869849
36.63585828
36.4384414
36.33848944
36.2354346
36.21409423
36.20397771
36.19998824
38.09427776
38.02733715
37.69535318
37.3293158
36.98089758
36.6826697
36.40199492
36.23323438
36.08936781
36.05119489
36.03441164
36.02775929
39.7681713
39.5867795
38.50780558
37.78436337
37.22148325
36.78587059
36.41050204
36.157517
35.95332957
35.89297487
35.86650876
35.85609411
42.19098985
39.84551861
38.44632477
37.55948103
36.94188384
36.44557057
36.10810676
35.82952151
35.74022406
35.70087851
35.68556775
46.4931554
41.50956659
39.25103204
37.96981305
37.13688078
36.50032644
36.08037278
35.71808093
35.59478509
35.53969545
35.51846006
49.59958437
43.03375388
40.05858568
38.39595324
37.34815692
36.56811794
36.06778365
35.62026112
35.4593841
35.38636631
35.35819242
51.16456086
44.17203237
40.74783947
38.78351436
37.5507435
36.63815514
36.06514234
35.53492605
35.33630907
35.24429704
35.20849426
51.84123212
44.91602517
41.26683573
39.09933765
37.72656039
36.70144501
36.0645087
35.4624316
35.22598153
35.11537071
35.07161731
46.95949966
42.54296731
50.41776186
47.39777279
52.09248021
50.71309801
52.77656623
52.20655841
52.81629904
39.69895416
42.11695803
39.51952167
50.02309202
43.94110667
46.00442223
41.90139783
40.35567301
54.93799507
55.75387351
49.31045633
43.81352564
42.41340416
54.3261986
53.79274698
51.03709878
45.20649581
44.21393883
55.48283603
54.84491434
39.75659124
56.13911201
55.91982359
55.611572
50.33232485
45.01244792
49.47331138
54.29823129
53.84927222
54.79077873
49.08936467
55.52233075
54.99476615
54.52195671
55.57255104
48.85369431
54.72648261
54.39716744
51.62818668
55.46857738
55.66811596
54.96898814
55.42118283
51.44198772
55.88687693
55.54593804
40.21447737
40.73396428
56.16895112
39.77072735
59.25870459
46.16494035
44.96364089
51.80191973
46.08706737
45.46865361
50.20094638
50.39674041
49.06957148
43.57491522
48.59684786
44.42235363
48.69344277
45.21525949
52.57241327
55.81725247
55.93257134
55.68285309
55.8017081
52.50265357
41.22181031
43.49964876
41.30226697
41.28366874
63.1783726
47.2640284
58.8963616
45.43506102
55.89270984
46.48454265
55.93056479
55.99456103
54.00657877
53.97255559
41.32531694
43.44533319
55.25745331
41.65210353
43.78363691
44.70248533
41.66907473
55.18145738
52.85412257
51.11131803
46.25261056
53.55189707
53.17203512
54.39935663
54.48642977
55.25650062
52.79855352
52.19034499
53.41823599
52.97040892
55.21567821
55.5510773
50.86122407
49.86240924
51.95950049
51.15893686
55.61813864
54.84053972
45.19955191
54.7877937
44.30546081
48.01091132
55.71298969
44.54370552
41.40496824
51.29349444
53.32753954
57.60264253
40.04907813
40.26211667
51.1922916
40.46983644
42.48663851
42.78972636
45.45495806
42.56023604
42.78908182
55.43810838
57.7584057
56.89310216
56.01348511
54.13128654
46.0102418
46.51334645
48.48768361
47.74548092
53.7258407
54.89689818
58.64107195
57.97387421
51.8051562
47.86054996
46.49577616
49.49353997
48.29159853
52.152497
54.05383475
49.63912734
48.80042023
54.56602057
46.77525842
47.12122128
54.56371892
55.57942947
54.29137538
54.17574353
55.02532764
53.84825326
53.53930169
54.12887804
53.92764174
55.04159506
55.75575825
48.51305356
51.7818642
46.86798338
53.46552857
52.34202093
52.49139647
45.25153485
45.32556256
40.94624623
40.1273651
50.39504169
55.36860498
47.25052999
55.78371218
42.26692708
40.58192087
46.88802775
44.42049186
47.50951068
63.77100109
53.45414321
50.16028947
57.01572987
54.18805106
49.5275255
46.7702486
51.32938735
55.28615126
54.75736464
55.6307917
56.04503781
56.61058745
55.64251405
46.7234774
46.12915589
54.07362884
46.63876128
47.12040296
45.40120295
46.36946783
47.29980342
53.77155447
47.62735272
46.92382803
41.32869652
41.56891461
42.02927461
51.52060918
50.77293193
42.86147979
49.24364291
47.99943378
50.4779813
49.62964231
42.43332428
41.07288809
43.15474031
41.54673242
58.28275161
57.97341904
54.56651706
59.30489797
59.95690476
60.15821385
58.91295104
57.85880358
60.13856356
58.81598266
51.96259439
57.07468535
58.31282583
50.73555509
49.83375274
54.13634542
54.57912795
52.02633376
51.06079334
45.78184955
44.96717498
47.6314276
46.27729754
45.7605754
44.4665869
45.14219322
44.69765437
44.30316793
47.52024677
42.9166215
46.84573529
44.00642992
46.66472741
42.41959488
51.07182187
41.80798778
39.88431295
38.72463555
49.45072283
49.1319595
46.24225514
49.35274143
55.93893128
55.80690263
52.95215696
44.41806044
43.94607453
46.26379467
50.69418855
44.37484095
44.49025293
40.80444486
41.12623428
43.25095788
48.7479069
51.86129203
54.39845267
45.54720504
43.7924032
40.34477228
52.33954463
53.63147431
56.04621313
55.12480466
56.80171305
51.58961503
44.47818801
41.82079151
52.10786807
47.67323872
46.07282393
59.66477327
44.94917684
40.92554666
41.80475836
49.69245958
40.62133391
41.64253207
50.56623836
46.0240974
44.56825431
46.29471307
47.38481611
40.42527392
40.42714019
42.30047671
42.55621144
44.92189044
60.73341367
56.73250695
54.52223124
63.67898605
61.36083871
41.26451458
42.22802625
41.69433713
45.9938199
45.34888317
42.37156269
52.43960743
51.78058943
42.33194339
44.76809591
42.43350178
42.57674175
43.46441111
40.05314506
40.29757391
45.52977307
45.51647441
42.85759806
43.14245153
45.16320614
45.67107745
45.99101768
54.61607361
47.29555992
48.5755997
51.43138995
49.35481839
48.9120485
42.74998926
41.83230581
40.1136581
52.69390082
52.041899
56.29912677
40.83560622
48.00666317
44.94260259
48.26435412
47.57213653
41.4911961
43.62880328
44.15580097
47.60015069
53.62899107
53.93027257
53.16404495
53.40461477
57.5071052
56.81332544
57.01969781
56.38552966
56.59947311
57.18002838
48.21412752
48.73681112
48.93917773
48.42823777
48.54367587
48.07554829
58.37817065
57.44297203
57.41642841
57.21098613
57.36818488
58.17833914
49.24874645
49.61524346
49.8432722
49.16041704
49.38076789
49.02055306
52.55238845
52.72288276
51.95978322
52.12900396
53.61684136
53.01924687
51.51563696
43.50810647
53.49969361
56.8749547
61.99200558
57.26367803
58.50539107
55.22982462
48.45127165
60.79616685
55.85026529
45.43883908
45.73067819
50.46724897
43.08416316
45.65319482
52.54337622
47.22512451
48.23996894
46.84674908
60.23435461
57.16805796
60.4646069
55.93146049
58.32118613
60.60070911
61.71256996
61.04269758
54.85146495
54.98808644
55.20991828
54.46836157
54.59921646
54.60906338
56.27238757
55.93928185
56.16287199
55.47026115
55.69526086
55.95751293
46.51431688
49.24083801
49.23652393
46.77141434
47.03440432
45.72133662
46.6420083
46.43901982
46.25158712
47.65718231
47.98453607
47.23742584
48.62951475
48.42295759
49.17330392
48.96692327
47.08116889
45.24415963
43.4667712
41.23672077
46.3632014
46.12890874
45.99141742
41.94978519
45.44239031
45.1056741
42.55918509
42.43730913
43.58733106
58.19365857
57.00625108
56.88062713
57.23173271
57.19807151
58.10370102
59.62080983
59.74681697
58.65008508
61.24053802
61.20445645
61.03515802
61.19418712
58.44841203
60.23725413
60.81862949
62.28585583
60.22617587
50.48977006
50.56444786
50.80807887
50.08128024
50.32271057
50.1300152
51.67007964
51.45044412
51.60759986
51.04931326
51.26981699
51.41965541
44.96322652
45.18040435
45.37223029
43.53973178
44.05833262
44.6654391
45.97747371
45.94259795
46.22834082
46.23116453
44.9124825
44.42625843
44.73672681
44.30256184
45.6609588
45.45147319
44.28914457
46.25387399
41.09928841
41.58810768
40.61387137
40.80549047
46.53323595
45.88797756
45.70560367
42.22295832
43.73687294
47.01894422
50.60154212
36.99895911
36.98184244
37.00628389
37.01126521
36.99200737
37.00739105
36.9777472
36.96795151
36.9634242
36.90640746
36.92385659
36.88529014
36.82190679
36.87911467
36.80406952
36.75593683
36.84423786
37.08071314
37.01131342
37.09181783
37.09880165
37.02480411
37.09230345
37.04729563
36.98801326
37.02536599
36.94232415
36.90927485
36.91093673
36.81081514
36.81117117
36.77734185
36.68115996
36.73192706
37.29957957
37.11813285
37.31765433
37.32839367
37.13634331
37.31194804
37.23163502
37.08046928
37.19618912
37.06583934
36.96337001
37.01675243
36.86618533
36.81810688
36.81682309
36.67663475
36.67240511
37.8280979
37.38910734
37.86311659
37.86932774
37.40663266
37.803204
37.63040051
37.308558
37.55900071
37.3265716
37.11506956
37.24632336
37.01122647
36.89321934
36.93667243
36.73064622
36.68457197
39.43959486
38.04953238
39.45607532
39.2388447
38.03720408
38.9275778
38.4334742
37.78386662
38.26063266
37.79196367
37.42162239
37.65065861
37.26668956
37.06399125
37.1518102
36.84536187
36.75292661
40.81918906
40.88099735
39.78125518
40.33746642
39.69454642
39.26320179
39.46372348
38.51178446
37.94817548
38.26200592
37.64103095
37.34956276
37.46704564
37.02339916
36.88404054
43.80514505
42.57423649
41.37900667
41.09249779
39.43816547
38.73042929
39.0411769
38.11097738
37.75113186
37.86317483
37.25250919
37.07693487
47.8649815
45.41253545
44.37812942
42.68682781
40.40038553
39.68533031
39.85850904
38.61484162
38.23744052
38.29055608
37.50590107
37.31489981
50.33789996
47.4540843
46.80528381
43.92957873
41.23665901
40.62976589
40.58587938
39.0821929
38.73894016
38.69207277
37.7527283
37.56920515
51.50559173
48.60350337
48.285795
44.76773422
41.86913461
41.41782601
41.15029998
39.46880593
39.18992079
39.02836389
37.96917749
37.80980037
51.9909481
49.62984057
49.51511551
41.99717712
39.54953785
38.01582261
46.26467024
47.46142065
48.56101654
42.79438207
43.53265548
43.13811219
50.08457817
51.9177522
52.38445768
48.90336891
49.84115211
48.05557393
51.94796803
53.51261063
53.75079481
52.51218032
52.86639089
50.98470256
52.70799656
53.69960026
53.74962478
53.36604246
53.44376485
52.3192987
53.78335546
53.82992757
52.87203029
49.14863638
50.31808827
50.78782557
40.86335329
50.53569935
48.49214558
41.59777345
41.74650808
42.33002446
39.68993614
40.82759224
40.54137628
49.52225663
50.15104856
50.68909434
44.44616017
45.05847767
44.69631524
44.05907347
42.88183883
44.34352094
41.37798407
42.30599572
42.9471921
41.02787618
41.66047758
40.85938308
55.08823428
53.85496452
53.60902764
56.64498291
56.59816685
55.86505453
46.55276892
45.70765918
48.25294149
43.37559985
44.7069266
45.20654259
43.57018932
44.15803932
42.90854806
54.2449955
52.64981154
52.80911886
51.71123426
51.6086765
53.74792288
48.12537869
47.65541105
50.53441024
44.90986511
46.42123882
46.72911795
45.66110544
46.06233777
44.58101251
55.4108125
54.0954168
54.32527598
51.20641953
51.86029955
54.96444963
40.31912178
40.08355022
39.85871066
56.06117096
53.98718952
54.84259592
55.5919895
55.68876801
55.96068385
55.42980806
56.62565655
56.65786935
51.21570557
51.75123064
50.79861575
45.83800858
47.06896696
45.73840019
50.01191726
48.75751725
48.14064905
51.96023467
51.48872911
53.46079445
53.91039333
51.95508107
51.82932567
53.34111288
53.12842995
54.67209357
51.1283834
51.74406354
49.50378246
55.38061834
54.59081409
54.46910126
55.48202348
55.41209173
55.07205907
55.06412793
52.78117516
52.36565994
54.36904893
54.13094945
55.67511669
48.23821673
50.12092686
50.90478806
54.59092948
50.16952437
50.98757482
52.91653795
53.01488106
54.45832657
53.28707792
53.46861271
51.8034408
55.50953804
55.79076757
55.78679263
54.39199818
54.31415194
55.60114891
54.94339914
55.5922961
55.54402444
55.78076149
55.77135313
55.13504714
51.22233855
52.96012486
53.22098352
55.84284062
55.38641255
55.49688678
54.51596498
54.68559178
55.60947808
55.07169361
40.79254919
46.97630574
50.33731148
48.21317274
49.38150969
48.74661285
51.57887843
45.9058414
47.44148225
47.61308764
47.00296944
47.23322868
45.70181073
49.64787266
42.16733694
43.89498308
46.4163197
46.78889583
49.48486302
45.41396831
44.12598906
42.97690786
47.4711098
46.84643374
47.94586939
43.69655691
44.13300264
45.40602526
48.27425148
45.26467744
45.79898533
41.77898126
42.25172576
45.75250747
53.61202239
53.66396129
52.65645917
55.87460462
54.80998713
54.49358793
54.82297562
54.81330717
55.88430481
55.73432831
54.4534429
54.41272218
54.49516419
54.46728554
55.74700593
52.4068619
53.50285304
53.5632586
42.17785378
43.01380856
43.23351577
43.62214734
41.22663027
42.11564928
41.9599542
42.22664219
42.24488493
41.21388307
48.57639701
51.13646577
48.39938796
49.66620755
46.30495937
44.90123721
53.4196169
52.0484583
55.40734492
45.28688676
46.512281
48.04296479
55.70107497
55.57374191
55.87444892
56.02650918
56.02968013
55.91518418
52.25824782
52.27067311
54.02520792
53.91920388
52.08421123
52.21248452
53.56051606
53.8465422
55.33556232
41.75073153
44.39937539
43.84425771
47.56073274
47.11933392
43.28525908
43.35183474
43.03552855
41.83640663
55.06463838
52.08706972
52.40481373
52.31788435
48.25973974
49.16331493
44.58720542
45.82864467
51.73158024
55.09837682
55.4010042
53.89504703
52.78877259
54.2863303
54.70909542
52.78787847
52.64873179
54.31051649
54.55131513
52.98984311
52.9119758
55.13085381
55.00995465
55.34650936
52.60838751
53.80452883
53.97428794
53.39317703
53.61714541
52.41000175
53.27906465
54.40416257
54.52175179
54.13050064
54.27448501
53.13407956
55.10804959
55.33094357
55.23791012
53.48315746
53.11716175
55.21307177
50.54665567
51.69967012
52.02983932
50.96389944
51.34425889
50.21298499
51.70673855
52.90656937
53.16730373
52.34656495
52.62941352
51.44293303
55.69138507
54.08339732
53.75005285
48.95847746
49.83023702
55.10799069
54.73169904
53.47620887
53.58925093
46.03740651
52.31560819
52.61760837
53.16199449
52.76885699
46.58092753
55.65945891
54.84551762
54.99742005
43.96408257
41.05521124
41.33383468
41.28933996
41.02655866
41.60014973
49.99499542
40.03490876
41.13142413
40.55252548
42.58018461
43.31812483
43.76480331
43.30310319
42.49252343
45.58974765
43.67462483
44.58016787
44.95392967
45.90834567
42.67989778
43.55682608
43.26839432
43.77596987
43.6575186
42.76177382
54.50521509
54.15736689
55.26155444
55.95176419
56.51535695
56.42421042
52.37894333
52.5109443
54.16794544
46.00211412
49.59004016
49.35043004
50.31012534
49.94759615
46.17387261
53.72055862
51.53259529
51.52961727
56.2832289
56.48594393
55.18509654
49.95741538
49.34201139
50.88090309
47.41644082
48.21909486
48.73374346
47.15941516
47.7054623
46.96272559
49.10904364
50.13646998
50.56520643
49.21918802
49.69337728
48.70767066
53.14019226
51.01505547
50.49092966
52.2219463
52.08870911
53.98200627
54.57839565
52.91134645
52.83436375
46.92013527
50.6933061
50.54707908
50.90013715
50.79441121
47.01913718
54.51086334
53.08284307
53.1669354
55.79153635
55.79198134
55.54221434
54.25591771
55.16075126
55.17338459
55.11819487
55.14319394
54.22186465
55.67132794
55.63842247
54.95425653
53.7532178
54.80410572
54.87721823
54.62734619
54.72132739
53.65524635
54.06774623
55.04666328
55.08704808
54.94214823
54.9993287
54.00566427
55.10145344
55.73259299
55.71146836
55.1363373
55.27122331
55.80426813
49.36510673
53.82111303
53.53272307
54.36205266
54.09961291
51.2075852
49.39916324
51.63141965
57.11685556
40.65293927
39.89966524
39.88187563
40.20854795
40.02422929
40.29878442
48.34896206
41.40465678
40.55595343
40.53330026
40.77403939
40.61645379
40.87100851
46.41746676
42.81862358
43.42212337
52.1402485
54.3320245
56.01701756
51.96149307
53.59807025
51.45561234
56.87106497
58.23042786
55.36097717
48.32763726
49.72610486
51.16893347
47.69157731
48.82153784
47.74218103
52.75541363
50.38908871
49.3394177
55.76554814
55.23670957
54.93487325
56.30195031
56.19119573
56.04383633
49.2669246
49.2353774
46.31095802
54.05463093
52.28364976
52.31626359
51.64417483
51.86621033
53.84672559
45.42500776
44.94435372
41.88330115
51.300333
48.6740309
49.05211835
47.74895931
48.23403678
51.01714008
48.84788573
44.93778258
45.46967868
44.11514794
44.44047814
48.39366813
50.23708785
46.78047687
47.24098082
45.95868649
46.35881868
49.89783896
42.13069904
42.83798936
42.697379
39.80612712
39.88950147
42.06498902
42.69105994
40.25907916
40.55774208
39.92473786
40.02874146
41.95619646
54.23884225
55.72243887
55.99509812
53.27935616
53.78394116
52.37264713
57.71045383
55.77050009
55.22796066
56.62327258
56.27847919
58.15412246
54.21989561
52.5060355
52.36355619
52.89550177
52.98820275
54.58525969
45.42193456
43.43925453
43.36394838
43.93808493
43.70591189
45.18497814
47.26485004
43.72470223
43.89534712
43.39304222
43.54550396
46.81441727
40.87617836
40.92176463
43.38827976
41.96576633
40.87275555
40.84141668
41.14366072
40.41769972
40.59028771
39.4507123
39.84304367
40.42059973
38.96008429
39.38288834
39.06572791
47.76165107
47.88917889
46.37684578
56.02281158
54.84301009
54.82822032
54.87746171
54.85379595
55.78722671
44.17113115
44.99277773
45.27795636
44.39068445
44.94149688
43.94595488
49.75990231
45.67066508
45.59567163
46.52005825
48.61129331
54.12405912
44.45475392
45.29998392
45.03301755
45.53637141
45.50491862
44.47714989
41.73417487
41.54701817
41.06208978
42.70902382
41.99756464
42.08783405
49.13998553
49.64430285
49.2391116
52.78291448
51.01491498
50.3224174
52.36117042
51.63771916
53.51283854
44.97330471
42.07453154
42.62644464
40.99878414
41.48256926
44.36105284
40.00309453
39.89145322
39.8193637
52.77834836
54.81793685
54.59631595
55.19560657
55.01239616
53.23126786
55.85434621
53.65284236
52.98788663
54.72971364
54.16980297
56.24789818
51.13753313
52.2607637
52.76650348
43.31254079
40.85804664
43.59266255
43.12229925
44.75687269
44.28105207
41.22926302
49.7791274
47.52132975
47.46313079
45.54071854
46.06059914
46.61684355
47.00012648
46.12954571
45.52352374
44.05198957
44.65178705
47.83673189
40.32968451
41.46379802
41.11076493
42.45791306
41.98771607
40.34970654
42.36861403
42.70137492
42.61211756
42.93236397
42.90260328
42.44938966
44.12628369
43.32366275
43.76827714
52.22996557
50.1730337
50.40512091
49.44518071
49.78114661
51.99129688
42.73907043
46.5178571
45.98472906
53.25003385
53.36091538
54.67023838
47.61338938
51.25478382
51.04599838
51.73298179
51.51010793
48.09334506
43.80947613
44.37801517
44.16920851
44.8882001
44.62009229
43.99027658
46.51706429
45.39801728
45.76616815
36.98822952
36.99042738
36.99453709
36.98522266
36.97584063
36.99061597
36.96283155
36.94805716
36.98179186
36.93314588
36.91908811
36.97229944
36.90669956
36.89646315
36.96476538
36.88884808
36.88129133
36.95986774
36.87596837
36.8721086
36.95698002
36.99159594
36.99447238
36.99057756
36.99165441
36.98724452
36.98532848
36.95698802
36.94170384
36.9469617
36.89875421
36.88331719
36.90067148
36.84442873
36.83223032
36.86022528
36.7448655
36.73201336
36.80396847
36.71876271
36.70819678
36.78854112
36.70065105
36.6967946
36.77921731
37.03742989
37.0429706
37.0244544
37.03844686
37.02978293
37.01287081
36.98457218
36.96347918
36.95247507
36.89024772
36.86286178
36.86068343
36.77953924
36.75436814
36.76802013
36.65599928
36.6103423
36.66710279
36.580682
36.55874525
36.63063591
36.5429427
36.53370854
36.60962089
37.17994761
37.18784057
37.13764569
37.1788894
37.1625488
37.11839965
37.09286362
37.06153585
37.02730642
36.95198334
36.91200879
36.89250466
36.78785397
36.74763448
36.74353825
36.63223366
36.53222798
36.56450621
36.47531334
36.43296538
36.49204709
36.40257252
36.38337284
36.45134191
37.5304261
37.54005559
37.42193387
37.51079829
37.46833949
37.38252464
37.34626352
37.29206646
37.2187637
37.11221956
37.05008769
37.0042623
36.86578708
36.80730461
36.78574769
36.66756999
36.51639909
36.51441066
36.41479387
36.33839878
36.38080665
36.28418547
36.24798403
36.30871062
38.40525358
38.41091468
38.11538838
38.24271841
38.14385308
37.9734123
37.85701302
37.74728518
37.60559827
37.42375709
37.32071335
37.23891776
37.03166065
36.94330424
36.90147052
36.75645407
36.54267187
36.52467464
36.40364444
36.28232246
36.30475922
36.19280336
36.12956551
36.1829819
40.05769153
40.10480578
39.85692143
38.79147102
38.54631245
38.30805581
37.93058746
37.75580945
37.63073301
37.29778779
37.16527891
37.10152836
36.89952466
36.6058407
36.56994467
36.42520445
36.26415611
36.26870272
36.13017243
36.03199995
36.07535683
42.72307181
42.42524465
41.98848822
40.25174438
39.74870417
39.41784594
38.63696548
38.35287454
38.19176063
37.6574529
37.4666886
37.38427995
37.08592324
36.70264103
36.65061494
36.47096781
36.27144667
36.26599177
36.0920447
35.95426376
35.9890273
46.9826445
46.1534872
45.72230091
41.92022675
41.12927751
40.78629872
39.45464103
39.04474485
38.87158934
38.07685434
37.81940254
37.72894279
37.29534732
36.82087086
36.7600985
36.53343321
36.29159633
36.28027719
36.07275572
35.89414081
35.92184591
49.86970499
48.84010289
48.57216194
43.36025687
42.36748611
42.08345277
40.23832717
39.71734535
39.56142765
38.49795459
38.17703467
38.08965065
37.50251926
36.9443376
36.88297352
36.60363389
36.31863453
36.30429469
36.0658875
35.84852489
35.87091351
51.29581841
50.29016849
50.14928711
44.39556822
43.30069171
43.09729393
40.88877717
40.28662525
40.16281313
38.87110263
38.49820872
38.42185946
37.68669092
37.0588494
37.00337919
36.67141677
36.34745259
36.33274175
36.06561429
35.81413937
35.83242692
51.90507236
50.95348346
50.90648265
45.05515873
43.92782355
43.79308354
41.36688871
40.7125474
40.62399618
39.16192994
38.75253956
38.697383
37.10928253
36.35997387
35.80162457
40.08814056
45.27979077
44.81506319
45.45701858
48.29378872
47.9871914
48.99366273
50.02107079
49.85660938
50.88165238
56.11218056
56.03223108
56.09175641
53.32738345
53.07144114
54.04608625
55.47296796
55.48552366
55.46835306
55.46571337
55.47355901
55.01475964
54.72330029
53.75698858
53.52744856
55.45228067
55.42409286
55.61655204
55.78071925
55.78421993
55.6531995
54.95501862
55.46154413
55.46298357
56.13885582
50.83605158
50.77827835
51.72652753
44.17303347
43.77297285
43.43654337
55.84257863
55.70634549
55.70468085
55.62883671
55.64193404
55.91386646
55.7013947
55.76806778
55.772854
55.72035066
55.72770928
55.78017787
41.15777949
41.4942422
41.49325463
41.4975841
41.51514029
41.29970163
46.73363678
45.75589766
45.06205577
55.51674977
55.51888429
55.28858569
55.17992231
55.50722216
55.51223341
54.77522099
54.62138422
55.45430465
55.675128
55.03024825
54.89701239
53.7024163
53.77638198
54.88545978
44.85824872
48.46103844
48.08031698
50.52977084
50.24271291
47.5703077
51.32937044
51.05449667
51.45609462
52.48501592
51.84348118
51.54550175
55.51038601
55.49725366
54.99828098
55.06289275
55.5424968
55.52598178
48.83080282
51.15277793
50.85705098
41.59365387
41.19792852
41.33064968
55.95347952
55.60504968
55.61629716
52.90626276
53.86437235
53.90383554
40.90725547
41.40224538
41.26956778
42.99219572
42.6794648
42.73737389
55.98806742
55.76337203
55.85301843
44.94816037
45.49573427
45.05422086
44.71959255
44.13207567
44.23963189
36.99043536
36.98490836
37.0108455
37.00109703
36.99708606
37.00154917
37.00259317
37.01246152
36.99239324
36.99594867
36.99516886
37.00048153
36.99193305
36.99801493
36.97143089
36.98342249
36.99101624
36.97652644
36.97876483
36.9685282
36.94558794
36.94238011
36.95886526
36.90606865
36.92622727
36.9279283
36.93504336
36.92805182
36.91250044
36.86223103
36.87042359
36.88938565
36.83691374
36.85446288
36.84269455
36.88907311
36.87021366
36.85614594
36.7858619
36.80732175
36.8226135
36.78237923
36.79503347
36.77066473
36.85154245
36.8222213
36.81213922
37.051075
37.02840764
37.09846327
37.06703868
37.06101398
37.06703145
37.0688879
37.1007794
37.02616918
37.04488556
37.04335934
37.08094781
37.05232031
37.06161277
37.02211361
37.03925313
37.06605635
37.00233433
37.01795657
37.00239678
37.00002932
36.97911154
37.00222043
36.92669991
36.95421296
36.97245694
36.93231431
36.9410432
36.91575289
36.87803053
36.86819731
36.89826798
36.80711962
36.83822526
36.84455397
36.83550807
36.83557404
36.80618895
36.74260096
36.74570498
36.7759181
36.69402469
36.71880737
36.7101202
36.74941113
36.73202411
36.71161601
37.22453794
37.16602019
37.32668532
37.24916852
37.23994038
37.24398995
37.24934813
37.33121837
37.13921488
37.19088683
37.18840361
37.28608854
37.22277844
37.23568466
37.17206491
37.20049094
37.26119554
37.1018885
37.14340394
37.12023302
37.15600271
37.10422813
37.13987904
37.02459129
37.06572127
37.11241836
36.99660495
37.02730994
36.99048197
36.96650502
36.937002
36.98159643
36.84507696
36.89113953
36.91623056
36.85565952
36.87110839
36.82932875
36.76875419
36.7561146
36.79994442
36.67216484
36.71345192
36.7220701
36.70723311
36.70891042
36.67055716
37.64394236
37.50596745
37.87222213
37.69003391
37.67299613
37.65291295
37.67653137
37.8865698
37.41818796
37.54796936
37.54303876
37.73789893
37.62057224
37.64688029
37.50448675
37.56378291
37.69173755
37.34879216
37.43566081
37.39495937
37.48337321
37.37942015
37.44368717
37.24437519
37.31272187
37.4057985
37.16863641
37.233918
37.17364774
37.16672394
37.10411861
37.17430084
36.96535764
37.03445383
37.08827978
36.94875966
36.98806346
36.92617457
36.86496853
36.83363806
36.89831708
36.71137149
36.77141627
36.79630604
36.73443706
36.7508616
36.69648941
38.73950524
38.34951111
39.50056044
38.82507307
38.8102549
38.65195461
38.73541828
39.36473029
38.07899182
38.42913205
38.38137338
38.76248033
38.49107479
38.61737865
38.17988929
38.32021149
38.61255073
37.87414635
38.06584046
37.96442037
38.09636233
37.91013261
38.04373187
37.65359323
37.78012124
37.94027972
37.51404995
37.63772836
37.52986442
37.51615419
37.41325253
37.53082878
37.19152616
37.30021261
37.38820054
37.15033017
37.22057827
37.1240906
37.04341505
36.99038652
37.08819702
36.81023895
36.89792899
36.94131165
36.82563699
36.85937435
36.77988232
40.8773565
40.51944099
40.49386439
40.45390237
40.487844
40.94392837
39.83273234
40.16841332
40.14089373
39.10417332
38.81219198
39.10946947
38.30927215
38.54784476
38.78974985
38.12248758
38.32359108
38.1193533
38.03644362
37.89174257
38.09130097
37.53680464
37.70717756
37.83010261
37.48590981
37.59245084
37.44005942
37.30700058
37.23332845
37.37912133
36.97353706
37.09841531
37.15937736
36.98924443
37.0418104
36.92701387
43.38127858
42.8886331
43.19647619
42.11720088
42.48048151
42.92150988
40.43916218
40.09156207
40.66892907
39.19816782
39.60898064
39.89716517
39.05019212
39.32297888
38.95762518
38.6940818
38.52418327
38.84006851
37.98872058
38.24206119
38.38627063
37.96093521
38.09765933
37.86703461
37.63929166
37.55241825
37.75982824
37.19226348
37.36381785
37.4364067
37.22393842
37.29251736
37.13332022
46.95303831
46.55766964
47.42600842
45.06978416
45.76823096
46.12854054
45.00869444
45.39965684
44.75932103
41.78159386
41.46205541
42.31195559
40.17037159
40.76059606
41.03249429
40.18918235
40.47674383
39.92675871
39.38960871
39.22284691
39.66412502
38.4912394
38.83479696
38.97863455
38.53611849
38.68399326
38.36345383
38.00029612
37.91054273
38.18494054
37.4421844
37.66393335
37.73979661
37.5114248
37.5874052
37.37825197
49.30698128
49.07684177
50.111521
47.26051582
48.12541088
48.34951692
47.64339773
47.89970587
47.03254705
42.87507515
42.63085444
43.65545485
41.04767396
41.77513988
41.99046945
41.29531381
41.54102483
40.84047402
40.01888211
39.87650209
40.42134555
38.97349722
39.39731238
39.52128081
39.12464535
39.2607557
38.85691602
38.34339308
38.26151041
38.59708418
37.6927971
37.96140438
38.03159648
37.81524085
37.88963095
37.63216617
50.51151224
50.38718823
51.39333611
43.64986244
43.48369819
44.58886625
41.73625772
42.54584281
42.695294
42.19257491
42.37389262
41.57791369
40.52041106
40.41045073
41.03023409
39.38129089
39.86472582
39.96331725
39.64707046
39.75590345
39.287393
38.63504267
38.56755692
38.95127169
37.9178183
38.22453673
38.28345423
38.09875895
38.16471579
37.8665493
42.83247418
42.95675912
42.10994119
40.05507573
40.13466165
39.62031127
38.33766884
38.38649951
38.05984259
47.83921232
47.21027339
46.8158311
47.85321103
47.49481291
48.20725669
52.08709311
51.16894862
50.9902672
51.49298912
51.33473627
52.2350096
49.23051242
48.46057741
48.13226431
49.02499238
48.73019963
49.54430572
53.56363751
52.87837803
52.83395997
52.64316247
51.77873772
51.6411035
52.03189006
51.91084505
52.75203296
40.38991013
40.09262389
40.05211645
39.67580491
40.72956278
40.30556887
40.33616356
40.12553153
40.19950656
40.62690784
43.64319707
44.19493888
44.61213076
43.34360737
43.77904318
43.32460495
44.93559971
44.34674517
43.85911529
46.28777511
47.08948989
47.38107362
46.46309545
46.78941858
46.01187204
48.65191303
47.66877502
47.31846874
47.99568446
48.88882247
49.05356232
48.53825621
48.7318445
47.81725203
50.7227685
49.69747064
49.50192106
51.42417383
53.26965506
53.14621317
53.54430888
53.42007678
51.6584587
55.91282319
55.98096677
56.0862579
54.3039403
55.50239451
55.35240892
55.75379955
55.63004307
54.58672027
46.25564659
45.81837571
45.36432279
46.52692062
46.1058201
46.6692045
53.76474253
52.85352687
52.57527122
51.34866673
50.42263852
50.20528061
50.80653554
50.60452172
51.54507702
55.51268577
55.49484821
55.41819541
54.64058687
55.05925188
55.2147612
54.89819092
55.00380144
54.52555429
55.04604763
55.48008407
55.48763022
54.1416569
53.93731251
54.90241963
54.29655286
54.67832584
54.80220377
54.3847381
54.5464365