/*--------------------------------*- C++ -*----------------------------------*\
| =========                 |                                                 |
| \\      /  F ield         | OpenFOAM: The Open Source CFD Toolbox           |
|  \\    /   O peration     | Version:  v2012                                 |
|   \\  /    A nd           | Website:  www.openfoam.com                      |
|    \\/     M anipulation  |                                                 |
\*---------------------------------------------------------------------------*/
FoamFile
{
    version     2.0;
    format      ascii;
    class       surfaceScalarField;
    location    "1.46";
    object      meshPhi;
}
// * * * * * * * * * * * * * * * * * * * * * * * * * * * * * * * * * * * * * //

dimensions      [0 3 -1 0 0 0 0];
oriented        oriented;


internalField   nonuniform List<scalar> 
6464
(
0
0
0
0
0
0
0
0
0
0
0
0
0
0
0
0
0
0
0
0
0
0
0
0
0
0
0
0
0
0
0
0
-2.105398447e-08
0
1.019330723e-08
1.791799675e-08
0
0
0
0
0
0
0
0
0
0
0
0
0
0
0
0
0
0
0
0
0
0
0
0
0
0
0
0
0
0
0
0
0
0
0
0
0
-1.664498191e-06
9.839113817e-06
3.207412277e-06
-9.660938615e-06
-1.134987194e-05
7.656683929e-06
2.072885849e-05
-6.603945968e-06
-5.37246312e-06
3.040176999e-06
1.480021287e-05
-1.945386553e-06
0
6.496182452e-08
3.326985631e-07
0
0
0
0
0
0
0
0
0
0
0
0
0
0
0
0
0
0
0
0
0
0
0
0
0
0
-1.288632372e-05
9.554269674e-05
1.797216278e-05
-9.462019842e-05
-6.347782168e-05
8.371527124e-05
8.147006829e-05
-7.761576948e-05
-6.783728911e-05
5.394584622e-05
9.204253275e-05
-4.499634189e-05
-2.656987581e-05
1.915081429e-05
4.474049406e-05
-1.204599334e-05
0
3.411481518e-07
9.063932889e-07
0
0
0
0
0
0
0
0
0
0
0
0
0
0
0
0
0
0
0
0
0
0
-3.667306235e-05
0.0002758693304
4.287684185e-05
-0.0002743918806
-0.0001389259877
0.0002551965036
0.0001569715591
-0.0002437132591
-0.0001742310255
0.0001945936936
0.0002021467111
-0.0001736462522
-0.0001242181968
0.0001115928803
0.0001544780262
-8.706450453e-05
-2.756474713e-05
2.615425857e-05
4.356576912e-05
-1.314739174e-05
0
0
0
0
0
0
0
0
0
0
0
0
0
0
0
0
0
0
0
0
0
-5.549838341e-05
0.0004660791779
5.663802397e-05
-0.0004657332083
-0.0002015456531
0.0004597568409
0.0002092356337
-0.0004507134145
-0.0002960914195
0.000412528138
0.0003126321709
-0.0003783856253
-0.0002390688428
0.0002598555473
0.000266136395
-0.0002191480267
-0.0001021610708
0.0001008628032
0.0001226409916
-6.765972725e-05
4.772856268e-06
-2.731593892e-06
4.814756373e-06
-7.489757492e-08
0
0
0
0
0
0
0
0
0
0
0
0
0
0
0
0
0
0.0002963417265
-2.367025554e-05
2.379258261e-05
-0.0002964640535
0.0003081303905
-0.0002326425713
-0.0006276976181
0.0003225181296
0.000115835011
0.0001138566583
0.0005876839517
-0.0003412676931
0.000349816107
-0.0005632770505
-0.0003332196388
0.0004410265845
0.0003478552841
-0.0003852298882
-0.0001779233754
0.000204789905
0.0001961030954
-0.0001508833575
3.061113223e-05
-2.207949157e-05
2.876254656e-05
-9.783783547e-06
0
0
0
0
0
0
0
0
0
0
0
0
0
0
0
0
0
0.0003736618703
-0.0001045851151
0.0001040158282
-0.0003730925834
0.0007455294764
-0.0003618318642
0.0003635609644
-0.0007292868806
-0.0003846054966
0.0005982561391
0.0003902873516
-0.0005332801189
-0.0002344500089
0.0003104467201
0.0002407946286
-0.0002373954196
6.444633122e-05
-4.446482473e-05
5.140455227e-05
-2.83349597e-05
0
0
0
0
0
0
0
0
0
0
0
0
0
0
0
0
0
0.0004397217756
-0.0001028594041
0.0001026271857
-0.0004394895572
0.0008854350301
-0.0003638425728
0.0003636156231
-0.0008741072645
-0.0004057415367
0.0007384657948
0.0004085594501
-0.0006653235942
-0.0002620721937
0.0004040704558
0.0002664628151
-0.0003150809787
9.389307394e-05
-6.017884994e-05
6.305018536e-05
-4.569603425e-05
0
0
0
0
0
0
0
0
0
0
0
0
0
0
0
0
0
0.0005058899984
-0.0001017932645
0.0001015825769
-0.0005056793109
0.001016938821
-0.000362411309
0.0003618796093
-0.001003531476
-0.0004057858621
0.0008466050145
0.000403896003
-0.0007623941211
-0.0002632005021
0.0004615984149
0.0002613257172
-0.0003596104954
0.0001064195826
-6.106538869e-05
6.016042913e-05
-5.146120525e-05
0
0
0
0
0
0
0
0
0
0
0
0
0
0
0
0
0
0.0005726712302
-0.0001007463378
0.0001004961794
-0.0005724210717
0.00114718711
-0.000358696982
0.0003570923257
-0.00112171955
-0.0003886895102
0.000918438002
0.0003808738231
-0.0008208977526
-0.0002400729117
0.0004776841799
0.0002334631599
-0.0003648143854
9.519261883e-05
-4.747517142e-05
4.455432227e-05
-4.085222407e-05
0
0
0
0
0
0
0
0
0
0
0
0
0
0
0
0
0
0.0006378781919
-9.941236281e-05
9.927809791e-05
-0.000637743927
0.001259624832
-0.0003508799956
0.0003477856663
-0.001213167504
-0.0003559851532
0.0009491399071
0.0003480026044
-0.0008348186581
-0.0002031316022
0.000451923184
0.0001884174841
-0.0003321765673
6.874922667e-05
-2.961079126e-05
2.521415304e-05
-2.235197348e-05
0
0
0
0
0
0
0
0
0
0
9.400823227e-05
-0.0004305129558
-9.423935785e-05
0.0002168185207
0.0002139255607
-9.748479264e-05
0.0003752788822
9.586778076e-05
9.213603743e-05
-0.0004980069868
-9.241334267e-05
0.0002501670018
0.0002481172903
9.325981517e-05
0.0002213348397
0.000219135353
9.133076885e-05
-0.0005637895094
-9.10095844e-05
0.0002826752116
0.0002807931133
9.192778643e-05
0.0002537858299
0.0002523124195
8.946968732e-05
-0.0006292018807
-8.993608879e-05
0.0006296682822
0.0005729901069
9.101189213e-05
0.0006381404633
8.920741586e-05
-1.371104014e-05
1.360351468e-05
-0.0003669853925
-9.674837638e-05
0.0003662489762
-9.912453575e-05
0.0003051190903
0.0001021358359
1.488745743e-05
-0.0001011140472
-1.491281712e-05
0.0001011394069
-0.0001884812533
-3.162245501e-05
0.0001889677162
3.113599208e-05
-0.0004303311786
-0.0001030411813
0.0003282096124
-0.0008499806639
-0.0003294412529
0.000851473434
-0.0003317039346
0.0007510803737
0.0003293832005
1.650018017e-05
-0.0001169280131
-1.642213487e-05
0.0001168499678
-1.49403209e-05
-0.0001094064239
0.0001094379605
1.490878432e-05
-0.0004978537532
-0.0001019464981
0.0003263995988
-0.0009852777989
-0.0003269018436
0.0009858226408
0.0008860778264
0.0003276655996
1.442807508e-05
-0.0001338429155
-1.450798336e-05
0.0001339228238
-1.531512666e-05
-0.0001256985283
0.0001253678416
1.564581333e-05
-0.0005637737658
-0.0001007620814
0.0003237236211
-0.001114267702
-0.0003247419927
0.001117275466
0.001017617925
0.0003258748901
2.727510855e-05
-0.0002994542668
-2.741079238e-05
0.0002995899507
-2.795504884e-05
-0.0002854952453
2.732871348e-05
0.000143475516
0.0001426460646
0.0001679407562
4.873534053e-06
-0.000167457203
-5.357087205e-06
2.63211942e-05
-0.000332572546
-2.625680347e-05
0.0003325081553
-2.690648194e-05
-0.0003181427871
0.0003181586601
2.68906089e-05
-0.0001088936185
-1.493953727e-05
0.0001088928348
-0.0001013491826
0.0001014436894
1.479295068e-05
-9.49239723e-05
-0.0004067714571
9.449505088e-05
0.0002050545283
0.0002021458503
-3.230832207e-05
0.0001016353252
3.19441432e-05
-0.000202620329
1.550191975e-05
-0.0001088944074
-1.550113085e-05
-0.0001249475744
-1.495948658e-05
0.0001245919343
-0.0001178801687
0.0001177234187
1.665693012e-05
-4.76330541e-05
-0.0002358117077
0.0002358664282
4.757833362e-05
-1.687176427e-05
1.6901089e-05
-0.0001179094934
1.564045395e-05
-0.0001251618302
-1.542619817e-05
1.547040508e-05
-0.0001093749093
-0.0001170133802
-1.678639722e-05
-0.0002333639233
-4.76394199e-05
0.0002333702891
-0.0002830233129
-2.791131453e-05
0.0001417527354
0.0001412268433
-0.0001342860675
0.0001342623411
1.445180155e-05
-9.117087063e-05
-0.0005386909487
9.119442426e-05
0.0002701747426
0.0002684926525
-3.060873593e-05
0.0001344159424
3.038435867e-05
-0.0002684776327
3.022317347e-05
-0.0002829736046
-3.027288177e-05
1.585055842e-05
-0.0001259086327
0.0001331080819
-0.0002666325916
-1.510946284e-05
-1.581767887e-05
-0.0005305301718
-9.165158837e-05
0.0002665031091
0.0002645077805
-0.0003162475718
-2.695690501e-05
0.0003162979949
-0.0003017778064
0.0003017885848
2.726433008e-05
-3.308041936e-06
-0.0001672998367
0.000166755166
-4.221069222e-06
0.0001688537834
0.0003342775645
-0.0001672936822
1.974316672e-05
-9.590499105e-05
-4.382177466e-06
8.054400179e-05
-9.644296193e-05
-1.246469169e-05
9.774969191e-05
1.115796171e-05
4.811417077e-05
-0.0001474321294
-2.142352737e-05
0.000120741486
-0.0006289679171
-9.964632642e-05
0.0003216479272
-0.001234302873
-0.0003225784646
0.001249856521
0.001150950173
0.0003237366715
4.668519147e-05
-0.0001631451607
-1.759717383e-05
0.000134057143
1.709107131e-05
-0.000324437881
-1.731846543e-05
0.0001625764817
0.0001620887935
-9.045430819e-06
-0.0001588822122
0.0001588591757
9.068467386e-06
-3.516974175e-05
3.359458964e-05
-0.0001869061012
0.0001002136309
-0.000200921889
-3.271411119e-05
-0.0003980175238
-9.4122561e-05
0.0001997758142
0.0001974402983
-0.0001586386866
-9.176772126e-06
0.0001587700279
-1.08614743e-05
-0.0001551059081
0.0001555715333
1.039584911e-05
-9.057479968e-05
-0.0006044716915
0.0006047400603
9.030643088e-05
-2.983157981e-05
2.970206904e-05
-0.0003016482956
2.936277095e-05
-0.0003161465625
-2.946378018e-05
3.002313204e-05
-0.0002852952038
-0.0002994483855
-2.983746112e-05
-0.0005969566969
-9.069890788e-05
0.0005970808051
-0.0001638409036
-7.236671972e-06
0.0001638540578
7.223517821e-06
-0.0001858831935
-3.185681915e-05
0.0001861175576
-0.0003489383615
-6.728772405e-05
0.0001758968638
0.0001663921688
3.482408608e-05
3.911296687e-05
-1.335275898e-05
1.361623279e-05
-0.0001641043774
-0.0001212546299
0.0001409977966
-3.021430788e-05
-0.0001957790113
2.986534138e-05
9.825884982e-05
9.786912798e-05
-1.263511065e-05
-9.985384145e-06
-9.863413509e-05
-1.196256122e-05
1.133263738e-05
-9.581303809e-05
-9.805583739e-05
-1.048426431e-05
-0.0001929468786
-2.958989022e-05
9.65699313e-05
9.575252967e-05
-1.437108523e-05
-0.0001133240734
0.0001133378935
1.435726521e-05
-0.0001130444115
-1.443645772e-05
0.000113109784
-1.424957755e-05
-0.000130380899
0.0001303077395
1.432273708e-05
-0.0001302865113
-1.445527419e-05
0.0001304922079
-0.0001497916985
1.086170108e-05
-9.763074267e-06
0.0001486930717
-0.0001503049986
0.0001912661525
7.153016867e-06
-2.762589138e-05
-0.0002930992857
0.0002931026849
2.762249225e-05
-1.27744936e-05
1.064079893e-05
-0.0001481713039
1.138717168e-05
-0.0001501009184
-1.107795176e-05
-1.144220602e-05
2.146761338e-05
-0.0001408961476
0.0001308707402
-0.0001465826552
-1.362396777e-05
-0.0002912328533
-2.766979294e-05
0.0001458558166
0.0001454209382
1.643386857e-05
-0.0003325060539
-1.656054944e-05
0.0003326327348
-0.0003264098009
1.684289396e-05
0.0001636409195
0.0001630170588
0.0002103049916
2.739656871e-06
-0.000166359457
-1.509008665e-05
-0.0001055011976
0.0001053025978
1.528868641e-05
-0.0001046909546
-1.512855316e-05
0.0001047294212
-1.362058296e-05
-0.0001219648894
0.0001218979662
1.368750614e-05
-0.0001215759389
-1.366940062e-05
0.0001216247565
1.462250318e-05
-0.0001214868664
-1.471157567e-05
3.805616731e-05
-0.0002418120888
-3.812099454e-05
0.000241876916
-3.823708889e-05
-0.0002359972697
0.0002360274776
3.820688096e-05
3.794049757e-05
-0.000250254747
-3.796756438e-05
0.0002502818138
-0.0002441108366
0.0002441448688
3.802213511e-05
1.462513214e-05
-0.0001219675183
1.511065695e-05
-0.0001129881249
-1.516694357e-05
3.832275715e-05
-0.0002252704484
-3.834873826e-05
0.0002252964295
-3.845267736e-05
-0.0002192630822
0.0002192886757
3.842708384e-05
-0.000233451595
-3.826343249e-05
0.0002334779386
-0.0002272956404
0.0002273095733
3.830882428e-05
1.514319106e-05
-0.0001133566075
-1.450987775e-05
-0.0001383622408
0.0001384174808
1.445463774e-05
-0.0001384189421
-8.916657793e-06
0.0001358933939
-0.0001378215078
-1.462415032e-05
0.0001379357804
0.0001504725351
1.17392179e-05
-0.0001508245814
0.0001549769522
1.070555785e-05
-0.0001546605105
-1.102199957e-05
2.706456372e-05
-0.0003080755015
-2.723667473e-05
0.0003082476125
-1.133518506e-05
0.000155450663
0.0001495277572
1.180647896e-05
-1.853851969e-05
0.0002288435113
-0.000334162216
0.000334064655
-0.0001122641493
-8.982619309e-06
0.0001212467686
9.617219753e-06
-0.0001605321661
-9.538206786e-06
0.0001604531532
-6.154122548e-06
-0.0001587891092
0.0001584042688
6.538962977e-06
0.000105528675
1.197942414e-05
1.6512697e-05
-0.0001340207962
-0.0001593984494
-7.606309093e-06
0.000160850636
-4.211523934e-06
-0.0001579210391
0.0001563278711
5.804691948e-06
-0.0001720054733
-3.790471613e-06
0.0001736439891
3.469602517e-06
-1.317646747e-06
-9.650613018e-05
-1.321197937e-05
9.725341786e-05
-0.0001838140521
-2.808970614e-05
0.0001794147655
3.24889927e-05
-1.546191605e-05
-0.0001744994409
9.964501859e-06
7.991381815e-06
-1.556682251e-05
-0.0001148051507
0.0001142981031
1.607387006e-05
-1.192655599e-05
1.186781019e-05
-0.0001094985153
0.0001095572611
1.178795729e-05
-0.0001113413935
-1.187016532e-05
0.0001114236015
1.473230196e-05
-0.0001111259425
-1.479730426e-05
0.0001111909448
-1.500101398e-05
-0.0001321400886
0.000132024592
1.511651056e-05
-1.490489351e-05
0.000131373931
1.531284971e-05
-0.0001317818871
1.149020215e-05
0.0001357614209
-0.0001350041887
-1.224743439e-05
-1.17603905e-05
1.166161453e-05
-0.0001245588009
0.0001246575769
2.244827438e-05
-0.0001274143396
-1.379897233e-05
0.0001187650375
1.607325465e-05
-0.0001273564015
-1.61861192e-05
0.0001274692661
-1.509614256e-05
-0.0001067956699
0.0001069535721
1.493824043e-05
-1.325166453e-05
0.0001302270967
-9.859097075e-06
-0.0001071163351
-0.0001088049158
-1.114713886e-05
0.0001080254987
1.548179829e-05
-0.000104617237
-1.555551589e-05
3.853831048e-05
-0.0002081371776
-3.863654626e-05
0.0002082354134
-3.863368238e-05
-0.0002027390581
0.000202692139
3.86806015e-05
-0.000216939589
-3.849425868e-05
0.0002169811703
-0.0002109717288
0.0002109867435
3.852329575e-05
1.554192869e-05
-0.000105561328
-1.416669932e-05
-0.0001234807004
0.0001232515071
1.439589256e-05
-1.11659026e-05
1.149645923e-05
-0.0001226958718
0.0001223653151
-0.0001238316999
-1.141201292e-05
0.0001234833224
1.567647578e-05
-0.0001201667308
-1.633298758e-05
0.0001208232426
0.0001331751842
1.221204958e-05
-0.0001338970316
0.0001336676915
1.523556855e-05
-0.0001346196785
-1.428358151e-05
1.485148884e-05
-0.0001354928953
-1.474070003e-05
0.0001353821065
3.021652235e-05
0.0001370193646
-0.0002746092094
-3.044818548e-05
-0.0002742988077
3.730379053e-05
-3.747290757e-05
0.0002744679248
-3.759194828e-05
-0.0002684700629
0.0002684815977
3.758041349e-05
1.465065541e-05
-0.0001299500849
-1.498708177e-05
3.791175902e-05
-0.0002585344721
-3.789169002e-05
0.0002585144031
-0.0002524290332
0.0002524768372
3.789269364e-05
-0.0002666834413
-3.758950928e-05
0.0002666810023
-0.0002606756817
0.000260943744
3.764369674e-05
1.455783934e-05
-0.000130288083
-0.0003098584569
0.0003098959358
2.702708488e-05
1.042920479e-05
-0.000154829555
1.945637496e-05
0.0001582230949
-0.0003164699623
-1.98481942e-05
-4.666690607e-05
-0.0001692221293
0.000213341791
2.547244365e-06
-1.083203463e-05
-9.862586274e-05
9.766477031e-05
1.179312707e-05
-1.631883195e-05
2.868116595e-06
-9.881343394e-05
-9.759223693e-05
-1.003900394e-05
9.679920623e-05
-4.483175228e-06
-0.0001404843229
8.170607706e-06
0.0001367968904
-0.0001438608767
1.189980022e-05
0.0001274779013
8.672200638e-06
-0.0001628593594
-8.840535275e-06
0.000163027694
-0.0001615903599
0.0001622902826
8.917297101e-06
-1.763218699e-05
-0.0002076241528
0.0002252563398
4.459553077e-06
-2.224048877e-05
-7.905500825e-05
8.871014326e-06
-4.275775048e-06
-8.131909193e-05
0.0001546543307
-5.74380693e-06
7.34925261e-06
-0.0001562597763
0.0001596576819
7.624547404e-06
-0.0001580065936
-9.275635655e-06
9.663672102e-06
-0.0001566252851
-9.985586647e-06
0.0001569471996
-4.680438094e-05
0.0002022505389
1.499672198e-05
4.598723585e-06
0.0001350588851
-0.0001236186756
-1.972055035e-05
0.0001433392259
1.219131238e-05
-9.932010829e-05
-1.228746632e-05
9.941626223e-05
-1.224878394e-05
-9.776422884e-05
9.790347063e-05
1.210954216e-05
1.197583884e-05
-0.0001009286481
-1.280726609e-05
0.0001017600754
-9.939016099e-05
9.953885691e-05
1.204261647e-05
-9.687712449e-05
-1.296613277e-05
9.759447332e-05
-1.282013614e-05
-9.521380664e-05
9.547127495e-05
1.256266784e-05
-1.266637268e-05
1.14045062e-05
-9.736399626e-05
-1.172443747e-05
1.137366435e-05
-0.0001138278779
0.000114178651
-0.0001366084495
-1.933567489e-05
0.0001559441244
-0.0001143927604
-1.495874902e-05
0.0001137846869
-0.0001114304632
0.0001115219733
1.464079182e-05
1.185297824e-05
-0.0001116910281
0.0001116260072
-0.000113363224
-1.174178458e-05
0.0001133805711
0.0001282524494
-1.109666298e-05
1.209612202e-05
-0.0001292519085
0.0001291631357
-0.0001301651492
-1.390288004e-05
-0.0001312890408
-1.490425104e-05
0.0001311922778
1.330008012e-05
-1.137096245e-05
0.000127234018
-9.640322172e-06
1.02692883e-05
0.0001276234833
9.502558746e-06
-9.200380693e-06
0.0001354592428
2.240103887e-05
0.0001222729722
-0.0001294622213
-7.535266167e-06
0.0001273571653
-0.0001282560432
0.0001287432049
1.558609292e-05
4.687349952e-05
-0.000130484766
0.0001060595409
-0.0001302711811
-1.028770317e-05
-1.233950331e-05
-0.0001493526808
0.0001498743159
1.181786826e-05
-0.0001475163763
-1.057004109e-05
0.0001457469141
1.21540176e-05
-0.0001485530924
-1.11173015e-05
1.208485752e-05
-0.0001487874588
-1.219139447e-05
0.0001488939957
-1.283713879e-05
-0.0001462999614
0.0001466494534
1.248764686e-05
8.086888547e-06
-0.0001446983244
-7.249440907e-06
1.243796311e-05
-0.0001440262918
-1.253940163e-05
0.0001441277303
-1.262002097e-05
-0.0001426502805
0.0001425196511
1.275065039e-05
-0.0001459041672
-1.295966574e-05
0.0001460266941
-0.0001441802148
0.0001440640729
1.255410506e-05
1.019523734e-05
-0.0001425926717
0.0001653067444
7.926614136e-06
-0.000165418063
-7.815295557e-06
7.547147843e-06
-0.0001648369059
-7.767081776e-06
0.0001650568398
-0.0001635780544
0.0001639664278
8.283827186e-06
0.0001046957879
-1.283127797e-05
1.312685743e-05
-0.0001049913674
0.0001063820576
-0.0001064120069
-1.322171525e-05
-0.0001060835376
-1.525122481e-05
0.0001062386199
2.072009447e-05
-1.234167746e-05
9.800364059e-05
-1.05451032e-05
1.163672271e-05
0.0001036041684
0.0001509471912
1.334002511e-05
-0.0001019594791
-1.278866147e-05
0.0001014081154
-0.0001013380071
0.0001015853209
1.172852506e-05
-0.0001043621255
-5.227569185e-06
9.904459147e-05
-0.0001032961454
0.0001032152312
1.342093934e-05
-1.492756528e-05
-0.0001036206023
0.0001035284242
1.501974344e-05
-1.399165699e-05
1.376812453e-05
-0.000103072613
-0.0001044647255
-1.272867791e-05
-1.12389278e-05
1.100692757e-05
-0.0001217515739
0.0001219835742
-0.000122654244
-1.130827684e-05
0.0001227966182
-0.0001232374418
-1.395200941e-05
0.0001230227519
-0.0001207934918
0.0001217353827
1.473458493e-05
-3.797791889e-06
-0.0001569741931
0.000160771985
-0.0001212163688
-1.098386239e-05
0.0001209613034
1.350517383e-05
-0.0001404168607
-1.415068064e-05
0.0001410623675
-1.186769751e-05
-0.0001381824756
0.0001373159328
1.273424039e-05
-0.0001415612701
-1.235252689e-05
0.000141293776
-0.0001411893414
0.0001423307579
1.236375734e-05
-1.086343559e-05
-0.0001841136636
0.0001949770992
1.485146563e-05
-1.355110878e-05
0.0001323673346
0.0001316987058
1.09790371e-05
-0.0001391240241
-1.243575782e-05
0.0001396920844
-0.0001354433678
0.0001347987955
1.549603786e-05
-0.0002001494256
0.0002151461475
-1.07181469e-05
-0.0001525554831
0.0001521802979
1.109333207e-05
-3.074884462e-06
8.86078493e-06
-0.0001484035657
0.0001426176652
-0.0001580059287
-4.788730381e-05
-0.0001513446664
1.445845909e-05
0.0001338113228
-0.0001524310827
-1.096433216e-05
0.0001526772679
-1.719995455e-05
0.0001358397929
-0.0003674732911
-0.0001040972165
-0.0007132913978
-0.0003336756708
0.0007217930013
-0.0003195643713
0.0006036000286
0.0003239065854
-7.243095447e-07
6.950372218e-06
-0.0001535048393
0.0001472787766
1.725245217e-05
-0.0001568403054
0.0001388635437
0.001280843518
0.0003203424332
-0.0002040954305
0.0002213478827
2.931887097e-05
-0.0003180988871
-0.0006623987139
-6.080533895e-05
0.0003302787625
-0.0006620233477
-8.906673043e-05
0.0006620635352
-8.757518712e-05
-3.125378502e-06
8.97642659e-05
9.362997256e-07
9.970268403e-06
9.256150605e-05
-1.113802584e-05
-9.139374861e-05
0.0001017398869
-9.838179701e-05
8.621334276e-06
-9.828555871e-05
-1.858003965e-05
0.0001078829791
-9.266188275e-05
-1.375052327e-05
9.096108157e-05
1.545132445e-05
-8.985588801e-06
1.009779347e-05
-8.868739179e-05
-0.0001010173388
-0.0003376109413
0.0003406430095
9.798527071e-05
-7.832768458e-05
7.535465765e-05
-0.0003459653346
-0.0001862941908
-3.475874441e-05
-9.87358509e-05
-1.51356861e-05
9.860230209e-05
1.526923492e-05
-1.262018957e-05
1.248084357e-05
-9.925081499e-05
1.316755823e-05
-0.000101120114
-1.297609234e-05
6.318076907e-06
-0.0001665904646
-6.474355488e-06
0.0001667467432
-0.0001653822574
0.0001657892566
7.140148634e-06
6.04739207e-06
-0.0001673429073
0.0001593743344
1.943215922e-05
-0.0003182323309
1.936122205e-05
-0.0003242950838
-1.950401925e-05
2.658555584e-05
-0.0003239824847
-2.66619957e-05
0.0003240589246
1.324071023e-05
-0.0001014111591
-0.000102271235
-1.367990105e-05
-0.0001028740717
-1.485647069e-05
0.0001028029771
1.52975239e-07
0.0001644998155
0.0001675305936
-3.981581574e-06
-0.0001677700813
4.378120071e-05
-1.166743454e-05
0.0001354168275
0.0002127879594
-0.0001669150188
0.0001669302518
1.155705739e-05
-9.547240783e-05
7.953317297e-05
-1.113913178e-05
-0.000142850171
0.0001325657754
-8.348698626e-06
8.32794514e-06
-0.0001631244072
0.0001586623635
-5.733705052e-06
-0.0001612773571
-2.678385977e-06
0.0001437435757
-7.673081138e-06
7.829073288e-06
-0.0001589451013
9.311336735e-06
-0.0001606214383
-9.222064555e-06
8.911115205e-06
-0.0001605421561
-8.854739039e-06
0.0001604857799
-0.0002005069346
-3.871857446e-05
0.0002005918267
-3.921489094e-05
-0.0001943432704
0.000194064037
3.949412432e-05
-3.273961928e-05
3.214652278e-05
-0.0001951859148
-0.0001568624162
0.0001571867001
9.339388125e-06
7.546177228e-06
-0.0001578426689
-0.000159106911
-7.964619528e-06
-3.579527814e-05
-0.0001777167166
0.0001808939764
3.261801834e-05
-3.170419656e-05
3.02576307e-05
-0.0001823674862
-9.513289826e-05
-1.333579314e-05
-9.779328896e-05
5.515812928e-06
8.229209188e-05
-1.140529015e-05
1.179937489e-05
-9.81873737e-05
-1.159235793e-05
-9.844706731e-05
-2.096720407e-05
-0.0001249572768
0.0001459244809
-9.936288397e-05
-1.11100049e-05
8.950568479e-05
0.0001503443972
-9.894542237e-06
-0.0001502129292
7.510217777e-06
-6.327724866e-06
0.0001491619042
0.0001460635792
1.013971027e-05
-1.248427852e-05
0.000203750431
-0.00014768929
4.170574243e-06
0.0001310344372
8.105370132e-06
-0.0001486416432
-0.0001500902392
1.184548335e-05
-1.1880892e-05
0.0001501256479
-0.0001489902361
0.0001490531673
1.202192634e-05
1.207418526e-05
-0.0001492728485
-0.0001449944086
4.752207965e-05
0.0001189399423
-1.347739897e-05
1.257568709e-05
-0.0001440926967
-1.238546813e-05
-0.0001419880784
-0.0001641655495
0.0001619894237
4.915782741e-06
-6.620914033e-06
7.153106014e-06
-0.0001646977415
-0.0001646524259
-9.351168046e-06
1.216538016e-05
-0.000135178397
0.0001323641849
-5.754228657e-06
-0.0001354296037
0.0001318326643
-1.058112023e-05
-0.00014022329
0.0001380205908
-8.627676278e-06
-0.0001399740348
-5.115562796e-06
0.0001342194958
9.654329399e-06
-0.0001390420211
0.0001236334631
-0.0001805229911
0.0001901773205
-0.0001361322699
0.0001361717909
1.481196787e-05
1.559551872e-05
-0.0001358033179
1.308418481e-05
-0.0001384885039
-1.371970494e-05
2.003118142e-06
0.0001414477858
-1.875520839e-05
4.725529439e-05
-0.0001607643425
0.0001322642565
-0.0001554387731
0.0001436339369
4.246169403e-06
-2.682206049e-06
-0.0001567205814
7.461911495e-06
8.170880988e-06
-0.0001583524994
-7.322045599e-06
9.924270122e-05
-7.540795861e-05
-3.164653946e-06
-0.0001308561422
0.0001256438744
-0.00013296592
0.0001590022643
-7.878143005e-06
-0.0001587304304
4.592700057e-05
-1.776230332e-05
0.000130837567
3.69904236e-06
1.598415141e-05
0.0001366446773
-0.0001551591063
0.0001410958453
-0.0001572325573
-1.562000639e-05
-9.267447844e-05
9.399267945e-05
1.430180538e-05
-1.83345116e-05
1.961734048e-05
-9.394471163e-05
-9.743226445e-05
-1.717212621e-05
-6.513768792e-06
1.198851864e-05
-0.0001149253109
0.000109450561
1.122215363e-05
-0.0001137077026
9.59717802e-05
-1.276855062e-05
1.248418569e-05
-0.0001168962248
0.0001171805897
-0.0001158471291
0.0001150670972
-0.0001101017057
1.195859633e-05
0.0001100109195
-1.369284045e-05
1.37052441e-05
-0.0001101141093
-1.37240631e-05
-0.0001094672926
-1.362761761e-05
1.357129772e-05
-0.0001112850736
0.000110867588
-0.0001107899615
0.000110956019
-0.0001248339291
1.204281383e-05
0.0001244527298
-1.428667966e-05
1.494041608e-05
-0.0001254876656
-1.394841218e-05
-0.0001248970684
-1.554874515e-05
1.569548535e-05
-0.0001275610798
0.0001254986956
-0.0001261070247
0.0001237425371
-0.0001078905578
5.777475327e-06
9.225398545e-05
-1.358432293e-05
1.351728851e-05
-0.0001078235234
-1.369277658e-05
-0.0001070078814
-1.36659078e-05
-0.0001088630711
0.0001082402173
-0.0001083888366
0.0001028705538
-0.0001234234401
1.140898039e-05
0.000123510919
-1.305670835e-05
1.326160187e-05
-0.0001236283337
-1.280121945e-05
-0.0001229513607
-1.358022219e-05
-0.0001241998899
0.0001236723458
-0.0001239909662
0.0001236693133
-1.292948426e-05
1.398831365e-05
-0.0001185302701
0.0001174714407
-0.0001173858904
0.0001169405918
-2.178762563e-05
4.540221631e-05
-0.0001215050932
9.789050253e-05
-0.000119800185
0.000112000873
2.037859213e-05
0.0001437565286
-1.733770554e-05
0.0002306794966
-0.0001668500234
0.0001378448833
-0.0001682843606
0.0002331665515
1.392607096e-05
9.29644417e-06
7.444225518e-05
-0.000121356085
0.000135282156
-9.800590054e-05
-0.0001248068505
0.0001276749671
-1.37633418e-05
-1.039460043e-05
-0.0001006489083
-9.936560357e-05
-1.321117217e-05
-1.368773418e-05
-0.0001173066108
0.0001309943449
-9.44879387e-05
7.040560409e-05
-0.0001403853988
0.0001374168747
-0.0001871984565
0.0001990982567
-0.0001601345724
0.0001398239994
-3.753082186e-06
-0.0001621151953
-0.0001641219406
4.611106188e-06
-1.864740837e-05
-0.0001571660149
0.0001290090423
0.0002182346903
-0.0001532717845
0.0001392230998
-1.23679875e-05
-1.084560847e-05
-0.0001004050796
9.804872228e-05
-9.861733489e-05
8.384398486e-05
9.992334824e-05
-1.239560701e-05
-0.0001003350073
1.28756402e-05
-1.231517593e-05
-1.032156125e-05
-3.94352086e-06
-9.830530128e-05
9.113881724e-05
-9.957081347e-05
8.478168415e-05
-0.000113622417
1.201602593e-05
0.0001129800555
-1.279798149e-05
1.248057467e-05
-0.0001133050102
-1.314527595e-05
-0.0001134805834
-1.240866507e-05
-0.0001129776308
0.0001129205549
-0.0001128486453
0.0001056009059
-0.0001122650028
1.190780642e-05
0.0001122101746
-1.350045148e-05
1.343090365e-05
-0.0001121954549
-0.0001116201819
-1.325885936e-05
-0.0001132496406
0.000112976434
-0.0001128043897
0.0001131424559
-0.0001286468069
0.0001277272507
1.301567831e-05
-1.301081283e-05
-0.0001294605602
1.382456608e-05
-1.229795036e-05
-0.0001299647709
-1.09440645e-05
-0.0001281931386
0.0001277662407
0.0001270524745
0.000175673204
-4.743867527e-05
-0.0001374349094
-8.503171718e-06
0.0001841763757
6.133123977e-06
0.0001208229471
-0.000134964052
0.0001099264155
6.887617665e-06
-0.0001313948483
0.0001169719645
-0.0001692995922
0.0001761872099
-0.0001325326198
1.010652707e-05
-1.469729003e-05
1.285156425e-05
-0.000130686894
-0.0001294865707
-1.204012544e-05
-0.0001305290061
0.0001315760244
-0.0001307645856
4.773795717e-05
-2.065822908e-05
0.0001227945878
-0.0001524067743
0.0001938170066
-0.0001504834482
-1.358950327e-05
0.0002074065099
-3.60491117e-06
9.305206817e-06
0.0001403632836
0.0001319674898
0.0001445369706
-0.0001470016416
9.696393974e-06
0.0001390111509
0.000134785079
-1.062681473e-05
-0.0001444018067
1.033029705e-05
0.0001469258177
-0.0001449769454
-0.0001058957567
1.325720502e-05
0.0001057654091
-1.389516704e-05
1.382530917e-05
-0.0001058258988
-0.0001051551943
-1.37313401e-05
-1.374091515e-05
-0.0001063638683
0.0001064079263
-0.0001063235323
0.0001064434161
-1.161015815e-05
0.0001057118968
0.0001057919737
0.0001007512933
-1.219132632e-05
-0.0001013486284
1.103849527e-05
-9.836833819e-06
9.95496318e-05
1.272968929e-05
9.971692141e-05
4.364083283e-06
8.689967634e-05
-0.000100806892
9.533414142e-05
-0.0001012696932
1.004890141e-05
-0.0001046425201
8.936604948e-05
2.112914177e-05
9.481577872e-05
-0.0001283414263
0.000149470568
-0.0001048715855
-0.0001216486739
1.132778057e-05
0.0001213278209
-1.226674528e-05
1.249583055e-05
-0.0001218777592
-1.221589098e-05
-0.0001218024282
-1.265444359e-05
-0.0001228010199
0.0001222685721
-0.0001224271852
0.0001222880759
-0.0001228263845
8.640478508e-06
0.0001103881141
-1.157212986e-05
1.145308569e-05
-0.0001227073404
-0.0001231441067
-1.188491428e-05
-0.0001215473455
0.0001211754612
-0.0001216072898
0.0001188320773
-2.198493358e-05
4.763047479e-05
-0.0001421169207
0.0001164713795
-0.0001376855584
0.000127866005
-0.0001413051008
0.0001253261024
-7.857015139e-06
-0.000142075762
-0.0001443402039
0.0001314423571
-1.232581589e-05
-0.00013266765
1.0848293e-05
-1.032577535e-05
0.0001309198395
1.301282743e-05
0.0001302028002
9.369247426e-06
0.0001284625823
-0.0001309145883
0.0001299580604
-0.0001322613671
0.0001414702594
-1.447581326e-05
-0.000139430204
9.019859806e-06
-4.807259142e-05
9.669923069e-06
2.248308508e-05
0.0001253285379
-0.0001388197755
0.0001132302692
-0.0001377995509
-0.0001501814049
2.020158126e-05
0.0001388406086
-9.813617165e-06
1.177453624e-05
-0.000152142324
-7.146886995e-06
-0.0001510702958
-1.135534025e-05
-0.0001561331671
9.482578624e-06
0.0001550606283
-0.0001546414323
0.0001273749058
-2.034297434e-05
4.769852292e-05
-0.000152235804
0.0001248802554
-0.000147750493
0.0001367127255
-5.813764003e-06
-0.0001526777894
0.0001967391287
-0.0001548543697
0.0002111975877
-0.000160407294
0.0001452104576
-3.229302636e-06
-2.007777746e-06
1.093969296e-06
-2.043742828e-08
-3.154537453e-06
-7.197680412e-07
-2.346400223e-06
1.026011542e-05
-4.572484758e-06
2.698730573e-06
0
-2.00494161e-09
4.877976021e-09
-1.935914387e-06
-4.728693855e-06
-6.548398892e-07
8.031647872e-06
-1.850993562e-06
1.058039125e-06
0
0
0
-3.246581488e-07
-6.570106861e-07
0
2.882597478e-08
0
3.834452367e-09
0
0
0
0
0
0
0
0
0
0
0
0
0
0
0
0
0
0
0
0
0
-6.410512969e-05