/*--------------------------------*- C++ -*----------------------------------*\
| =========                 |                                                 |
| \\      /  F ield         | OpenFOAM: The Open Source CFD Toolbox           |
|  \\    /   O peration     | Version:  v2012                                 |
|   \\  /    A nd           | Website:  www.openfoam.com                      |
|    \\/     M anipulation  |                                                 |
\*---------------------------------------------------------------------------*/
FoamFile
{
    version     2.0;
    format      ascii;
    class       volScalarField;
    location    "2.06";
    object      nut;
}
// * * * * * * * * * * * * * * * * * * * * * * * * * * * * * * * * * * * * * //

dimensions      [0 2 -1 0 0 0 0];


internalField   nonuniform List<scalar> 
3259
(
1.108768115
1.108893745
1.156604683
1.156430304
1.156277079
1.156170818
1.156086362
1.156054408
1.155828919
1.155835106
1.155856069
1.155882146
1.020599479
1.010234676
1.085035254
1.15741342
1.15660732
1.155992604
1.155506201
1.155283876
1.154957907
1.154984938
1.155051053
1.155130926
0.797371452
0.7953565622
0.8648323434
1.006279343
1.157660634
1.156245615
1.155180121
1.15465522
1.154190448
1.154158423
1.15424119
1.154369385
0.5331676871
0.5479612905
0.6146148183
0.7354208899
0.9313776275
1.157407085
1.155344036
1.154292539
1.153462205
1.153375611
1.153451569
1.153615644
0.3224555161
0.3381053868
0.408021352
0.520282197
0.6891669179
0.9539251438
1.156258538
1.154303512
1.152968123
1.152644464
1.152664605
1.152844467
0.1602511808
0.1868816737
0.2611951584
0.369519268
0.5209765174
0.7486071462
1.103912413
1.154773936
1.152616593
1.151972092
1.1518889
1.152059754
0.05875207755
0.09255520269
0.1705444933
0.2736943459
0.4123949753
0.6096596942
0.9429521142
1.155786316
1.152446465
1.151360743
1.151106548
1.151240263
0.05271464241
0.1289409985
0.2230780807
0.3497401507
0.5286084966
0.8314126814
1.157153178
1.152498271
1.150843504
1.150347767
1.150416091
0.06388377298
0.1256985663
0.2082615766
0.322961287
0.4863571708
0.7672529692
1.13242172
1.152766731
1.150447504
1.149655145
1.149633618
0.08941161096
0.1425435726
0.2173471104
0.3258672271
0.4802794978
0.7377134146
1.071665149
1.153274837
1.150249769
1.149113218
1.148980342
0.1219189093
0.1722109192
0.2445163438
0.3466086771
0.4908733896
0.7374463775
1.038161058
1.15399391
1.150265174
1.14878197
1.14852795
0.1593480803
0.2141515951
0.2886858115
0.3903579663
0.5291042612
0.7630886172
1.035330973
1.154947972
1.1505427
1.148713563
1.14833427
0.05692918503
0.04557501715
0.0819925369
0.05987161122
0.115193023
0.08591584024
0.1461093537
0.1201054057
0.1500716848
0.05903425919
0.04707919873
0.08784061659
0.02905276204
0.01960629858
0.0613718763
0.1066588381
0.1092954835
0.03196579272
0.04720351138
0.08603376744
0.1222291065
0.1090104353
0.05537207246
0.03967139943
0.1177563469
0.1502827361
0.1282580479
0.1016530931
0.07507212134
0.01841519358
0.137249252
0.1323689357
0.04836854173
0.03027671069
0.0489073456
0.03214118135
0.04745507329
0.03928241659
0.03179330877
0.0714136973
0.04675249311
0.05287616083
0.04879605641
0.04698710447
0.06992972183
0.07154583589
0.05671202872
0.1026233503
0.07710686894
0.09851330295
0.05338723435
0.07432909329
0.09823604941
0.1312067806
0.1057816044
0.01340319521
0.01225301025
0.1390808762
0.02087878299
0.01819777652
0.008458201885
0.009243459587
0.1523104221
0.1873426059
0.1586921916
0.01081474468
0.06003035669
0.05216431976
0.02247643985
0.03044656603
0.04737537249
0.05055736803
0.03639092651
0.1347346207
0.1256685325
0.133677777
0.1019482331
0.1243502581
0.1315243964
0.02336343187
0.01980063639
0.0306136997
0.02221154351
0.01672026163
0.02319773359
0.02088869738
0.01006950224
0.01685780454
0.02194960192
0.04062641009
0.04128843
0.04760423337
0.04649891818
0.01857646792
0.009987171187
0.08978712755
0.01567379997
0.02850678761
0.009349060387
0.01333416343
0.08588333738
0.07621222303
0.06419301776
0.01060441175
0.03914766318
0.03842336094
0.0376318239
0.03733954835
0.05029936395
0.06879558385
0.06412939676
0.07521946105
0.07046162021
0.050591899
0.05601222233
0.05640198
0.05126697389
0.06247475279
0.05782736783
0.05497491628
0.06763729176
0.009187736439
0.06631289941
0.03036509729
0.04473111773
0.1176067074
0.03390605584
0.01999006612
0.007172295148
0.08045639582
0.00349805551
0.01938321874
0.01465693434
0.005899867842
0.01302329713
0.01073085532
0.009652224776
0.008683175476
0.01284414701
0.009031252426
0.03450632146
0.0147674515
0.01382162361
0.04416535959
0.05160396348
0.01513288005
0.02071632048
0.009920579222
0.009982004452
0.0414665013
0.04571919773
0.01677674051
0.01488392609
0.03778423977
0.04316927578
0.03890197893
0.04964653629
0.04468438268
0.03923121252
0.038441297
0.0102140969
0.009968541572
0.0332033395
0.02197921189
0.02398872973
0.06047498201
0.08567326257
0.1027845845
0.09503117206
0.05980775864
0.08290006888
0.07715971426
0.09221205415
0.0851570383
0.06096780263
0.1216431316
0.04710269129
0.06390047094
0.01105590566
0.01216896764
0.006306299971
0.01180488333
0.009287314404
0.009127010164
0.0283451291
0.02174383338
0.007019480165
0.01121057584
0.007279713313
0.01175080957
0.01063991115
0.01351500927
0.0426423372
0.01017665727
0.009897025075
0.01648965798
0.0217939971
0.01834820733
0.02949763173
0.02315985509
0.01796359755
0.01614034513
0.01249474025
0.01267853377
0.009887322073
0.0365086894
0.04345287549
0.01356380681
0.01278452715
0.0141980413
0.0146976883
0.05032720907
0.009342431003
0.009449058985
0.01194115428
0.009504731956
0.009489258078
0.04265261254
0.009646393644
0.0139383517
0.0129386395
0.01173436291
0.02067105048
0.05356949121
0.0485106514
0.01081692996
0.0396304041
0.03387446472
0.04667263803
0.04171363828
0.01127527147
0.01153956626
0.03699634744
0.03085924147
0.02350443148
0.02226938939
0.0441935402
0.01602788007
0.01615807859
0.01270725781
0.02346242265
0.02776494962
0.01682287342
0.02366982602
0.03447514544
0.03226657441
0.02466822792
0.01060825282
0.01032552183
0.03820781426
0.03460875517
0.01031452278
0.01072572299
0.02479150398
0.02104734129
0.03221024535
0.02684677072
0.006882847518
0.01342951501
0.0125738945
0.01964717735
0.01382825091
0.006623986175
0.02803379821
0.00974189921
0.01006899654
0.009708541501
0.02610004851
0.01079546106
0.05416211967
0.11484146
0.1485531978
0.01039816986
0.01022082654
0.1986847836
0.006883397329
0.1379733345
0.1438318613
0.1612374647
0.004855351785
0.007528437148
0.005583643724
0.004900593142
0.005852467623
0.004576421387
0.05786963352
0.03619330793
0.02277194247
0.02590494548
0.02321354016
0.02727346166
0.04510024088
0.03914605056
0.01260168264
0.06791985838
0.08000239363
0.1353664772
0.02873691497
0.03343076906
0.03305723001
0.0110158756
0.01141331603
0.01109182477
0.01088449022
0.04679950768
0.01576320226
0.009462212101
0.01153607125
0.01091211611
0.01075910318
0.02374863113
0.02948167708
0.05978598021
0.0375594614
0.03431723909
0.02529967785
0.04470895627
0.01545285125
0.02149799183
0.02353398058
0.0148885695
0.01017638357
0.01953868158
0.01990401061
0.01819723279
0.01573822984
0.01932799817
0.01700155859
0.01056537744
0.01119866392
0.006528499181
0.009335425623
0.01065758082
0.06052177486
0.05521022976
0.02248403159
0.009181888841
0.01371518363
0.01248248984
0.01086846782
0.0144211696
0.01279871252
0.009173995282
0.009188014885
0.01206155043
0.01156503631
0.00918771903
0.009083407426
0.00723908072
0.0617773508
0.02496146719
0.03069590275
0.01077171489
0.01056560472
0.01054355287
0.010646551
0.01099077124
0.01601745381
0.006475055038
0.004204983973
0.007814275792
0.01178277968
0.0101489814
0.01051122087
0.01009345307
0.01028693618
0.01088952061
0.01026685526
0.006795346275
0.00533222497
0.01264905291
0.01302080272
0.01224385668
0.01234346887
0.01433252375
0.02195146632
0.02226278915
0.02151472366
0.02178016882
0.01420043429
0.009824774462
0.01667294965
0.01665234877
0.01721610735
0.01679501104
0.009673845217
0.01590860718
0.0246839884
0.0274365583
0.02255717179
0.02329293733
0.0154233871
0.01018145679
0.01666927941
0.01666810732
0.01661459774
0.01665920221
0.01005976296
0.01181728998
0.01203990896
0.01139053878
0.01197544276
0.01095892014
0.00749644845
0.01096652316
0.01096406198
0.007408425176
0.01072174282
0.01069857831
0.01519248302
0.004260841679
0.009163947796
0.007104956641
0.006008663627
0.007080047454
0.009300330154
0.006629024129
0.01056684927
0.01070532094
0.01045642138
0.008408729208
0.01012731434
0.006708213993
0.0101067466
0.02042151605
0.0211141173
0.02047923113
0.02707514167
0.02526375649
0.01972302533
0.01845414318
0.01977111555
0.01210447989
0.01938139058
0.02056097018
0.0139880761
0.0193996873
0.0129742243
0.0132965608
0.0210836234
0.02133191671
0.02060186521
0.02094812874
0.01310874745
0.01436410455
0.02489590685
0.02446154352
0.009407753094
0.009418745758
0.01051811509
0.008199986639
0.00916185859
0.009277382561
0.009399377762
0.009103082772
0.01136444566
0.02060369939
0.01842648986
0.02378259683
0.02256387119
0.01309713903
0.009367457745
0.01006030588
0.01492130989
0.006503044332
0.009541939397
0.009508697464
0.01137748975
0.009364734562
0.00956457307
0.01800436616
0.0160139408
0.009862124733
0.02342903382
0.03353708874
0.03403712498
0.03049765688
0.03153528046
0.02207224693
0.01522163519
0.01635902845
0.0250263336
0.01782887755
0.01693467594
0.01900949001
0.01802710707
0.02540044714
0.01727882108
0.01798610437
0.01424472325
0.01851458373
0.01050573018
0.01672457693
0.01674795065
0.01670783524
0.01673430804
0.01045918527
0.01074959664
0.01554064341
0.01350921806
0.01666235117
0.0163736765
0.0107506413
0.009127899799
0.009327015695
0.009040288977
0.01104856985
0.009960870437
0.01308504001
0.009249410072
0.009210689893
0.009208989368
0.009227258239
0.01295255963
0.01759113423
0.01012634812
0.01139824032
0.009360018894
0.009156807683
0.01521138532
0.009930129586
0.01146919556
0.01109964856
0.0143113851
0.01244076405
0.009916033001
0.009552199245
0.009735040015
0.01057841708
0.01014684801
0.006538670487
0.01096980742
0.8672629983
1.026916116
0.8691358645
0.8481660262
1.00722981
0.8549358505
0.9048974364
1.069963377
0.9259514337
1.03514191
1.157666247
1.073673599
1.157645585
1.156786013
1.157270453
1.156350254
1.15612339
0.6025368354
0.8089351647
0.5948362929
0.5998612691
0.7895277586
0.6080745193
0.6533636748
0.8426127123
0.6749597212
0.762314249
0.9654110606
0.7995783043
0.944947924
1.158069034
1.006821784
1.15750394
1.156534345
0.3808145061
0.5418966389
0.3721125274
0.3760032447
0.5394100087
0.3852391988
0.4318645652
0.5932331429
0.4530354189
0.5344655682
0.6994759174
0.566963479
0.6935560911
0.8748897648
0.7434039959
0.9253989678
1.139845827
0.199056558
0.3285603181
0.1949682713
0.2075859092
0.3281631298
0.2190674752
0.2706861489
0.3866219778
0.2919596844
0.3709765504
0.4863825499
0.4019282642
0.5129300332
0.6413331549
0.5567947256
0.7190675991
0.8656906624
0.07060526148
0.1648681692
0.07050382952
0.0981940863
0.1742613141
0.1108630621
0.1666420578
0.2394807328
0.1885031699
0.2641391462
0.3389174945
0.2931099811
0.3945076207
0.4782679236
0.4344392118
0.5806217795
0.6796298048
0.02870154318
0.03741534701
0.06308541602
0.07127678131
0.09446477475
0.1104511652
0.1350635903
0.205241787
0.2452568918
0.2320439985
0.3253636824
0.3732212658
0.3618438792
0.492936317
0.553606174
0.05348536108
0.0761210106
0.07889055531
0.1241584967
0.1852427595
0.1969814986
0.2092560918
0.2936943312
0.31412529
0.3268664422
0.446934372
0.4773065391
0.07325177767
0.08963758754
0.08328370543
0.1369807128
0.1908397594
0.1848664211
0.2117519681
0.2910732815
0.2906135668
0.3227738031
0.438309777
0.4401289848
0.1011211645
0.1161201793
0.1056331503
0.1637495754
0.2155907956
0.1959969311
0.2362320046
0.3098136424
0.2939459159
0.3387251815
0.4432428636
0.4395889413
0.1345014947
0.1511101292
0.1375118761
0.202256007
0.2550978375
0.2239226958
0.2759238472
0.3487617046
0.3177758896
0.3774471173
0.4774934155
0.4507831094
0.1675078261
0.1847020657
0.173017713
0.2678021983
0.3617985188
0.4903471199
0.05387930313
0.04759534501
0.05210909312
0.03820698354
0.03825496539
0.04528703572
0.07846317758
0.07368503689
0.07851565295
0.05369675119
0.05934150212
0.06223271224
0.1111505726
0.1085936034
0.1130796565
0.08076677694
0.08568637464
0.08983190728
0.1429905635
0.1393252154
0.1416583413
0.1170500814
0.1212055596
0.1242948277
0.1440924366
0.1467823446
0.1529852289
0.003043396948
0.003736696182
0.003663891993
0.03063587703
0.003086895712
0.002782194461
0.04939056001
0.04185157009
0.0389587549
0.06776953667
0.0422741576
0.06355337951
0.02825475656
0.02746774561
0.02833486351
0.01691841226
0.01714042261
0.01987612726
0.08051048468
0.07740980155
0.05480261056
0.1057047877
0.08976239621
0.09161419821
0.09171791568
0.08970247024
0.1064407656
0.03234291328
0.02017979573
0.0199821448
0.03327426659
0.03257375274
0.04599684833
0.1015363979
0.09306440177
0.0753687348
0.1169660869
0.1043667253
0.1102624156
0.09490017615
0.09921551626
0.1125184474
0.05404925157
0.04220346375
0.04372476389
0.027704607
0.02788597906
0.04008379178
0.1329140918
0.1205584121
0.1052353935
0.1423973605
0.1314921406
0.1396143379
0.1166480716
0.1237594137
0.1350387535
0.0977392684
0.07215502878
0.07608653103
0.04605570048
0.05080874586
0.07850422842
0.02784342555
0.02565050932
0.01621870857
0.1360093853
0.08435441088
0.0972515516
0.113857469
0.1179238439
0.1321841261
0.04751167303
0.03530376421
0.03400257828
0.02941255545
0.03033165176
0.03096834599
0.04194364429
0.04599347132
0.05133048073
0.03392298852
0.03541087268
0.03363944898
0.04656379561
0.04482767312
0.04440627447
0.03898414021
0.02744633316
0.0275231132
0.01991403367
0.01988657104
0.03184637109
0.06669875021
0.07073643645
0.07905439226
0.04751497895
0.06697316029
0.06178639057
0.07611861858
0.07438342243
0.05167201426
0.05292075882
0.05037518302
0.04841326811
0.06088723652
0.05749108007
0.04944828344
0.06267745818
0.06015243939
0.06477971091
0.06829363796
0.03925685329
0.04442797947
0.04507750086
0.04623495396
0.05795280579
0.09827776168
0.1044245189
0.10705024
0.07976338122
0.0977485808
0.09513579275
0.1108371158
0.1055368074
0.08891572283
0.05543344848
0.07970935354
0.07789767948
0.09243142196
0.08893090897
0.06556195206
0.09393047345
0.0885811209
0.0945546041
0.1292607004
0.105242062
0.1094590904
0.07985162826
0.08385235668
0.1097013947
0.1018493105
0.03032439933
0.007345763382
0.009313900725
0.008958372493
0.1621280107
0.1588119548
0.138483191
0.1770052073
0.1661541606
0.1760307051
0.1481005472
0.1566382344
0.1676974326
0.05623702921
0.0316101174
0.03786751405
0.04324384787
0.04461198379
0.05440453128
0.02419233969
0.03302238154
0.03291991941
0.03196371181
0.03052677048
0.0286960995
0.04588992732
0.03856442559
0.04027618297
0.04852192184
0.03895152658
0.04081800772
0.02598143285
0.02806520431
0.03826234854
0.133025291
0.1366812794
0.1385377831
0.1305677124
0.1311445609
0.1322548362
0.1385111255
0.1350888712
0.1344906068
0.1122013188
0.1195078522
0.1147507515
0.1281361359
0.1218201169
0.1157815727
0.1279798575
0.1252552744
0.1288980473
0.01246018445
0.02062460782
0.0176081671
0.01692333975
0.02768356457
0.01719770526
0.02630765883
0.01210593088
0.01517948736
0.02466856872
0.01999161626
0.02234312557
0.02475749135
0.01116461972
0.01552091547
0.01388074818
0.01644023445
0.01496367967
0.01549600517
0.02055908335
0.01829192249
0.01934383857
0.02954959773
0.02841608738
0.03962497289
0.04204305927
0.03040411924
0.02976411188
0.03611624055
0.036822469
0.04842850941
0.04537705323
0.03390793668
0.03519798521
0.06489362686
0.0685214761
0.09364720366
0.01774196516
0.02751198293
0.02541788682
0.03951770944
0.03777892004
0.02670720932
0.02328521969
0.02162711373
0.01213731537
0.08235749563
0.05271104603
0.05554218483
0.07212550133
0.05341842351
0.05730976073
0.04031322082
0.04473411681
0.06798374581
0.03926370137
0.0411901985
0.04081853267
0.03759491584
0.03660066809
0.03762490873
0.02713224642
0.02716690883
0.03781876117
0.03684396437
0.02651272459
0.0269625051
0.0689186648
0.0671228948
0.04838231298
0.06739512779
0.06637038881
0.06812775103
0.06251495845
0.06328935407
0.06574432943
0.07360701074
0.07291039207
0.07460030222
0.06965300158
0.07125840922
0.07200893751
0.05134900736
0.07265164264
0.07087777111
0.05446316772
0.05236889925
0.05428541589
0.05469728517
0.05306372658
0.0548253898
0.0495380801
0.05129736279
0.05299469243
0.0610164201
0.06063935912
0.06143895483
0.05640778563
0.05868660999
0.05940382211
0.05093282854
0.05793142431
0.05660336278
0.03253177662
0.03727720992
0.07519770996
0.06465358415
0.05267731528
0.05398684323
0.03664772529
0.06152334446
0.06179210483
0.06901656416
0.065317445
0.03875666848
0.1138033964
0.08802784352
0.09222576565
0.03188809923
0.02146630584
0.02366615562
0.01151977516
0.01264102291
0.02178036667
0.06145650793
0.01747345278
0.01117824516
0.01185197348
0.0112021727
0.008547516108
0.005834875467
0.009626512888
0.01330337515
0.007222797649
0.008768324772
0.008987914619
0.007665782614
0.007314058317
0.01104861833
0.007865085154
0.01084954043
0.005711409118
0.006786490512
0.009750220056
0.02201959541
0.02073009296
0.03311948897
0.04512763657
0.03213057882
0.03155238612
0.03932121797
0.04067504497
0.0527169698
0.01648638835
0.02807574643
0.02664530527
0.03195582798
0.03002341933
0.01876181387
0.04068443037
0.02828388466
0.02895748598
0.0399984155
0.03718553677
0.04682251143
0.03986462222
0.03731023766
0.03572595757
0.04169271099
0.03905857104
0.04072257501
0.03581931025
0.03739924625
0.04034331868
0.04800169549
0.04608795226
0.04782477883
0.04237477231
0.04425205844
0.04639000798
0.04301067331
0.04310415805
0.04151193121
0.02728398127
0.02734401462
0.03868621678
0.03220954136
0.02023477921
0.02129060293
0.0227356808
0.03463918069
0.03350627889
0.03668580787
0.03569708336
0.02336273812
0.05919660783
0.04737456749
0.048467974
0.1027448215
0.1002943638
0.08272023977
0.1003940332
0.09895768904
0.101630272
0.09353690495
0.09624593866
0.09751688024
0.08312889005
0.08145017266
0.0564939383
0.08101087976
0.08001121878
0.08188306955
0.0763745203
0.07818580797
0.07897317765
0.08984921181
0.0883634682
0.09090239664
0.08388339481
0.08610989524
0.08729699714
0.06378489997
0.08689183411
0.08493810279
0.09654265291
0.1008237955
0.1252149918
0.05119882199
0.07689907186
0.0730607984
0.08525567348
0.08099917603
0.06012574477
0.01035461225
0.01026312606
0.0128328193
0.0263359546
0.01684627098
0.01876120205
0.01328500183
0.01501626118
0.02403865924
0.007359642192
0.01103146728
0.01831949506
0.01644404512
0.0226093319
0.02034066222
0.01194416557
0.04086955628
0.03022000615
0.03243267165
0.0203371608
0.02048788063
0.02315583279
0.01729804043
0.01893825464
0.01936841102
0.02454750412
0.02530751366
0.02502794128
0.01708243434
0.01537598243
0.01641698776
0.01463034158
0.01484114933
0.0163962661
0.01393182195
0.0136135481
0.01300293354
0.03825092585
0.02738242126
0.02466087593
0.03120803472
0.03066979327
0.04262853241
0.02583077325
0.02530415227
0.01444331997
0.04947605787
0.03752551765
0.03831210495
0.03035038951
0.03215136885
0.04395856508
0.03122270164
0.02951203336
0.01934759253
0.0519346815
0.04117571416
0.04299035985
0.03695122896
0.0390730743
0.0501711882
0.03776682059
0.02587495181
0.02786319763
0.02224624023
0.02380276607
0.03559670452
0.04518424029
0.03292526935
0.03478783058
0.0297013104
0.03122063384
0.04317428439
0.01174241821
0.02044833858
0.01938046197
0.01810975277
0.01604870513
0.01091586465
0.03530950068
0.02567180642
0.02790489357
0.02119248278
0.02344996233
0.03271222797
0.04249175223
0.04287748182
0.04251688992
0.03413813784
0.03566414549
0.03541765846
0.02926528432
0.03609091584
0.03483117546
0.03629685691
0.0370763977
0.02588895578
0.03801940427
0.02721203671
0.02723191686
0.0234481518
0.02543849557
0.03593085715
0.02320155922
0.01291286196
0.01426905552
0.0119495329
0.01249458879
0.02209857002
0.03070614361
0.0200268187
0.02106420135
0.01660281513
0.01862083394
0.02889855529
0.01814606211
0.01958190217
0.02977734743
0.02397054492
0.01449343765
0.01651326792
0.08093548462
0.08543518623
0.06679074722
0.1228800703
0.1038506695
0.09494776967
0.1283792421
0.1143239142
0.1341928076
0.1857925674
0.1962933492
0.2111864635
0.1341890564
0.1446145129
0.1413209919
0.1492868219
0.1469316387
0.1407418074
0.005586376128
0.004003644788
0.003712200089
0.006690215608
0.005650339197
0.006314166227
0.004473269777
0.004397345521
0.006443919257
0.004175849516
0.003795270281
0.003151787107
0.005056845428
0.003886356974
0.005039027888
0.003613833667
0.003663549402
0.004585698604
0.03101063793
0.03798881951
0.04266021611
0.03329252044
0.03363397301
0.02863575615
0.02584653226
0.02652004762
0.02667975692
0.02431743288
0.02584073224
0.02516549691
0.02749416989
0.02635610445
0.02575298691
0.04303045957
0.03461129522
0.03659561105
0.03019284648
0.03242619208
0.04102825052
0.01421737318
0.02309031649
0.02056728685
0.07173079969
0.09388073232
0.08955504629
0.1026847413
0.09836116298
0.07587370587
0.03016437454
0.02995317495
0.02865639573
0.03302295413
0.03127737964
0.03186903624
0.0322656668
0.03145802247
0.03271003144
0.03889222008
0.02556485979
0.03507621589
0.03342613819
0.03910799077
0.03754187955
0.02744719695
0.05569946203
0.04765222447
0.04734921882
0.03625657331
0.03301251965
0.0343426567
0.02656463709
0.02909648086
0.02801019202
0.03467323912
0.03672659175
0.04666419656
0.01724660355
0.02694395114
0.02491727998
0.03107341917
0.02913428395
0.01934043101
0.0204535009
0.0186450648
0.02198706042
0.01325649038
0.01594032817
0.01753171699
0.01400610284
0.01485619533
0.01181890188
0.05850992081
0.0490050325
0.05025812128
0.04507039526
0.04675845213
0.0569696159
0.02453093899
0.03531495697
0.03335821851
0.04976547061
0.05105400092
0.06324644976
0.02647449687
0.03951457017
0.03801080578
0.04306120117
0.04145062435
0.02862596709
0.009499582411
0.008419745548
0.009926322146
0.006018546049
0.007074653587
0.007898663399
0.006244681662
0.006476471345
0.005256098566
1.069041703
1.058258246
1.095345593
1.07039707
1.10751184
1.149972585
1.157464188
1.157212558
1.156500559
1.156881472
1.156604346
1.156352589
1.156370938
1.156174017
1.156214041
1.156005061
1.155889351
1.156118214
1.155785722
1.155709486
1.156065711
0.9736226834
0.9627441983
1.009157288
0.9627729837
0.9823952624
1.026604819
1.034715291
1.090897372
1.140428438
1.157837199
1.157507507
1.157202465
1.156773627
1.156534205
1.156427687
1.156117072
1.155586547
1.15565983
1.155305762
1.155101045
1.155375906
1.154950784
1.154871318
1.155230458
0.7284581387
0.719387922
0.7836230974
0.7330347169
0.7450571744
0.8078597926
0.8014903036
0.8291680916
0.8944381685
0.9365568285
0.9850441979
1.058860494
1.157219106
1.157647869
1.157224977
1.156960415
1.155802184
1.155608011
1.155202855
1.154766052
1.154876795
1.154447758
1.154260894
1.154508615
0.475829047
0.4753822705
0.5335691195
0.4904738689
0.5024867862
0.5599033744
0.5572524503
0.5816646373
0.6394288861
0.6750990576
0.7147265012
0.7763965855
0.8634362983
0.9260791567
0.9953862882
0.9989286266
1.156882009
1.156180026
1.155733181
1.154879551
1.154736845
1.154264431
1.153864411
1.153985667
0.2758881945
0.274828801
0.3183353877
0.2949599882
0.3085474312
0.351357426
0.3651105504
0.3890805042
0.4322567106
0.4784207409
0.5126977284
0.557716304
0.6404045079
0.69210697
0.7421606338
0.7792426691
1.013794814
1.127856695
1.157129373
1.155601367
1.155119931
1.154502306
1.153721191
1.153750685
0.1295406688
0.1298856368
0.160503792
0.1581317479
0.1738720321
0.2025126466
0.2340052512
0.2576762245
0.2854790025
0.3409490262
0.3733193205
0.4024090843
0.4890399085
0.5360400247
0.5689475948
0.6298204188
0.8354583387
0.9155168072
1.019838004
1.156998185
1.156150145
1.155230126
1.153942634
1.15373267
0.04749258957
0.04779909221
0.05876183728
0.155626402
0.1786576722
0.19387824
0.2571559217
0.2871206878
0.303937729
0.3928764364
0.4345427999
0.4551241711
0.5409374851
0.7203028177
0.7727461469
0.879650914
1.067932989
1.127060817
1.156414797
1.154543331
1.154144779
0.05255298864
0.06039361018
0.06085390659
0.1254386283
0.1456633629
0.1500220615
0.2164087157
0.2437441633
0.2511194306
0.3398661714
0.3777421382
0.3885720185
0.4930134588
0.6458772619
0.6770512061
0.794777323
0.9744031877
1.016629956
1.157918379
1.155465487
1.15491479
0.06714179783
0.07240400619
0.06972315143
0.1284741585
0.1458927636
0.1436656394
0.208978781
0.2336352897
0.2336529159
0.3209300726
0.3559085464
0.3585888562
0.4814910916
0.6131056085
0.6247351952
0.7484587216
0.9133394809
0.9396972449
1.097962879
1.156638005
1.155988915
0.09312183945
0.09711995064
0.0935854577
0.1489010376
0.1649709172
0.1587691461
0.2232726123
0.2465046283
0.2401365412
0.3292480552
0.3620325429
0.360528148
0.4829023375
0.6091815436
0.6083056774
0.7341165912
0.8825872461
0.8946444399
1.047464911
1.157966414
1.157263405
0.1261648938
0.1306719217
0.1264047948
0.1814247123
0.1973958525
0.1881490394
0.2537725119
0.2762369872
0.266846292
0.3557888867
0.3873450101
0.3783817767
0.5129967869
0.6312928428
0.6172553471
0.7472800725
0.8795301485
0.8783385964
1.023482191
1.159404322
1.158652679
0.1592026553
0.1671152553
0.1617122158
0.2271893305
0.2441941939
0.2307143498
0.3030666534
0.3258356771
0.3113980501
0.4046197256
0.4352598996
0.421093158
0.6504883358
0.8885729926
1.15784397
0.04884436149
0.06749409355
0.06535414743
0.0588736148
0.09035368664
0.08736157454
0.08245396687
0.1218512198
0.1176952058
0.1136868457
0.1366503019
0.1360284975
0.1328325199
0.04607291878
0.04533605909
0.04638923458
0.04668765822
0.06316143818
0.06327986308
0.06678164105
0.06629222507
0.05243599448
0.05024607465
0.04845878895
0.04752554548
0.06365902412
0.06415565842
0.0474815221
0.110919477
0.108970142
0.09519973426
0.05394093641
0.06788427443
0.06727720105
0.1368214644
0.1579286516
0.1537555456
0.1516897352
0.02273195092
0.02605936875
0.02611293069
0.1276985761
0.1278506972
0.126439204
0.1379213425
0.1362993578
0.1361941054
0.1053274649
0.1149765894
0.1133081723
0.1247029846
0.1238338963
0.1226963389
0.02486903674
0.02127418696
0.01915455626
0.01898640025
0.01895432814
0.02218218686
0.009936361778
0.01146653294
0.01158346591
0.06441013881
0.06426759514
0.04989468518
0.05081650431
0.06473917826
0.06461732571
0.05599863741
0.055068847
0.0570941582
0.05381511879
0.05871412367
0.0577721343
0.05575692791
0.05676247118
0.06946157876
0.03234923967
0.04354647461
0.04191669521
0.05475474135
0.05282814681
0.04287374607
0.03745104179
0.03628924373
0.03621492267
0.04045320328
0.04042970429
0.03963309544
0.07307332515
0.07206169068
0.05880153782
0.0617981616
0.07506917134
0.07399944115
0.04850135739
0.05850982201
0.05634433809
0.06253505928
0.06417346075
0.05653977132
0.1357514601
0.1414438962
0.1393386067
0.1573254027
0.1505449631
0.1548496325
0.04957466672
0.04518755869
0.05328375421
0.02635092385
0.02683458953
0.02367981388
0.1334629131
0.1221394595
0.1260805869
0.03103579547
0.0319268819
0.03550356744
0.01178506445
0.01212708405
0.01102113853
0.9207859818
0.9746230046
0.8547181464
0.91578887
0.9280510974
0.9070270824
0.9079189848
0.8449459586
1.00924933
0.9672860161
0.9619347436
0.8693186021
0.9283616496
0.9114376272
0.9676199064
0.9371357557
0.8819443971
1.034358435
0.9873809858
1.025929547
0.9603010146
1.027885284
0.9834445298
1.107917681
1.04824432
0.9895531561
1.157825629
1.104376587
1.158092319
1.132990532
1.157949212
1.136594195
1.157264175
1.157609522
1.158034308
1.156996348
1.157263976
1.156992487
1.156932168
1.156700065
1.156990932
1.156221642
1.156460343
1.156630328
1.156274308
1.156345304
1.156145159
0.6695365242
0.7406556648
0.5943369072
0.6570146669
0.6603134591
0.662362602
0.6578180154
0.5951546102
0.7847559223
0.7212280059
0.7262197369
0.6199371329
0.6820310961
0.6700747515
0.7157546811
0.6967396447
0.6347838873
0.8219105865
0.7595618346
0.7793165441
0.7004273256
0.7640520722
0.7376291562
0.8281569079
0.7934054257
0.7290729888
0.9253263696
0.8593135572
0.8961645264
0.8424781257
0.9124260904
0.8668916139
1.019367363
0.9620356424
0.8902530026
1.110513746
1.036213998
1.097290192
1.074268526
1.14794855
1.081620211
1.157083064
1.157595239
1.139222173
1.156864953
1.157169955
1.156781819
0.4339587022
0.487093359
0.3661511065
0.41918122
0.4229280396
0.4270659089
0.4212958851
0.3699396777
0.5343789571
0.4762293774
0.4817294334
0.3977635302
0.448458995
0.4361033688
0.4821389887
0.4637970896
0.413357785
0.5748817242
0.517641232
0.5359721654
0.4770329882
0.5275235829
0.5033566376
0.5855043305
0.5547434476
0.5042266881
0.6674602612
0.6091783496
0.6402644172
0.6041541054
0.6592356969
0.6211576378
0.7472161185
0.6997291368
0.6458948733
0.8224208878
0.7595413572
0.8077986071
0.7979266293
0.8596501814
0.8022411397
0.996073322
0.9229891088
0.8589915015
1.065240727
0.9923841568
1.066187719
0.2372120327
0.2801276791
0.1952262867
0.2335383415
0.2332345988
0.2440817095
0.2367801455
0.1992410832
0.3220356822
0.2778672839
0.284529215
0.2335067534
0.2693264254
0.2553008937
0.3052445406
0.2860125549
0.2510113298
0.3676280703
0.3247432003
0.3435730105
0.3159315758
0.3502095191
0.3266862952
0.406046727
0.3764462118
0.3425502646
0.4585686814
0.4149018272
0.4442665171
0.4348151076
0.4716149154
0.4382691415
0.5513468916
0.5094964286
0.4723812336
0.5958561784
0.5503683508
0.5941296719
0.6059816209
0.6468095246
0.5963918191
0.7624860946
0.7021360385
0.6602644524
0.8011196296
0.7493602566
0.8105013029
0.1059734079
0.1319250596
0.07533119503
0.1027998649
0.1005319352
0.1186233991
0.109616757
0.08659404912
0.1653521141
0.1350571546
0.1451887217
0.1265356492
0.149164499
0.1322043596
0.1876362111
0.1673538822
0.1460295345
0.2201227107
0.1918253079
0.2118322524
0.2119474302
0.2330515052
0.2096543896
0.2860318575
0.2583404255
0.237081636
0.3112335481
0.2828789417
0.3107717373
0.3241726169
0.3470140693
0.3154211812
0.4196024321
0.3818139199
0.3581848617
0.4388329968
0.4083728033
0.4469727274
0.478725672
0.5053147329
0.4603255231
0.6107292049
0.5546617763
0.5269637313
0.6215848176
0.5868761007
0.643097933
0.03039981334
0.03855246599
0.0379831713
0.04455271911
0.04042408491
0.03323883025
0.06018677004
0.0496322663
0.05382969247
0.156857389
0.1663694618
0.1438457559
0.2159389117
0.1904329115
0.1803158116