/*--------------------------------*- C++ -*----------------------------------*\
| =========                 |                                                 |
| \\      /  F ield         | OpenFOAM: The Open Source CFD Toolbox           |
|  \\    /   O peration     | Version:  v2012                                 |
|   \\  /    A nd           | Website:  www.openfoam.com                      |
|    \\/     M anipulation  |                                                 |
\*---------------------------------------------------------------------------*/
FoamFile
{
    version     2.0;
    format      ascii;
    class       surfaceScalarField;
    location    "1.1";
    object      meshPhi;
}
// * * * * * * * * * * * * * * * * * * * * * * * * * * * * * * * * * * * * * //

dimensions      [0 3 -1 0 0 0 0];
oriented        oriented;


internalField   nonuniform List<scalar> 
5975
(
2.748925081e-05
-0.0002079340203
-2.714694151e-05
0.0004155330385
-0.0002079413275
-0.0008318231101
4.305095294e-05
-8.454204931e-05
0.001662292983
-0.0008293858248
4.040704853e-05
-9.525237532e-06
-0.001568616107
1.869069625e-05
0.001472481453
-0.0001238795655
-0.001081227852
0.0001201866327
0.0009229641073
-7.731726822e-05
-0.0004482118884
7.128428341e-05
0.0003107288397
-3.561658557e-05
-3.394675589e-06
2.565244885e-06
3.528134243e-06
0
0
0
0
0
0
0
0
0
0
0
0
0
0
0
0
0
6.632859165e-05
-0.000409308525
-6.632850689e-05
0.000818446063
-0.0004091376228
-0.001634309454
8.977891125e-05
-8.817267826e-05
0.001629061313
-3.017435468e-05
-0.001433088715
3.2195206e-05
0.001322571566
-0.000104895556
-0.0008896097096
0.0001067403907
0.0007304882036
-4.980923235e-05
-0.0002966889962
4.064239634e-05
0.0001909679804
-4.695581464e-06
-4.152577483e-07
1.82015577e-07
0
0
0
0
0
0
0
0
0
0
0
0
0
0
0
0
0
0
0.0001301595903
-0.001599427119
-0.0001301595903
0.001599427119
7.689391617e-05
-0.001568062176
-7.034432481e-05
0.001521015521
-4.502924989e-05
-0.001244715741
4.731506225e-05
0.001115488755
-9.03990773e-05
-0.0006760333181
8.31739928e-05
0.000529533222
-2.267424428e-05
-0.0001632522887
1.873030067e-05
8.528561409e-05
0
0
0
0
0
0
0
0
0
0
0
0
0
0
0
0
0
0
0
0
0
0.0001204178259
-0.001477640788
-0.00010940734
0.00145065258
4.318317015e-05
-0.001293766553
-3.271308152e-05
0.001213217146
-4.956467032e-05
-0.0008983259837
4.783627565e-05
0.0007769879541
-5.561648482e-05
-0.0004104670035
4.541871398e-05
0.0002999006628
-6.518669411e-06
-5.576764057e-05
3.580200186e-06
1.540275776e-05
0
0
0
0
0
0
0
0
0
0
0
0
0
0
0
0
0
0
0
0
0
6.309174931e-05
-0.001013324013
-4.73345697e-05
0.0009760791068
5.17352421e-06
-0.0008011093758
8.374229727e-07
0.0007251926213
-3.440520833e-05
-0.0004682462877
2.795907436e-05
0.000380252027
-1.758216544e-05
-0.000144774882
1.065544491e-05
8.496501533e-05
-3.869746319e-08
-3.730918965e-07
0
0
0
0
0
0
0
0
0
0
0
0
0
0
0
0
0
0
0
0
0
0
0
1.274493091e-05
-0.0004263714256
-6.590498246e-06
0.0004026064894
-6.745655442e-06
-0.000294297955
5.640872361e-06
0.0002501268378
-9.145661714e-06
-0.0001157439216
4.697432721e-06
7.651107929e-05
-3.869163822e-07
-4.4769273e-06
9.938097363e-10
4.842659333e-08
0
0
0
0
0
0
0
0
0
0
0
0
0
0
0
0
0
0
0
0
0
0
0
0
0
1.33174611e-07
-4.782098933e-05
1.652216964e-08
4.162996506e-05
-7.228990709e-07
-1.651689524e-05
5.814354835e-08
9.116811937e-06
0
0
0
0
0
0
0
0
0
0
0
0
0
0
0
0
0
0
0
0
0
0
0
0
0
0
0
0
0
0
0
0
0
0
0
0
0
0
0
0
0
0
0
0
0
0
0
0
0
0
0
0
0
0
0
0
0
0
0
0
0
0
0
0
0
0
0
0
0
0
0
0
0
0
0
0
0
0
0
0
0
0
0
0
0
0
0
0
0
0
0
0
0
0
0
0
0
0
0
0
0
0
0
0
0
0
0
0
0
0
0
0
0
0
0
0
0
0
0
0
0
0
0
0
0
0
0
0
0
0
0
0
0
0
0
0
0
0
0
0
0
0
0
0
0
0
0
0
0
0
0
0
0
0
0
0
0
0
0
0
0
0
0
0
0
0
0
0
0
0
0
0
0
0
0
0
0
0
0
0
0
0
0
0
0
0
0
0
0
0
0
0
0
0
0
0
0
0
0
0
0
0
0
0
0
0
0
0
0
0
0
0
0
0
0
0
0
0
0
0
0
0
0
0
0
0
0
0
0
0
0
0
0
0
0
0
0
0
0
0
0
0
0
0
0
0
0
0
0
0
0
0
0
0
0
0
0
0
0
0
0
0
0
0
0
0
0
0
0
0
0
0
0
0
0
0
0
0
0
0
0
0
0
0
0
0
0
0
0
0
0
0
0
0
0
0
0
0
0
0
0
0
0
0
0
0
0
0
0
0
0
0
0
0
0
0
0
0
0
0
0
0
0
0
0
0
0
0
0
0
0
0
0
0
0
0
0
0
0
0
0
0
0
0
0
0
0
0
0
0
0
0
0
0
0
0
0
0
0
0
0
0
0
0
0
0
0
0
0
0
0
0
0
0
0
0
0
0
0
0
0
0
0
0
0
0
0
0
0
0
0
0
0
0
0
0
0
0
0
0
0
0
0
0
0
0
0
0
0
0
0
0
0
0
0
0
0
0
0
0
0
0
0
0
0
0
0
0
0
0
0
0
0
0
0
0
0
0
0
0
0
0
0
0
0
0
0
0
0
0
0
0
0
0
0
0
0
0
0
0
0
0
0
0
0
0
0
0
0
0
0
0
0
0
0
0
0
0
0
0
0
0
0
0
0
0
0
0
0
0
0
0
0
0
0
0
0
0
0
0
0
0
0
0
0
0
0
0
0
0
0
0
0
0
0
0
0
0
0
0
0
0
0
0
0
0
0
0
0
0
0
0
0
0
0
0
0
0
0
0
0
0
0
0
0
0
0
0
0
0
0
0
0
0
0
0
0
0
0
0
0
0
0
0
0
0
0
0
0
0
0
0
0
0
0
0
0
0
0
0
0
0
0
0
0
0
0
0
0
0
0
0
0
0
0
0
0
0
0
0
0
0
0
0
0
0
0
0
0
0
0
0
0
0
0
0
0
0
0
0
0
0
0
0
0
0
0
0
0
0
0
0
0
0
0
0
0
0
0
0
0
0
0
0
0
0
0
0
0
0
0
0
0
0
0
0
0
0
0
0
0
0
0
0
0
0
0
0
0
0
0
0
0
0
0
0
0
0
0
0
0
0
0
0
0
0
0
0
0
0
0
0
0
0
0
0
0
0
0
0
0
0
0
0
0
0
0
0
0
0
0
0
0
0
0
0
0
0
0
0
0
0
0
0
0
0
0.0002085093658
-1.408508906e-05
1.415308612e-05
-0.0002085773629
-0.0002086343418
0.0004166932438
2.793971459e-05
-4.482935563e-05
0.0008349722962
4.469139779e-05
-0.0008348343384
0.0004102402959
-3.410102318e-05
3.410146676e-05
-0.0004102407395
-0.0002081943396
-1.382476978e-05
0.0008206501278
-0.0003733832485
1.181561979e-05
1.74863884e-05
-8.528853114e-05
0.001624220223
-0.0008182491985
-0.0008156994449
4.917284763e-05
4.584410346e-05
-0.0008316542775
-4.499818817e-05
0.0008030196566
-6.882562076e-05
6.882562075e-05
-0.0008030196566
-0.0004093087688
-3.410077934e-05
-5.330542484e-05
0.0008340900613
5.297442643e-05
-0.0004163398209
-0.000417419242
2.530176681e-05
0.0004073722124
-0.0004075788148
-2.509516438e-05
0.000408189734
2.578330915e-05
-0.0004086712763
-2.648900662e-05
0.0004080324827
2.664625787e-05
-5.802541093e-05
0.0008222824962
5.605951947e-05
-0.0008203166047
0.0008310439296
-5.371141613e-05
-0.0004148648654
-0.0004157730729
1.644661567e-05
0.0002103253001
-0.000211137682
-1.563423381e-05
-2.637566603e-05
0.0004126259632
2.648040287e-05
-0.0002060725347
-0.0002066581654
0.0002104391659
1.707673231e-05
-0.0002110692825
-1.519835848e-05
0.0002100640231
1.55735013e-05
-2.724902731e-05
0.0004198469309
2.738389157e-05
-0.0004199817952
0.0004119842867
-0.000411997149
-2.636280379e-05
0.001607868866
-0.000804849209
6.632849471e-05
6.383109555e-05
0.001597043042
-9.690498579e-05
9.957505696e-05
-0.001607629925
-0.0001001935635
-0.0008158633913
-0.0008035410306
-2.708906955e-05
0.0004161457608
2.715780719e-05
-0.0004162144984
0.0004188207884
-0.0004188528706
-2.721694506e-05
-1.474345181e-05
0.0002098703934
-5.883712745e-05
0.0008046392684
5.468171961e-05
-0.0008004838606
0.0008198299422
-0.00081680757
-6.104778308e-05
-2.625119097e-05
0.0004071343968
0.000811834893
-6.882562046e-05
6.882561966e-05
-0.0008118348922
1.771325101e-05
0.0002732913631
-0.0002910046141
-1.605715805e-05
0.0002114405689
1.649450987e-05
-0.0002118779207
-2.427921521e-05
0.0004064204436
2.264621935e-05
-2.13262388e-05
0.0004046157746
2.314827268e-05
-0.0004064378085
-0.0002102111958
1.264433158e-05
-1.500628396e-05
0.0002125731481
-0.0002075185886
-1.597865101e-05
0.0002087460185
1.475122117e-05
-1.474244879e-05
0.0002089035462
1.469212709e-05
-0.0002088532245
-1.420192202e-05
1.020238706e-05
-0.0002035190537
-1.466640436e-05
-2.506280437e-05
-0.000170481987
-1.676229032e-05
0.0002105518229
1.719701277e-05
-0.0002109865453
0.0002055211199
-0.0002010803708
-1.864267115e-05
-6.639136193e-05
0.0002081450485
2.41428181e-05
-1.459178603e-05
0.0002085016609
1.487138339e-05
-0.0002087812583
0.0002097746901
-0.0002099297019
-1.660727857e-05
-1.515673148e-05
0.0002059887552
1.527344979e-05
-0.0002061054735
0.0002080773835
-0.0002082594687
-1.440970076e-05
-9.13800772e-06
0.0002086664898
0.0002739482717
-0.000288614676
0.0002109258744
-0.0002106319045
-1.635112796e-05
-1.074809176e-05
0.0002060363994
-0.0001775750567
0.0002146398913
7.195271189e-05
0.000835196633
4.282661617e-05
0.001599399525
-2.625519566e-05
3.01465782e-05
-0.001651423192
0.0002083628557
-0.0002086767767
-1.442852775e-05
-1.815040235e-05
0.0002076928713
-1.663120898e-05
0.000209662841
1.752019081e-05
0.0002084508969
-0.0002046020564
-1.701087114e-05
0.0002100937192
-1.638944227e-05
-1.565376756e-05
0.0002112409678
1.585336869e-05
-1.392675531e-05
0.0002106242494
1.399128226e-05
-0.0002106887764
-1.46061222e-05
-2.521215046e-05
0.0002082668315
-0.0001684485589
0.0002713413557
-0.0002859474779
0.0002700008583
1.520754674e-05
6.854704338e-05
-1.059606178e-05
0.0002120498767
0.0002093188316
-0.0001659839387
0.000205767332
-1.352196703e-05
1.358519652e-05
-0.0002058305615
0.0002063543347
-0.000207156776
-1.435429026e-05
-3.115628164e-05
-0.0001840215025
7.045264703e-05
-1.088795333e-05
0.0002137266694
0.0002108261952
-0.0001715298299
-0.0002696452281
6.832854815e-05
0.000211519067
1.775899242e-05
-0.0002874042205
-1.074950239e-05
-0.0001750105589
0.0002104822353
-0.0001672164915
-0.0002129029284
1.918169234e-05
0.0002109182488
-1.284011136e-05
7.127853873e-05
-1.555982514e-05
-3.153200542e-05
-0.0001802978678
0.000207876903
-0.0001681303696
0.0002084159241
1.335223253e-05
-1.379661217e-05
0.0002085894282
-0.0002072767048
0.0002100328756
0.000204352403
-1.412538591e-05
1.353374785e-05
-1.534103643e-05
0.0002061596916
0.0002084036255
0.0002029733179
-3.198891877e-05
-0.0001817324909
1.440612425e-05
-1.889700258e-05
0.0002074641962
0.0002095545704
1.927640388e-05
0.0002122492606
-1.688577315e-05
-0.0002096695316
0.0002100489329
-0.0001697057384
0.001517050064
-5.809710073e-06
0.001127442285
0.0001075177741
-0.00010882891
-0.001276451792
0.0009654315992
-0.0001193616166
0.0004798017683
0.0001009903395
-0.000108143216
-0.0006357218812
0.0003379832427
-8.500225687e-05
1.288921242e-05
4.642767207e-05
-1.67542636e-05
-0.0001168122523
-2.718603958e-05
0.0004128232009
2.698880186e-05
-2.706415682e-05
0.0004129890273
2.727164682e-05
-0.0004131965173
0.0004157124945
-0.00041565406
-2.71475041e-05
0.001625466322
8.792341681e-05
0.001475598529
-4.790908317e-06
1.27964971e-05
-0.001562935
-0.001631607567
-2.046508184e-05
0.001367145401
-2.458530791e-05
0.0009297489519
0.0001069825326
-0.0001074882327
-0.001087653993
-0.001229921783
0.0001059662364
0.0007825967772
-0.0001157021415
0.0003362014754
7.219325039e-05
-7.872410574e-05
-0.000474239827
-0.0006000217633
9.448432273e-05
0.0002159389694
-5.544877688e-05
3.78079639e-06
1.07379517e-05
-6.121120071e-06
-5.173350678e-05
-9.976046361e-05
1.081015916e-05
-6.632849499e-05
0.0008118348922
6.632849581e-05
-5.883712746e-05
0.0008118348922
5.883712745e-05
-0.0008118348922
0.000818446063
-0.000818446063
-5.883712746e-05
0.001562336177
8.205999011e-05
0.001306225332
1.39484723e-05
-9.429731209e-06
-0.001415155251
-0.00151857806
-2.512713396e-06
0.001178316885
-4.258755453e-05
0.0007296949131
9.401080397e-05
-9.857346073e-05
-0.0008846399035
-0.001045539872
0.0001039899219
0.0005782230866
-9.141109411e-05
0.0001949341873
4.084274098e-05
-4.956267666e-05
-0.0003059509893
-0.0004281209406
6.360766259e-05
0.0001107171871
-3.019117637e-05
3.396919128e-07
0
-7.664190022e-07
-8.661874215e-06
-3.76824022e-05
2.578032063e-06
0.001539326255
-0.0001323539913
0.0001387488084
-0.0001401480509
7.132243011e-05
0.001520165072
0.000127517265
0.001386802775
-6.702195022e-05
7.727898147e-05
-0.001446114619
-0.001592373472
-9.229859719e-05
0.00131130535
5.324891425e-05
0.0009975168668
3.093977591e-05
-2.767009837e-05
-0.00111465854
-0.001357587554
1.877079516e-05
0.0008718245518
-4.990699746e-05
0.0004812782018
6.425342266e-05
-7.32785962e-05
-0.0006096812881
-0.0008260679503
8.827038222e-05
0.0003601672101
-6.553820609e-05
8.131382287e-05
1.599892013e-05
-2.20551466e-05
-0.0001562356161
-0.000268166609
3.48301807e-05
2.925635025e-05
-1.018974753e-05
0
0
0
0
-3.01976964e-06
3.122986152e-08
0.001154403656
-7.32434638e-05
9.068013492e-05
-0.0001215266698
0.001116806917
7.952138646e-05
0.0009358634057
-2.064444409e-05
3.149269336e-05
-0.00100697372
-0.00135998435
-5.54868552e-05
0.0008553707676
1.308533162e-05
0.0005755650688
2.980148361e-05
-3.241241537e-05
-0.0006730625236
-0.001013402232
3.2957736e-05
0.0004771785973
-4.009774239e-05
0.0002045688414
2.518002581e-05
-3.452987715e-05
-0.0002887800182
-0.0005293631991
5.452793268e-05
0.0001310153335
-2.595076389e-05
4.610345657e-06
1.008771912e-06
-2.975891386e-06
-2.808059527e-05
-0.0001188871746
1.062052478e-05
0
-4.700258288e-07
0
0
0
0
0
0
0.0005654218766
-1.732516185e-05
2.76506491e-05
-5.623396151e-05
0.0005371687033
2.163072902e-05
0.0004081704239
2.661583029e-06
-1.537939954e-07
-0.0004573202468
-0.0008690865208
-1.150696449e-05
0.0003548172924
-6.613717159e-06
0.0001869824434
1.068110268e-05
-1.579387311e-05
-0.0002423427246
-0.0005566489749
2.588313432e-05
0.0001349210204
-1.480218219e-05
2.075609488e-05
1.747859403e-06
-4.986967158e-06
-4.949101735e-05
-0.0002158038211
1.689513223e-05
4.511432364e-06
-2.034926564e-06
0
0
0
0
-1.044878605e-05
1.862898476e-07
0
0
0
0
0
0
0
0
0.0001090551982
-7.024273245e-07
2.098763844e-06
-9.847918644e-06
9.887273735e-05
8.816184226e-07
5.410003829e-05
8.083951994e-07
-1.876005015e-06
-7.044168383e-05
-0.0003353759752
3.39749478e-06
3.788919299e-05
-2.097375824e-06
4.016817545e-06
3.783508361e-08
-7.844098345e-07
-1.136902995e-05
-0.0001590540957
6.231322879e-06
4.133871362e-07
-2.543694169e-07
0
0
0
0
-1.868102055e-05
2.709450012e-07
0
0
0
0
0
0
0
0
0
0
0
0
0
0
0
0
0
0
0
-1.578483922e-07
0
0
0
0
0
0
-2.511463009e-05
1.343907798e-07
0
0
0
0
0
0
-7.993495626e-07
0
0
0
0
0
0
0
0
0
0
0
0
0
0
0
0
0
0
0
0
0
0
0
0
0
0
0
0
0
0
0
0
0
0
0
0
0
0
0
0
0
0
0
0
0
0
0
0
0
0
0
0
0
0
0
0
0
0
0
0
0
0
0
0
0
0
0
0
0
0
0
0
0
0
0
0
0
0
0
0
0
0
0
0
0
0
0
0
0
0
0
0
0
0
0
0
0
0
0
0
0
0
0
0
0
0
0
0
0
0
0
0
0
0
0
0
0
0
0
0
0
0
0
0
0
0
0
0
0
0
0
0
0
0
0
0
0
0
0
0
0
0
0
0
0
0
0
0
0
0
0
0
0
0
0
0
0
0
0
0
0
0
0
0
0
0
0
0
0
0
0
0
0
0
0
0
0
0
0
0
0
0
0
0
0
0
0
0
0
0
0
0
0
0
0
0
0
0
0
0
0
0
0
0
0
0
0
0
0
0
0
0
0
0
0
0
0
0
0
0
0
0
0
0
0
0
0
0
0
0
0
0
0
0
0
0
0
0
0
0
0
0
0
0
0
0
0
0
0
0
0
0
0
0
0
0
0
0
0
0
0
0
0
0
0
0
0
0
0
0
0
0
0
0
0
0
0
0
0
0
0
0
0
0
0
0
0
0
0
0
0
0
0
0
0
0
0
0
0
0
0
0
0
0
0
0
0
0
0
0
0
0
0
0
0
0
0
0
0
0
0
0
0
0
0
0
0
0
0
0
0
0
0
0
0
0
0
0
0
0
0
0
0
0
0
0
0
0
0
0
0
0
0
0
0
0
0
0
0
0
0
0
0
0
0
0
0
0
0
0
0
0
0
0
0
0
0
0
0
0
0
0
0
0
0
0
0
0
0
0
0
0
0
0
0
0
0
0
0
0
0
0
0
0
0
0
0
0
0
0
0
0
0
0
0
0
0
0
0
0
0
0
0
0
0
0
0
0
0
0
0
0
0
0
0
0
0
0
0
0
0
0
0
0
0
0
0
0
0
0
0
0
0
0
0
0
0
0
0
0
0
0
0
0
0
0
0
0
0
0
0
0
0
0
0
0
0
0
0
0
0
0
0
0
0
0
0
0
0
0
0
0
0
0
0
0
0
0
0
0
0
0
0
0
0
0
0
0
0
0
0
0
0
0
0
0
0
0
0
0
0
0
0
0
0
0
0
0
0
0
0
0
0
0
0
0
0
0
0
0
0
0
0
0
0
0
0
0
0
0
0
0
0
0
0
0
0
0
0
0
0
0
0
0
0
0
0
0
0
0
0
0
0
0
0
0
0
0
0
0
0
0
0
0
0
0
0
0
0
0
0
0
0
0
0
0
0
0
0
0
0
0
0
0
0
0
0
0
0
0
0
0
0
0
0
0
0
0
0
0
0
0
0
0
0
0
0
0
0
0
0
0
0
0
0
0
0
0
0
0
0
0
0
0
0
0
0
0
0
0
0
0
0
0
0
0
0
0
0
0
0
0
0
0
0
0
0
0
0
0
0
0
0
0
0
0
0
0
0
0
0
0
0
0
0
0
0
0
0
0
0
0
0
0
0
0
0
0
0
0
0
0
0
0
0
0
0
0
0
0
0
0
0
0
0
0
0
0
0
0
0
0
0
0
0
0
0
0
0
0
0
0
0
0
0
0
0
0
0
0
0
0
0
0
0
0
0
0
0
0
0
0
0
0
0
0
0
0
0
0
0
0
0
0
0
0
0
-0.0002088709761
1.438972047e-05
-1.504853327e-05
1.545604708e-05
-0.0002092784899
-0.0002088586261
-1.47672701e-05
2.752456371e-05
0.0004164280622
-2.725938203e-05
-0.0004169269956
0.0004169169617
2.753459756e-05
2.818061374e-05
-0.000208805039
0.0008429015375
-0.000842746278
-4.479443947e-05
-0.0004207990216
-5.098537424e-05
0.0008424547204
-5.231647185e-05
0.0008344517729
5.19547602e-05
0.0004045058227
-0.000407502557
-1.832950446e-05
0.0004225620356
-1.604271141e-05
0.0002091861925
-1.410028317e-05
0.0002081545268
1.444741728e-05
-2.69599385e-05
0.0004147659365
1.397024091e-05
1.386524482e-05
-0.000207831826
-0.0002078096578
6.383109556e-05
0.0008206501278
-6.383109558e-05
0.0008012054002
6.117246576e-05
-0.0003977061102
-0.0004008406602
2.339123512e-05
-2.114673496e-05
0.0004022613225
4.524251296e-05
0.0008204366324
-0.0008203025361
-4.537660923e-05
5.445287964e-05
-5.34358924e-05
0.0008188129549
-5.633903982e-05
0.0008064622117
5.451609656e-05
-5.272831894e-05
0.0008314557767
0.0008223471289
5.438824692e-05
0.00082356921
4.513273903e-05
-0.0008234594361
0.0008096308276
-0.0008096308274
-6.882562071e-05
-6.882561755e-05
0.0008158634003
3.472480096e-05
3.410080759e-05
-0.0004076564434
-0.0004082069479
2.644843813e-05
0.0008371809703
-0.0004179664021
-0.0004189569167
2.626833685e-05
2.681635273e-05
-2.684222176e-05
0.0004188466574
-2.704536035e-05
0.0004162382393
2.695288185e-05
0.0004195857392
2.70775445e-05
0.0004195770339
2.622789203e-05
-0.0004193564878
0.0002106517393
-1.578056759e-05
-1.507848362e-05
0.0002107138963
-2.42115793e-05
2.47258574e-05
-0.0004080930929
0.000406698333
-0.0004078583051
-2.305160727e-05
-2.410667575e-05
0.0004057098444
-0.0004100670524
2.605842629e-05
0.0004097919353
-2.549513955e-05
2.555504958e-05
-0.000205218832
-0.0002049081305
-0.0004094405585
0.0004087926831
-2.758018873e-05
2.748736069e-05
-0.0004086998551
0.0004119947502
-0.0004117831879
-2.727571915e-05
-2.682653215e-05
0.0004116247793
-0.000823929937
5.436781594e-05
0.0008256216405
-5.561142991e-05
5.456681383e-05
-0.0004108905707
-5.70043758e-05
-0.0004101309757
-2.703473406e-05
0.0004157018682
0.0008275811241
-0.0004143644397
2.702961083e-05
2.730954591e-05
0.0008282375239
-1.64614792e-05
1.736670821e-05
-0.000212042911
0.0002105852279
-0.0002110494809
-1.599722617e-05
-1.513841113e-05
0.0002100894052
1.802431492e-05
-1.846638273e-05
0.0002058527459
-0.0002019588106
0.0002046420891
0.0004142553897
-0.0002071951163
-0.000207539809
-1.373636497e-05
0.0002077134653
-1.399932629e-05
0.0002059512436
1.40368379e-05
-0.0002103011703
1.711016443e-05
0.0002102677382
-1.854668629e-05
1.829444884e-05
2.759819607e-05
0.0004201698871
-2.765344844e-05
-0.0002098679658
-0.0002102466689
0.0004206872711
1.397454984e-05
-0.0002104203294
-0.0002105700507
-1.55162945e-05
0.0002107884014
-0.0004206220092
2.73958622e-05
0.0004206100386
-2.769471478e-05
2.775997661e-05
-2.750662286e-05
0.0004211320988
-0.0002106060812
0.0004208527105
-2.646509329e-05
-0.0002067953978
1.361835059e-05
0.0004110023624
-0.0002061450741
0.0004106979849
1.756351741e-05
-1.690743361e-05
0.0002077826315
0.0002077470789
-2.474848347e-05
-0.0002050707649
-0.0002053839058
1.293390873e-05
1.282868697e-05
-0.0002057243271
-1.301647192e-05
0.000120171381
0.001607868866
-0.0001201713809
0.00161705759
6.133425351e-05
-0.0008074267625
-0.0008096308274
-6.632849478e-05
0.0008096308274
-0.00161705759
0.0001001935635
0.001615207588
-0.0001101826473
0.0001101826473
-0.0001101246322
-5.633903982e-05
0.000818446063
0.001625873849
-0.000814038957
5.633903982e-05
5.384360744e-05
0.001625873849
-0.000417050327
2.696800408e-05
0.0004172401301
-2.753491877e-05
2.74015535e-05
-2.732135504e-05
-2.763776677e-05
-0.0004187217267
0.0004180874809
-0.0004183236942
0.00041783854
0.0004179770886
-0.000209229458
1.430344693e-05
1.403308247e-05
2.718799192e-05
-0.0002094180814
-0.0002097691019
-0.0008185702679
6.19250195e-05
0.000811326968
-8.150052073e-05
6.413565307e-05
-6.133425351e-05
-5.946782712e-05
-0.0008143441187
0.0008146599665
-0.0008099921406
0.000815537203
0.0004028649821
2.514202762e-05
5.788390475e-05
-0.0004024475371
-0.0004042560425
-0.0004055238811
-0.00040711006
2.859353843e-05
-0.000814038957
0.0008140389592
-7.132243012e-05
3.534907703e-05
-7.132243011e-05
-0.0002107947091
0.0002108997767
-1.697938502e-05
-1.513063637e-05
2.367954849e-05
-2.286800018e-05
-0.0002042103829
-0.0002044594705
-0.0002049958881
-0.0002041661398
2.191527524e-05
0.0004084291842
-2.392401585e-05
-0.0004079739576
0.0004070212327
1.165180084e-05
-0.0004057978777
0.0004048394746
-2.182825228e-05
-1.983687651e-05
0.0002110883559
-1.561240451e-05
1.635553597e-05
-1.631666103e-05
1.581721249e-05
0.0002089922726
-1.606346663e-05
-0.0002106578836
0.0002101584351
-0.0002096757421
-1.551453315e-05
-1.537548503e-05
-0.0002098166235
1.56009812e-05
0.0002090870257
-1.452589005e-05
1.474214211e-05
-1.471772016e-05
-1.617069536e-05
0.0002106213235
0.0002096150261
-0.0002058267035
1.454969779e-05
0.0002065504555
-1.645732473e-05
1.527271039e-05
-1.671005232e-05
-1.457356346e-05
0.0002068588385
0.0002069988355
-1.620797053e-05
0.0002095506745
0.000210309711
7.433117508e-05
0.001673220509
-7.448030663e-05
-0.0008354055337
-0.0008378921966
0.001683349874
-0.0008399193544
-0.0008429072176
-4.302355149e-05
0.0008429450207
-0.001671063565
0.001625788352
-5.905888484e-05
-5.461856164e-05
-1.553287537e-05
-0.0002085193864
0.0002088438463
-0.0002089206746
0.0002088534443
-1.858792246e-05
1.688998176e-05
-1.695721211e-05
1.638518491e-05
-1.558096994e-05
-0.0002098505171
1.49661582e-05
0.0002110225681
-1.474775852e-05
-0.0002109725778
0.0002108602524
-0.0002107157098
1.410091087e-05
-1.43083416e-05
1.445288414e-05
0.0002105820734
1.645900233e-05
0.0002065498848
-1.558320588e-05
0.0002069719374
-0.0002067084954
1.414861784e-05
-1.507474608e-05
1.533818809e-05
-1.435542281e-05
-1.611974934e-05
0.0002070010702
7.560381488e-06
-5.231141004e-06
0
0
0
-2.128547555e-08
0
0
0
0
0
0.0004148843109
-2.726531586e-05
2.733349181e-05
-2.729385731e-05
0.0004148446764
0.0004156071483
0.001651296131
-8.553964313e-05
-0.0008267293275
7.430755591e-05
-7.346915265e-05
0.001645502982
0.001660483623
0.00144702629
-0.00154439009
2.149783915e-05
-4.98274696e-05
5.719668026e-05
0.001324809921
-4.825646938e-05
0.001362901442
0.000860727353
-0.001024559544
0.0001196202642
-0.0001219188979
0.0001099475075
0.0007124778802
-0.0001271993748
0.0007604497661
0.0002822763914
-0.0004127706726
6.398856714e-05
-4.716787184e-05
4.129279122e-05
0.0001714758149
-5.211004982e-05
0.0001928920427
0
-1.027580074e-06
0
0
0
0
0
0
0
0
0
0
0
0
0
0
0.0008158633913
-6.63284979e-05
6.383109558e-05
-6.383109555e-05
0.0008158633913
0.000818446063
0.001614040396
-8.592586012e-05
6.477659874e-05
-6.131156059e-05
0.001571372073
7.054489372e-05
0.001594058793
0.001273137318
-0.001398009109
4.036790402e-05
-5.711003091e-05
6.395193363e-05
0.001134816972
-6.169222189e-05
0.001195238523
0.0006846363102
-0.0008386155125
9.876895999e-05
-9.968585908e-05
9.350253403e-05
0.0005324619199
-0.0001055437104
0.0005741451946
0.0001618012812
-0.000264924162
3.63813624e-05
-2.432146833e-05
1.892336423e-05
7.987643055e-05
-2.911963402e-05
0.0001007811218
0
0
0
0
0
0
0
0
0
0
0
0
0
0
0
0
0.001588445352
-0.001590127312
-0.0001302038016
0.0001201344185
-0.0001188453255
0.001581757712
0.001599114669
0.00146550649
-0.001523878247
-6.241409339e-05
4.314719491e-05
-3.507263167e-05
0.001386403533
5.035117294e-05
0.001450511627
0.001042474624
-0.001171937671
4.905938049e-05
-6.987564827e-05
6.837199697e-05
0.0009034909747
-7.049370226e-05
0.000974298235
0.0004765099462
-0.000615617917
7.482109558e-05
-7.048481944e-05
6.181708309e-05
0.0003471492909
-7.821167991e-05
0.000391866421
6.353910304e-05
-0.0001363837292
1.435511822e-05
-7.294693056e-06
4.94996623e-06
1.726885293e-05
-1.115757372e-05
2.997630183e-05
0
0
0
0
0
0
0
0
0
0
0
0
0
0
0
0
0.001357814632
-0.001390424703
-9.538827744e-05
9.432746593e-05
-8.057048793e-05
0.001313187681
0.0001057871471
0.001411962066
0.001102368983
-0.001185366319
-2.246343922e-05
9.201692867e-06
-1.615659538e-06
0.001007976828
1.765002208e-05
0.001119187085
0.0006778287741
-0.0007930481884
4.465414452e-05
-5.661152622e-05
5.018074127e-05
0.0005615587248
-6.183336842e-05
0.0006527899847
0.0002403098694
-0.0003393292486
3.537874478e-05
-3.34738578e-05
2.459861203e-05
0.0001540268971
-4.292241798e-05
0.0002014602186
5.518130819e-06
-3.343356162e-05
1.544979505e-06
-5.455070843e-07
9.593412212e-08
0
-1.434576152e-06
4.286640804e-07
0
0
0
0
0
0
0
0
0
0
0
0
0
0
0
0
0.000829244687
-0.0008646003906
-3.327320701e-05
3.646674668e-05
-2.430986991e-05
0.0007836214518
5.051356148e-05
0.0009277550241
0.0005960513465
-0.0006656747253
4.747263082e-06
-1.177435982e-05
1.251686479e-05
0.0005215611968
-9.154670539e-06
0.0006430413851
0.0002893073739
-0.0003659791091
2.124442975e-05
-2.668965523e-05
1.89874502e-05
0.0002165450147
-3.479395431e-05
0.0002952171411
4.728623714e-05
-9.288866948e-05
5.434758065e-06
-5.222849565e-06
1.989217698e-06
1.60956736e-05
-1.016621369e-05
3.924648879e-05
0
0
0
0
0
0
0
0
0
0
0
0
0
0
0
0
0
0
0
0
0
0
0
0
0.0002822880678
-0.0003013952661
-2.820635236e-06
3.062505566e-06
-6.405340846e-07
0.0002575315341
7.577927722e-06
0.0003719079005
0.0001606351852
-0.0001954062976
3.895301897e-06
-6.887375784e-06
4.163919366e-06
0.0001253749311
-9.572143627e-06
0.0002044673077
3.377132447e-05
-6.011396235e-05
1.714597063e-06
-2.872112401e-06
6.93691304e-07
1.42297752e-05
-6.732507177e-06
4.343381216e-05
0
-1.254042077e-08
0
0
0
0
-4.14118536e-09
0
0
0
0
0
0
0
0
0
0
0
0
0
0
0
0
0
0
0
0
0
0
0
0
0
9.886302502e-06
-1.245553162e-05
8.193681909e-10
-1.342615046e-07
1.702990262e-09
6.989281139e-06
-3.552272388e-07
3.380249663e-05
2.65380136e-07
-1.813780592e-06
0
-8.856600432e-09
0
0
-4.846499835e-07
3.975348391e-06
0
0
0
0
0
0
0
0
0
0
0
0
0
0
0
0
0
0
0
0
0
0
0
0
0
0
0
0
0
0
0
0
0
0
0
0
0
0
0
0
0
0
0
0
0
0
0
0
0
0
0
0
0
0
0
0
0
0
0
0
0
0
0
0
0
0
0
0
0
0
0
0
0
0
0
0
0
0
0
0
0
0
0
0
0
0
0
0
0
0
0
0
0
0
0
0
0
0
0
0
0
0
0
0
0
0
0
0
0
0
0
0
0
0
0
0
0
0
0
0
0
0
0
0
0
0
0
0
0
0
0
0
0
0
0
0
0
0
0
0
0
0
0
0
0
0
0
0
0
0
0
0
0
0
0
0
0
0
0
0
0
0
0
0
0
0
0
0
0
0
0
0
0
0
0
0
0
0
0
0
0
0
0
0
0
0
0
0
0
0
0
0
0
0
0
0
0
0
0
0
0
0
0
0
0
0
0
0
0
0
0
0
0
0
0
0
0
0
0
0
0
0
0
0
0
0
0
0
0
0
0
0
0
0
0
0
0
0
0
0
0
0
0
0
0
0
0
0
0
0
0
0
0
0
0
0
0
0
0
0
0
0
0
0
0
0
0
0
0
0
0
0
0
0
0
0
0
0
0
0
0
0
0
0
0
0
0
0
0
0
0
0
0
0
0
0
0
0
0
0
0
0
0
0
0
0
0
0
0
0
0
0
0
0
0
0
0
0
0
0
0
0
0
0
0
0
0
0
0
0
0
0
0
0
0
0
0
0
0
0
0
0
0
0
0
0
0
0
0
0
0
0
0
0
0
0
0
0
0
0
0
0
0
0
0
0
0
0
0
0
0
0
0
0
0
0
0
0
0
0
0
0
0
0
0
0
0
0
0
0
0
0
0
0
0
0
0
0
0
0
0
0
0
0
0
0
0
0
0
0
0
0
0
0
0
0
0
0
0
0
0
0
0
0
0
0
0
0
0
0
0
0
0
0
0
0
0
0
0
0
0
0
0
0
0
0
0
0
0
0
0
0
0
0
0
0
0
0
0
0
0
0
0
0
0
0
0
0
0
0
0
0
0
0
0
0
0
0
0
0
0
0
0
0
0
0
0
0
0
0
0
0
0
0
0
0
0
0
0
0
0
0
0
0
0
0
0
0
0
0
0
0
0
0
0
0
0
0
0
0
0
0
0
0
0
0
0
0
0
0
0
0
0
0
0
0
0
0
0
0
0
0
0
0
0
0
0
0
0
0
0
0
0
0
0
0
0
0
0
0
0
0
0
0
0
0
0
0
0
0
0
0
0
0
0
0
0
0
0
0
0
0
0
0
0
0
0
0
0
0
0
0
0
0
0
0
0
0
0
0
0
0
0
0
0
0
0
0
0
0
0
0
0
0
0
0
0
0
0
0
0
0
0
0
0
0
0
0
0
0
0
0
0
0
0
0
0
0
0
0
0
0
0
0
0
0
0
0
0
0
0
0
0
0
0
0
0
0
0
0
0
0
0
0
0
0
0
0
0
0
0
0
0
0
0
0
0
0
0
0
0
0
0
0
0
0
0
0
0
0
0
0
0
0
0
0
0
0
0
0
0
0
0
0
0
0
0
0
0
0
0
0
0
0
0
0
0
0
0
0
0
0
0
0
0
0
0
0
0
0
0
0
0
0
0
0
0
0
0
0
0
0
0
0
0
0
0
0
0
0
0
0
0
0
0
0
0
0
0
0
0
0
0
0
0
0
0
0
0
0
0
0
0
0
0
0
0
0
0
0
0
0
0
0
0
0
0
0
0
0
0
0
0
0
0
0
0
0
0
0
0
0
0
0
0
0
0
0
0
0
0
0
0
0
0
0
0
0
0
0
0
0
0
0
0
0
0
0
0
0
0
0
0
0
0
0
0
0
0
0
0
0
0
0
0
0
0
0
0
0
0
0
0
0
0
0
0
0
0
0
0
0
0
0
0
0
0
0
0
0
0
0
0
0
0
0
0
0
0
0
0
0
0
0
0
0
0
0
0
0
0
0
0
0
0
0
0
0
0
0
0
0
0
0
0
0
0
0
0
0
0
0
0
0
0
0
0
0
0
0
0
0
0
0
0
0
0
0
0
0
0
0
0
0
0
0
0
0
0
0
0
0
0
0
0
0
0
0
0
0
0
0
0
0
0
0
0
0
0
0
0
0
0
0
0
0
0
0
0
0
0
0
0
0
0
0
0
0
0
0
0
0
0
0
0
0
0
0
0
-0.0008382842614
4.482087388e-05
0.0008381547853
-4.671378919e-05
4.667788738e-05
-0.0008382483596
-4.704431778e-05
-0.0008345038098
-0.0003495563033
1.027452152e-05
-3.472818087e-05
9.558553599e-05
-0.0004104136584
-0.000410242585
-3.47263353e-05
-1.427247217e-05
-0.0002086891375
0.0002079008525
-0.0002082030838
-4.727602784e-05
-0.0008314225675
0.0008291992632
-0.0008288301758
-4.764511526e-05
-4.518474977e-05
0.0004207679019
-0.0004206325597
-2.65765097e-05
-2.618957241e-05
2.749074727e-05
-2.777349805e-05
0.0004083152335
-0.000409517516
0.000409554864
2.745339931e-05
2.692067717e-05
1.456175024e-05
-1.436569299e-05
-0.0002101747179
1.448979917e-05
1.566652164e-05
1.35850951e-05
-1.339424547e-05
1.412581791e-05
0.0002096494003
1.426440142e-05
0.0004053179101
-2.585925665e-05
2.77491613e-05
-2.795513232e-05
1.251474493e-05
-1.234948524e-05
-4.550196716e-05
0.001407875043
-0.001548355169
0.001441365339
-0.00131027814
0.001160153622
8.069758923e-05
8.130823161e-05
-0.0001307744774
0.0007998175554
-0.00101092853
0.0008452798683
-0.0006790718319
0.0005188111945
0.0001244648413
0.0001187690122
-5.931275771e-05
0.0002153845534
-0.000371104385
0.0002415720193
-0.0001356574878
6.147259377e-05
3.54151181e-05
2.959530138e-05
2.722819378e-05
0.0004130267952
-2.7431788e-05
-0.0004139788757
0.0004139132122
-0.0004140198172
2.692702436e-05
-2.743948643e-05
2.733288142e-05
-2.760920858e-05
-2.73682667e-05
0.0004148092911
0.0004145888114
7.180562187e-05
0.001605670925
-0.00164089824
0.001628510365
-0.0008180778342
-0.001584406116
1.939389977e-05
0.001505623071
-4.766106905e-05
5.046573815e-05
-5.474602317e-05
-5.192636526e-05
0.001610697359
-6.034797091e-05
0.00123694994
-0.001405607445
0.001278418761
-0.001144066246
-0.0001091414416
0.0009886388126
8.189753623e-05
-8.701724567e-05
8.86536054e-05
8.20406181e-05
0.001181928922
-0.0001121917225
0.0006250413335
-0.0008271626859
0.0006653165797
-0.0005104123392
-8.645202837e-05
0.0003684803486
9.892836882e-05
-0.0001045636791
9.219156018e-05
0.0001124303359
0.000557821689
-3.267909724e-05
0.0001220014957
-0.0002439969721
0.0001472836214
-6.908499592e-05
-8.481835994e-06
1.922764736e-05
1.748925544e-05
-2.191555261e-05
1.322477503e-05
2.605045529e-05
8.521898214e-05
2.762034503e-05
6.383109558e-05
0.0008118348922
-6.383109557e-05
-0.000814038957
0.000814038957
-6.133425351e-05
0.0008158633913
-6.133425352e-05
-5.883712747e-05
0.0008158633913
5.645878057e-05
0.001501370339
-0.001592849346
0.001541471633
-0.001462158261
-5.599171914e-06
0.001357541964
-2.490742367e-05
2.969504539e-05
-1.907154703e-05
-3.599576653e-05
0.001498773209
-7.05201056e-05
0.001036046794
-0.001231497091
0.001088504956
-0.0009347389563
-9.958524056e-05
0.0007766616977
8.986195546e-05
-8.720583148e-05
8.737648061e-05
9.006508115e-05
0.000990898657
-8.473086252e-05
0.000435193225
-0.0006293798031
0.000486014337
-0.0003524288284
-5.701965108e-05
0.0002341362795
6.878683364e-05
-7.71540616e-05
6.045187725e-05
8.428981076e-05
0.0003911810741
-1.508004828e-05
4.596143753e-05
-0.0001355254566
6.139724317e-05
-1.55101363e-05
-1.314638808e-06
6.804733976e-08
5.019342308e-06
-7.040297234e-06
3.177394551e-06
1.036142828e-05
2.564465982e-05
1.524640704e-06
0.0001401843025
0.001575345766
0.0001141149981
0.001489964703
-0.001566249616
0.001547082534
-0.001513977695
8.577771764e-05
0.001464123401