/*--------------------------------*- C++ -*----------------------------------*\
| =========                 |                                                 |
| \\      /  F ield         | OpenFOAM: The Open Source CFD Toolbox           |
|  \\    /   O peration     | Version:  v2012                                 |
|   \\  /    A nd           | Website:  www.openfoam.com                      |
|    \\/     M anipulation  |                                                 |
\*---------------------------------------------------------------------------*/
FoamFile
{
    version     2.0;
    format      ascii;
    class       surfaceScalarField;
    location    "2.62";
    object      meshPhi;
}
// * * * * * * * * * * * * * * * * * * * * * * * * * * * * * * * * * * * * * //

dimensions      [0 3 -1 0 0 0 0];
oriented        oriented;


internalField   nonuniform List<scalar> 
5999
(
0
0
0
0
0
0
0
0
0
0
0
0
0
0
0
0
0
0
0
0
0
0
0
0
0
0
0
0
0
0
0
0
0
0
0
0
0
0
0
0
0
0
0
0
0
0
0
0
0
0
0
0
0
0
0
0
0
0
0
0
0
0
0
0
0
0
0
0
0
0
0
2.813148343e-09
5.886124423e-09
0
0
0
0
0
0
0
0
0
0
0
0
0
0
0
0
0
0
0
0
0
0
0
0
0
0
0
0
0
-1.31787091e-08
-1.44783165e-07
1.209897181e-06
8.956494536e-07
-4.71887322e-06
-7.349210247e-06
1.099800587e-05
1.030971098e-05
-6.085258637e-06
-1.934806556e-05
1.053083625e-05
2.194697264e-05
0
0
0
0
0
0
0
0
0
0
0
0
0
0
0
0
0
0
0
0
0
0
0
0
0
-6.409159803e-07
-4.073701907e-07
3.301277901e-06
2.793898207e-06
-2.378018401e-05
-2.245011067e-05
3.73132749e-05
3.162213995e-05
-4.329608266e-05
-6.270371712e-05
5.721435714e-05
7.348564155e-05
-2.801008497e-05
-0.0001037463465
3.423458899e-05
0.0001122309661
0
0
0
0
0
0
0
0
0
0
0
0
0
0
0
0
0
0
0
0
0
0
0
2.115428514e-07
1.952028442e-07
-2.766378433e-05
-2.206313723e-05
4.043781188e-05
3.665920369e-05
-8.981604303e-05
-9.234006539e-05
0.0001092173893
0.0001135599954
-0.0001007542153
-0.0001784931546
0.0001139513403
0.0001989985832
-5.030956167e-05
-0.0002508095694
5.414991905e-05
0.000263712134
0
0
0
0
0
0
0
0
0
0
0
0
0
0
0
0
0
0
0
0
0
-6.668723443e-06
-3.171962997e-06
1.096090082e-05
1.342242539e-05
-8.848432804e-05
-7.796312608e-05
0.0001046135273
0.0001073850745
-0.0001685778998
-0.000211042584
0.0001827999167
0.0002479256659
-0.00014416357
-0.0003401638473
0.0001558109865
0.0003591107804
-6.004957773e-05
-0.0004060030241
6.113432177e-05
0.000412701683
0
0
0
0
0
0
0
0
0
0
0
0
0
0
0
0
0
0
1.858989629e-07
2.763781273e-09
1.080996345e-07
-2.553075365e-05
-1.813784249e-05
3.102240277e-05
4.045554166e-05
-0.0001477550059
-0.0001464772752
0.000155958473
0.0001953609362
-0.000216523897
-0.0003342853987
0.0002242740342
0.0003765519542
-0.00016173909
-0.0004758632627
0.0001562806892
0.0004985958288
-6.898043735e-05
-0.00051969207
4.507211057e-05
3.722388234e-05
0.0002472516678
0.0002591248466
0
0
0
0
0
0
0
0
0
0
0
0
0
0
0
0
-7.801078376e-07
0
1.673814381e-06
1.066208417e-06
1.67349767e-06
-4.252554392e-05
-3.463433481e-05
4.392962073e-05
6.765486896e-05
-0.0001800945146
-0.0002136639652
0.000183096137
0.0002711636057
-0.0002367505229
-0.0004387416389
0.0002379396767
0.0004858589207
-0.000149402427
-0.0005746950832
0.0001476503613
0.0005822109052
-3.374120583e-05
-0.0002927869713
3.425925517e-05
0.0002922689219
0
0
0
0
0
0
0
0
0
0
0
0
0
0
0
0
-2.175812797e-06
0
2.749461981e-06
3.227859366e-06
3.723417133e-06
-5.107322604e-05
-4.796392884e-05
5.259277817e-05
8.828086856e-05
-0.0001932995303
-0.0002596624459
0.0001953496783
0.0003257539161
-0.0002410717645
-0.0005134930074
0.0002416796179
0.0005638534332
-0.0001452890366
-0.0006490186988
0.000144959624
0.0006520986161
-3.257413616e-05
-0.0003239967908
3.256872862e-05
0.0003240021983
0
0
0
0
0
0
0
0
0
0
0
0
0
0
0
0
-3.308009811e-06
0
4.076091313e-06
5.354859059e-06
6.085563496e-06
-5.637501177e-05
-5.957996537e-05
5.790375793e-05
0.0001063161251
-0.0002003975087
-0.0003004136863
0.0002023823237
0.0003741482155
-0.0002431866352
-0.0005805960525
0.0002437461608
0.0006348868522
-0.0001442556614
-0.0007226322538
0.0001440533196
0.0007245411484
-3.2476551e-05
-0.0003598140122
3.258434103e-05
0.0001791993917
0.0001805068305
0
0
0
0
0
0
0
0
0
0
0
0
0
0
0
0
-4.914413334e-06
0
5.878154062e-06
8.656117265e-06
9.6653888e-06
-6.268350544e-05
-7.39948276e-05
6.436567616e-05
0.0001278460426
-0.0002084013453
-0.0003459744431
0.0002104633509
0.0004275019109
-0.0002453555507
-0.0006521754004
0.0002458772232
0.0007099403967
-0.0001434419842
-0.000798291686
0.0001432833655
0.0007991561373
-3.245470103e-05
-0.0003972436115
3.247704463e-05
0.0001980130676
0.0001992082003
0
0
0
0
0
0
0
0
0
-7.045347343e-06
0
1.344911904e-05
1.415748063e-05
-6.98562644e-05
-9.129866242e-05
7.200106248e-05
0.0001527533943
-0.0002169803821
-0.0003953569177
0.0002194459887
0.0004844837412
-0.0002474236049
-0.0007259919569
0.0002479555026
0.0007865611935
-0.000142935898
-0.000873097194
0.0001429466468
0.0008731618981
-3.246752951e-05
-0.0004342811362
3.245128752e-05
0.0002164888472
0.0002178085311
-0.0003198225161
0.0003198414672
-3.259308727e-05
-0.000355200087
-3.240459994e-05
0.0001770846059
0.00017804353
-0.0003925714503
-3.241332548e-05
0.000195731045
0.0001967990297
-0.0004295269243
-3.240388742e-05
0.0002141730356
0.0002152902466
-0.0002879840736
0.0002878182031
-3.35753354e-05
-0.0007039212684
0.0007060725987
-0.0001444517725
3.768750646e-05
-3.768104397e-05
-0.0003552065494
-3.776977751e-05
-0.0003239615483
3.773453498e-05
-0.0007795587264
0.0007806607762
-0.0001436185851
3.762791958e-05
-3.762178458e-05
-0.0003925775853
-0.0003598191414
3.769263562e-05
3.251983882e-05
-0.0003741797069
-3.251488529e-05
0.0001864717678
0.0001877029856
7.919615565e-06
9.399829035e-05
-7.897604997e-06
-0.0001876998783
9.367957738e-05
-7.869443197e-06
8.932807753e-05
-0.0001791433755
7.931540543e-06
8.975320058e-05
-0.0008542346311
0.0008544860955
-0.0001429717414
3.758863287e-05
-3.758420377e-05
-0.0004295313533
-0.0003972293963
3.761370438e-05
3.231861271e-05
-0.0004111711313
-3.241052136e-05
0.0002050806918
0.0002061823482
3.771990698e-06
0.0001032548975
-3.762697284e-06
-0.000103264191
-7.930384506e-06
9.885815828e-05
-0.0001980270894
7.906768362e-06
9.919254727e-05
-0.000434287305
3.759480159e-05
1.68516652e-05
-0.0002247956194
0.0002248207466
-1.687679246e-05
3.521387033e-06
0.0001126697373
-3.598462345e-06
-0.000112592662
-3.668244117e-06
0.0001079846879
-0.0001080021199
3.685676112e-06
-6.596927707e-06
-0.0001527715136
6.725083436e-06
7.608146344e-05
7.656189442e-05
6.523021716e-06
-0.0001603681548
-6.524645446e-06
8.01424353e-05
8.022734319e-05
-0.0001466763285
-9.332610157e-06
9.668545919e-06
0.0001463403927
-0.0001520285354
0.000152142868
-6.711260334e-06
8.900997391e-05
-7.790428258e-06
-0.0001779883756
8.889938676e-05
0.0001701731288
-7.844403003e-06
-0.0001701872016
7.858475747e-06
-3.249762937e-05
-0.0003417152484
3.250573374e-05
0.000341707144
-6.516051071e-06
6.620910901e-06
8.491724816e-05
8.515102085e-05
3.442972908e-06
8.90114086e-05
-3.444407603e-06
-0.0001613326988
6.596916407e-06
8.045226765e-05
8.08065365e-05
-0.0001691896273
-6.554073539e-06
8.452579744e-05
8.470185236e-05
9.851166033e-05
-7.868189498e-06
-0.0001967627812
9.81889259e-05
9.436897467e-05
-0.0001890257423
7.857416502e-06
9.471896667e-05
-0.0003789617776
3.242139473e-05
0.0001889843563
0.0001900758654
-3.427302475e-06
3.413499883e-06
9.438277726e-05
3.479086394e-06
9.850205152e-05
-3.469477581e-06
3.455013614e-06
8.931603683e-05
9.400989319e-05
-3.43890532e-06
0.0001076887263
-3.667255453e-06
-0.000107689715
0.0001035255088
-0.0001035143302
3.760812084e-06
-0.0004154950719
3.243801688e-05
0.0002072070589
0.0002081686089
-3.420612281e-06
3.460414923e-06
0.0001034857062
3.248352323e-06
0.0001076574691
-3.21709517e-06
3.475151561e-06
9.886209312e-05
0.0001032535871
-3.419301799e-06
0.0001128508997
-0.0001128827499
3.553237208e-06
0.0002258961932
-3.0711011e-06
3.10821039e-06
0.0001128137904
3.296756762e-06
0.0001079362835
0.0001127117286
-3.113092393e-06
-0.0006305618851
0.0006343063135
-0.0001458550837
-3.78047813e-05
-0.0003197875123
-3.884706288e-05
-0.0002924010852
3.846117678e-05
3.296046274e-05
-0.0003031250692
0.0003030924459
-3.292783947e-05
7.947673818e-06
-7.965191678e-06
-0.0001520110175
-8.701227351e-06
-0.0001471276852
9.152584052e-06
-0.0003372614076
0.0003373014662
-3.253768801e-05
-7.848608494e-06
-0.0001691854218
-7.885790498e-06
-0.000161333125
7.88621668e-06
-7.880554431e-06
-0.0001603733908
-0.0001527801199
7.95628009e-06
-0.0003059112764
3.275761581e-05
0.0003061141234
-1.02626905e-06
-7.85245294e-05
8.658791759e-07
7.868491928e-05
-7.557997413e-05
-3.784555542e-06
2.759339037e-06
7.660519063e-05
-7.49242529e-05
1.822393326e-06
7.506251981e-05
-1.960660234e-06
-0.0002853445756
-1.828937103e-05
1.308619046e-05
1.040390714e-05
0.0001383359187
0.0001418079304
-0.0001441716231
0.0001471818317
-1.234281875e-05
0.000110478019
-3.866574138e-06
-0.0001104988998
3.887454879e-06
-1.174679589e-05
-0.0002211098623
1.176179784e-05
0.0002210948604
1.175278926e-05
-0.0002247909178
0.0002248155404
-1.177741183e-05
-7.790101054e-05
-1.710634618e-06
-1.775876453e-05
9.737040969e-05
-7.791822315e-05
-9.667669147e-07
7.785872101e-05
6.664654045e-06
-0.0001561325646
-6.610283051e-06
7.777639522e-05
7.830179836e-05
1.29031945e-06
-1.175292009e-06
-7.803325059e-05
-1.252439856e-06
-7.727684556e-05
6.282748772e-07
1.571110601e-07
4.39932957e-06
-8.033600116e-05
7.577956053e-05
-7.859475648e-05
1.360546521e-06
-0.0001574361034
6.487767824e-06
7.875513456e-05
7.885785508e-05
7.05318486e-06
-0.0001502122419
0.0001503012332
-7.142176095e-06
1.610577761e-06
-1.521942322e-06
-7.501288834e-05
-5.726272563e-06
-7.324850249e-05
3.394800923e-06
7.693821523e-05
-1.490317792e-06
-7.67003373e-05
7.505092661e-05
-7.509617644e-05
1.655827592e-06
-0.000150172949
6.962851695e-06
0.0001502632822
1.35581694e-06
7.5517503e-05
7.68660624e-05
-1.63848178e-06
3.435101592e-06
-8.695107236e-05
8.695754117e-05
-3.441570406e-06
-1.180430027e-06
-8.484158794e-05
1.186285066e-06
8.48357329e-05
-8.726940666e-05
3.437503675e-06
8.726700457e-05
6.513510432e-06
-0.0001648802977
-6.597388753e-06
8.231798397e-05
8.264619203e-05
1.032396206e-06
-1.039401948e-06
-8.254680833e-05
8.255381407e-05
-8.038448277e-05
8.499108934e-07
7.969168294e-05
-1.142582726e-06
-8.46153622e-05
8.45775149e-05
-8.275963849e-05
1.055022357e-06
8.273701233e-05
-0.00016582949
6.521904178e-06
8.282509963e-05
8.299599661e-05
3.453236808e-06
-9.627361187e-05
9.625930995e-05
-3.43893489e-06
-9.66084317e-05
3.441539565e-06
9.662012894e-05
3.464556317e-06
-9.162407171e-05
9.16106371e-05
-3.451121711e-06
-9.193163877e-05
3.462017765e-06
9.193417732e-05
3.541903358e-06
-0.0001056367059
0.0001056310027
-3.536200217e-06
-0.0001059327525
3.498244539e-06
0.0001059764113
3.355705641e-06
-0.000100969542
0.0001009837829
-3.369946514e-06
-0.0001012382883
3.359706755e-06
0.0001012342872
-0.0002259105131
0.0002259161221
3.595260608e-06
-0.0001102352088
0.0001101855245
-3.545576357e-06
3.647318766e-06
0.0001104259609
-9.708596963e-06
-0.0001472219495
8.772288253e-06
-7.648431226e-05
7.649841735e-05
-3.798660637e-06
-3.736954988e-06
-0.0001012409841
3.739650797e-06
-1.171731433e-05
-0.0002027693316
1.173332435e-05
0.0002027533216
1.172154385e-05
-0.0002062104397
0.0002062144034
-1.172550756e-05
-1.172872578e-05
-0.0001980187677
1.172595687e-05
0.0001980215367
-0.0002015889751
0.0002015919685
-1.172030772e-05
-3.760456458e-06
-0.0001009460406
-1.173287426e-05
-0.0002164981934
1.174681953e-05
0.0002164842481
-0.0002201790245
0.0002201862297
-1.175400107e-05
-3.847810398e-06
-0.0001102539725
-7.918859378e-06
9.697804885e-05
-0.0001935573934
7.88977227e-06
-1.17221748e-05
-0.0001935453089
1.171963668e-05
0.000193547847
-0.0001967875702
0.0001967719836
-1.171313918e-05
2.610327816e-06
9.842782668e-05
-2.593757325e-06
-9.844439718e-05
9.765175324e-05
-2.467433128e-06
-9.770607264e-05
2.521752534e-06
-3.456030555e-06
-9.773608854e-05
3.46578492e-06
9.772633418e-05
-3.809107714e-06
-0.0001059178346
3.794189787e-06
-1.170479127e-05
-0.000211958841
1.167921052e-05
0.0002119844217
-0.0002152596618
0.0002152649347
-1.173814722e-05
-0.0002072149635
1.171746736e-05
0.00020721904
-0.0002108240351
0.0002108478698
-1.172862601e-05
-3.841879193e-06
-0.0001056039344
3.482827862e-06
-0.0001040639791
0.0001040631971
-3.482045879e-06
2.598323157e-06
0.0001039153738
-2.535302576e-06
-0.0001039783943
-2.415553325e-06
0.0001034097349
-0.0001034365451
2.442363493e-06
2.129330045e-06
-2.109602519e-06
-0.0001075943835
0.000107574656
4.80160438e-06
-0.0001070357627
1.230432483e-06
0.0001010037258
-3.233182424e-06
-0.0001069365601
3.202876413e-06
0.0001069668661
3.479844273e-06
-9.97669827e-05
9.976526017e-05
-3.47812175e-06
2.698956909e-06
9.98608061e-05
-2.724721639e-06
-9.983504137e-05
9.878550751e-05
-9.883741754e-05
2.662237845e-06
0.0001031396033
-2.369754911e-06
-0.0001031854017
0.0001022715311
-2.253056664e-06
-0.0001023162837
2.297809243e-06
-3.377289112e-06
-0.0001024034544
3.397650671e-06
0.0001023830928
3.399637476e-06
-0.000109038964
0.0001090112692
-3.371942637e-06
2.321523798e-06
-2.297916111e-06
-0.00010886065
0.0001088370423
-0.0001078102342
2.251032759e-06
0.0001076885315
-4.215341493e-06
-0.00011207114
1.384535238e-05
0.0001024411291
-3.657411855e-06
-0.0001116935757
3.507050597e-06
0.000111843937
2.20670857e-06
-7.910309621e-05
-1.136644714e-06
7.803303235e-05
-8.010701641e-05
9.187070127e-06
7.312665486e-05
1.5834838e-06
-7.584699727e-05
7.604454284e-05
-1.781029369e-06
-7.639054054e-05
1.985668511e-06
7.598835583e-05
5.764012564e-07
-7.67367615e-05
2.289106543e-07
7.593144959e-05
-7.690029559e-05
6.601590087e-07
7.681653784e-05
-7.099301899e-07
-7.709393138e-05
9.035659801e-07
-1.968623708e-06
-7.740145388e-05
2.026636557e-06
7.734344103e-05
2.179664977e-06
-7.82859138e-05
7.822942255e-05
-2.123173725e-06
-2.475371187e-06
-7.621928606e-05
2.149315825e-06
7.654534142e-05
-7.724220669e-05
7.722078203e-05
-1.94719905e-06
-4.539559562e-07
-7.699273573e-05
-1.70163863e-06
-8.008692665e-05
1.681548867e-06
-2.202726044e-06
-7.967108218e-05
2.123098567e-06
7.975070965e-05
1.915405129e-06
-8.024455143e-05
8.028784813e-05
-1.958701836e-06
-7.876589192e-05
2.195164301e-06
7.875039259e-05
-7.915075265e-05
7.917776772e-05
-2.22974112e-06
-1.595491051e-06
-7.920924379e-05
7.533448443e-05
-8.462784904e-07
-7.567023027e-05
1.182024334e-06
-2.23369224e-06
-7.581491505e-05
2.204810971e-06
7.584379632e-05
-7.620428063e-05
7.614061403e-05
-2.411704584e-06
1.348011357e-07
-7.521130134e-05
7.485544522e-05
2.210549784e-07
7.650273442e-07
7.470425822e-05
-1.397038315e-06
-8.649718126e-05
2.222198075e-06
8.56720215e-05
-2.243815657e-06
-8.641637626e-05
2.218397582e-06
8.644179434e-05
1.944376289e-06
-8.701264336e-05
8.70988874e-05
-2.030620335e-06
-2.210644596e-06
-8.49114587e-05
2.246734449e-06
8.487536885e-05
-8.597850865e-05
8.599428732e-05
-2.259594327e-06
-1.365604421e-06
-8.592873708e-05
8.589730319e-05
-1.943862687e-06
-8.84380804e-05
1.947254373e-06
8.843468871e-05
1.991524148e-06
-8.899599484e-05
8.899244766e-05
-1.98797697e-06
-8.730707768e-05
1.912925888e-06
8.733852808e-05
-8.815848927e-05
8.81394141e-05
-1.924787515e-06
-9.549471498e-07
-8.149615534e-05
9.789075597e-07
8.147219493e-05
-2.009206299e-06
-8.158944657e-05
2.025081174e-06
8.157357169e-05
2.090628249e-06
-8.264419502e-05
8.262668168e-05
-2.073114907e-06
-8.044107576e-05
1.913280845e-06
8.044320004e-05
-8.143394919e-05
8.140312585e-05
-1.978382957e-06
-9.165367298e-07
-8.126763752e-05
8.12292271e-05
-1.2005015e-06
-8.387428685e-05
1.191210387e-06
8.388357796e-05
-2.164174728e-06
-8.394186177e-05
2.182952293e-06
8.392308421e-05
-8.46863415e-05
8.468205764e-05
-2.206360744e-06
-8.282740343e-05
2.124057663e-06
8.279397402e-05
-8.344967496e-05
8.344661573e-05
-2.161115499e-06
-1.116220118e-06
-8.338221514e-05
8.329793376e-05
-1.895215402e-06
-9.531575928e-05
1.921380794e-06
9.528959389e-05
2.02058464e-06
-9.618841959e-05
9.616130077e-05
-1.993465815e-06
-1.757528328e-06
-9.445966336e-05
1.729476899e-06
9.448771479e-05
-9.510841074e-05
9.506824645e-05
-1.85505111e-06
-2.16722057e-06
2.195384729e-06
9.762358907e-05
2.331676328e-06
9.838371627e-05
-2.287565915e-06
-9.654974346e-05
2.065723621e-06
9.650460448e-05
-9.743496026e-05
9.740677548e-05
-2.13903579e-06
-2.099443084e-06
-9.07122801e-05
2.151677157e-06
9.066004603e-05
2.240978693e-06
-9.1580455e-05
9.154513699e-05
-2.20566068e-06
-8.928576054e-05
2.010355649e-06
8.926692904e-05
-9.040572388e-05
9.037041285e-05
-2.064132054e-06
-2.388863361e-06
-9.318279136e-05
2.363710415e-06
9.320794431e-05
-9.42137747e-05
9.439589279e-05
-1.939646425e-06
-9.188526986e-05
2.275961786e-06
9.185028677e-05
-9.281410239e-05
9.278357186e-05
-2.358332826e-06
0.0001055049432
2.869968328e-06
-2.766159143e-06
-0.0001056087524
0.0001043606949
-0.0001044223906
2.660018854e-06
-0.0001045464219
3.523189874e-06
0.0001045060599
-2.16994465e-06
2.153406489e-06
0.0001043772331
2.291613148e-06
-2.245885422e-06
0.0001054592155
-1.977429692e-06
1.981793548e-06
0.0001034053711
-2.031380221e-06
0.0001037768093
-0.0001059367693
3.564789363e-06
0.0001046635931
-0.0001066483293
0.0001067373682
-3.322221414e-06
2.2854421e-05
-0.0001071105584
8.905774178e-05
-0.000106016081
2.949280014e-06
0.0001010909519
2.081026232e-06
-2.108744937e-06
-0.0001010632332
0.0001004074889
-0.000100263946
2.55541403e-06
-0.000100057737
3.438885164e-06
0.0001000986961
-2.569663423e-06
2.517080711e-06
0.0001004600716
9.663944078e-07
4.682195113e-06
9.544236236e-05
2.372471646e-06
9.874471219e-05
9.978029107e-05
-2.489148392e-06
-1.883520434e-06
1.906688685e-06
0.0001022483629
-1.95379749e-06
0.000103115971
-0.0001011877608
1.777604013e-06
0.0001003765512
-0.0001019813222
-1.861150369e-06
0.0001019589521
-0.0001020933348
0.0001020721324
-3.356086685e-06
-2.209900495e-06
-0.0001020244783
-0.0001012285566
2.121822008e-06
2.476243971e-06
-2.45346782e-06
-0.0001100760132
0.0001100532371
-0.0001091695018
2.365782454e-06
0.0001091252431
-0.0001093284847
3.447838237e-06
0.0001092802839
-0.0001110623008
0.0001110984285
-3.693539563e-06
-2.74288714e-06
-0.000110912112
0.0001094396576
-0.0001103005419
2.455731552e-06
0.0001103210543
-7.884545566e-06
9.220125983e-05
-0.0001841295352
7.881182212e-06
-1.17402161e-05
-0.000184122871
1.173778804e-05
0.0001841252991
1.173341483e-05
-0.0001877065827
0.00018770804
-1.173487218e-05
-0.0001791709333
-1.173102613e-05
1.172957172e-05
0.0001791723877
-0.0001829644325
0.000182948828
-1.172461161e-05
9.133424526e-05
-7.889054772e-06
-0.0001829538078
-0.0001890081682
1.173195815e-05
0.0001890096248
-0.0001922226729
0.0001922262945
-1.172579642e-05
9.590153715e-05
-7.87597732e-06
-0.0001922180311
3.414515471e-06
-9.516816434e-05
9.516675672e-05
-3.413107843e-06
2.224209295e-06
-2.190636439e-06
-9.51419836e-05
-2.18525548e-06
-9.442516406e-05
2.150756179e-06
-2.291363787e-06
-9.410766639e-05
-2.59978634e-06
-9.313731423e-05
2.554309206e-06
-3.461469687e-06
-9.309537446e-05
3.455197832e-06
9.310164631e-05
-7.861887933e-05
8.621839199e-07
7.862257459e-05
-4.756364039e-06
-7.749925803e-05
6.449685754e-05
-9.340722713e-06
0.0001067111324
-7.731224521e-05
-7.775514658e-07
7.712302976e-05
-7.745580211e-05
-1.031735109e-06
1.442748976e-06
-1.314745974e-06
-7.758380511e-05
1.557438993e-06
-7.81479406e-05
-8.057517355e-05
1.816293278e-05
6.681157034e-05
1.057153148e-06
-1.234695182e-06
-8.039763152e-05
1.06008641e-06
-8.033893442e-05
1.643795208e-06
-7.868111269e-05
7.869973012e-05
1.715231845e-06
-7.877116675e-05
1.441397309e-06
-2.313395839e-06
-7.512010715e-05
2.198760963e-06
7.523474203e-05
-7.581357575e-05
7.578834225e-05
-2.208458743e-06
-6.184045075e-07
-7.543917532e-05
7.685074675e-05
2.168097779e-07
-7.571173959e-05
-1.720205302e-06
-1.789547656e-05
9.646642862e-05
7.511083292e-05
-1.313535224e-06
-2.16318276e-06
6.968852244e-05
-7.555022939e-05
-8.298657729e-07
7.421691241e-05
-1.218411502e-06
-7.597029967e-05
-0.0001081233498
-9.596012637e-06
0.0001177193624
-1.932228389e-05
-1.734407161e-06
-8.706665871e-05
-4.393679619e-06
-8.722818676e-05
7.229958249e-05
1.661367836e-06
-1.633108279e-06
-8.48698475e-05
8.506633495e-05
1.687115691e-06
-8.50920828e-05
1.23886025e-06
8.501375976e-05
1.250549652e-06
-1.244299365e-06
-8.885532191e-05
8.884907162e-05
1.241275747e-06
-8.899611897e-05
8.900539288e-05
5.060277269e-07
-8.738028437e-05
8.248057702e-05
1.170651908e-06
-8.757965255e-05
8.691502837e-05
-8.221360431e-05
-1.078145575e-06
8.225234794e-05
1.387588169e-06
-1.359865951e-06
-8.224132653e-05
1.432025046e-06
-8.259124521e-05
1.099529097e-06
-8.042392546e-05
8.065269152e-05
1.176781318e-06
-8.072994374e-05
9.551785375e-07
8.054742388e-05
-8.446703298e-05
-1.120032291e-06
8.444448254e-05
1.603876071e-06
-1.574298611e-06
-8.449661044e-05
-8.464459441e-05
1.44578244e-06
-8.277339588e-05
8.291031381e-05
1.475046228e-06
-8.29395776e-05
1.062344797e-06
8.290299137e-05
2.344277577e-06
-2.309782113e-06
-9.622291506e-05
-9.535007953e-05
2.258529543e-06
-9.539084175e-05
3.436038162e-06
9.536931906e-05
-9.750266166e-05
9.74911451e-05
-3.444513994e-06
-2.431467676e-06
-9.747092572e-05
-9.656642842e-05
2.360962532e-06
2.545250099e-06
-2.511309456e-06
-9.161439564e-05
-2.444323839e-06
-9.072890835e-05
2.460952086e-06
-3.462384582e-06
-9.07540167e-05
3.458078083e-06
9.07583232e-05
1.453817668e-06
-1.430111762e-06
-9.121071129e-05
9.118700539e-05
1.494342159e-06
-9.151722727e-05
9.147670278e-05
1.379551546e-06
-8.922277154e-05
8.908449574e-05
1.35255216e-06
-8.966238343e-05
8.968938281e-05
-1.081638469e-05
-0.0001170203867
0.0001278367714
1.500429412e-06
-9.178909778e-05
9.178301053e-05
-9.209393405e-05
1.53928595e-06
9.205507751e-05
-9.279251878e-05
9.280699163e-05
-3.475942534e-06
-2.602375433e-06
-9.28115133e-05
-9.190251913e-05
2.562499369e-06
-0.0001037068763
0.0001036602915
-2.488717779e-06
2.844220066e-06
-0.0001037604758
-2.790620521e-06
2.896337404e-06
-0.0001040305117
-0.0001073713331
-2.063937201e-06
0.0001073256678
2.478779848e-06
-2.412511071e-06
-0.0001074376019
2.514961512e-06
-0.0001076305652
2.355035149e-06
-2.366456499e-06
-0.0001070243413
0.0001071726302
-0.0001072301061
0.0001063391254
2.446462704e-06
-1.514375609e-06
-0.0001127383648
0.0001118062777
-0.0001128931953
0.0001128486688
-0.0001085514989
-2.274258933e-06
0.0001085278417
2.71725268e-06
-2.635184392e-06
-0.0001086335672
2.77949885e-06
-0.0001089228961
2.574161224e-06
-0.0001078694339
0.000108201491
-0.0001082625142
0.0001081782649
-4.770606883e-06
2.368412183e-05
-0.0001128860048
9.397248989e-05
-0.0001127031436
0.0001064181611
3.507789317e-06
-3.521217829e-06
-0.0001120577115
0.0001399828122
-0.0001127909011
0.0001538281646
-7.857682281e-05
7.830236202e-05
-0.0001006126064
0.0001097996765
2.325260068e-06
-7.622253754e-05
-2.751138423e-06
2.859824314e-06
-7.555923536e-05
-5.077728046e-06
1.770904206e-05
-7.598003633e-05
9.865920736e-07
-7.452389827e-05
6.845957815e-05
3.033572042e-06
-7.538859361e-05
9.777120128e-05
-7.702858718e-05
-7.689004366e-05
7.236259028e-05
-7.702099202e-05
7.690359956e-05
1.597714805e-06
-1.787152598e-06
-7.989748886e-05
8.076812474e-05
-8.040510511e-05
-7.873091655e-05
1.784749855e-06
-7.880043456e-05
-7.921164653e-05
5.216342725e-06
-4.84733551e-07
7.012383605e-05
-7.600408334e-05
6.33249495e-05
-7.556621858e-05
9.575315878e-06
6.652210911e-05
0.0001060417445
7.511930417e-05
-7.557268833e-05
-5.966581211e-07
7.488609652e-05
7.362286655e-05
1.784519565e-06
-1.786207114e-06
-8.649549372e-05
8.689314669e-05
-8.684303429e-05
7.951933213e-05
-8.53841191e-05
8.525737493e-05
1.752559695e-06
-8.54495631e-05
-8.59623845e-05
1.238625681e-06
-1.23356799e-06
-8.839087196e-05
8.838581427e-05
-8.866473874e-05
8.865906505e-05
1.214394051e-06
-8.781773777e-05
8.777399562e-05
-8.811539368e-05
8.809621974e-05
1.331794829e-06
-1.303286955e-06
-8.152466321e-05
8.17865225e-05
-8.181459362e-05
8.168728449e-05
-8.10529509e-05
8.109159271e-05
1.215687386e-06
-8.109185697e-05
-8.135523709e-05
1.576370346e-06
-1.563720774e-06
-8.388693642e-05
8.428752204e-05
-8.428545031e-05
8.435870014e-05
-8.307608988e-05
8.302221456e-05
1.519766976e-06
-8.312081063e-05
-8.342616894e-05
9.552700341e-05
1.930853149e-06
-9.553647577e-05
-1.554339386e-06
1.57798231e-06
9.550336049e-05
-1.51394734e-06
9.524920184e-05
-1.618805556e-06
1.66018396e-06
9.611992236e-05
-9.578239496e-05
9.574157171e-05
-9.584500762e-05
9.462138731e-05
1.805273087e-06
-9.469718349e-05
-7.022337484e-07
1.48342657e-06
9.384019448e-05
4.588152626e-06
8.919732841e-05
-1.476447142e-06
9.503074625e-05
-9.489270335e-05
9.489968278e-05
-9.494248138e-05
9.784017258e-05
2.241716778e-06
-9.788650463e-05
-1.723985715e-06
1.729572088e-06
9.783458621e-05
-1.718573349e-06
9.761817671e-05
-1.78968968e-06
1.848696714e-06
9.832470924e-05
-9.805699422e-05
9.799687663e-05
-9.810284335e-05
9.686587693e-05
2.092897648e-06
-9.689305096e-05
-1.683794152e-06
1.670818147e-06
9.687885294e-05
9.648099429e-05
-1.676756058e-06
9.736495819e-05
-9.717189771e-05
9.71659598e-05
-9.721803585e-05
1.423258458e-06
-9.064865579e-05
-1.382815351e-06
9.060821269e-05
-9.092114398e-05
9.091429067e-05
9.09664281e-05
2.187179802e-06
-9.100193074e-05
-1.813309416e-06
1.858593536e-06
-1.801919181e-06
-1.903820192e-06
1.931729914e-06
-9.125593795e-05
-9.127441883e-05
1.37622362e-06
-9.003545289e-05
9.001178143e-05
-9.032542067e-05
9.031882894e-05
2.744362692e-06
-9.31285496e-05
-1.655151032e-06
9.203933794e-05
-9.377012917e-05
8.569810718e-05
9.373533257e-05
2.202803701e-06
-9.357442586e-05
-2.229874449e-06
2.195077849e-06
-2.150479737e-06
2.060821252e-05
7.83758329e-05
-9.421709635e-05
-9.395393908e-05
9.211800594e-05
2.309709584e-06
-9.215175374e-05
-1.9929189e-06
2.01699079e-06
-2.084136763e-06
9.271722888e-05
-9.242805939e-05
9.236091342e-05
-9.247668263e-05
1.589506445e-06
9.231069293e-05
9.26515843e-05
-0.0001052115294
-2.718259482e-06
0.0001051636297
3.044258902e-06
-2.996829271e-06
-0.000105258959
3.072572145e-06
-0.0001056370657
2.947293056e-06
-0.0001044733463
0.0001048620085
-0.0001049115447
0.0001048037679
2.174120642e-06
0.0001047830537
0.000105091865
1.947838219e-06
-0.0001035834644
0.0001036174198
0.0001035767495
1.268718578e-05
-0.0001066177315
9.749533506e-05
-0.0001327950021
0.0001454821879
-0.0001070261752
-2.914405875e-06
2.571757059e-06
-2.896648868e-06
-0.0001067012834
-0.0001069052578
3.062754387e-06
-0.0001060062633
0.0001065828573
-0.0001064167518
0.000125235547
-2.180822637e-05
-0.0001009102399
-1.173385733e-05
0.0001369694043
-3.141147218e-06
9.18673615e-05
-0.000101051888
8.392585674e-05
9.908271056e-05
2.404058612e-06
-9.911429753e-05
-1.851273924e-06
1.902494727e-06
9.903148976e-05
9.874213498e-05
-1.949599811e-06
9.858874366e-05
-9.936782659e-05
9.93207215e-05
-9.945291637e-05
1.930197532e-06
-0.0001025801158
0.000102556607
-0.0001028693102
0.0001028457103
1.804193098e-06
-0.0001014256098
0.0001013990207
-0.0001017076084
0.0001016506511
-0.0001097473011
-2.409811782e-06
0.0001097036451
2.966780935e-06
-2.904606953e-06
-0.0001098094751
3.007572877e-06
-0.0001101168052
2.842053432e-06
-0.0001092320563
0.0001094584734
-0.000109521027
0.0001094144441
-0.0001103675991
-2.447491874e-06
0.0001100722038
3.361989205e-06
-3.153207954e-06
-0.0001105763803
-0.0001110713406
3.08574303e-06
-0.000110378712
0.0001104164779
-0.0001104839428
0.0001104247176
0
0
0
0
0
0
0
0
0
0
0
0
0
0
0
0
0
0
0
1.089926956e-08
0
2.363209802e-06
3.119677485e-06
-3.67211751e-07
-1.111788128e-06
0
0
0
3.962452918e-06
-1.062782361e-06
9.385430182e-06
6.724005788e-06
-2.810283818e-06
-7.600882811e-06
0
0
0
1.098857022e-05
-2.751151028e-06
0
0
0
0
0
0
0
0
0
5.234464717e-07
0
1.25720299e-05
1.603740285e-05
-7.48292242e-06
-6.933598008e-06
0
1.757625221e-07
1.928577466e-05
-1.306793991e-05
4.315122713e-05
4.139255486e-05
-2.821949579e-05
-3.479832243e-05
-4.660641799e-06
8.773091116e-06
5.163024956e-05
-3.063617854e-05
7.578884706e-05
3.472862322e-05
-2.648345001e-05
-6.817132255e-05
-1.644781473e-05
1.214713016e-05
8.26370837e-05
-2.178158102e-05
0
0
0
1.299247092e-05
1.423974419e-05
-7.191831185e-06
-4.869198728e-06
0
4.935140824e-07
2.422079588e-05
-1.704999513e-05
7.036823856e-05
7.642576007e-05
-5.836287122e-05
-5.34192736e-05
-1.432134224e-05
2.763266896e-05
8.831091592e-05
-7.093443804e-05
0.000144462033
0.000104959541
-8.86701921e-05
-0.0001257255833
-5.198175059e-05
5.625441736e-05
0.0001626954206
-8.653498422e-05
0.0002103808809
6.632042927e-05
-5.932020119e-05
-0.0001960310413
-9.427463105e-05
4.31983772e-05
0.0002227756177
-4.560666065e-05
-1.117855769e-06
8.155328086e-06
-3.340005867e-06
6.180325006e-05
6.268180593e-05
-4.913260814e-05
-3.938535765e-05
-1.117430483e-05
2.425808575e-05
8.775363383e-05
-7.245199423e-05
0.0001835132032
0.0001570182577
-0.0001387640284
-0.000150390054
-7.21595919e-05
9.561950181e-05
0.000217273862
-0.000149868943
0.000295996392
0.0001613878362
-0.0001474911335
-0.0002704335437
-0.0001570925796
0.0001204690003
0.0003201880518
-0.0001358718156
0.0003702659822
8.301853561e-05
-8.036309165e-05
-0.0003569896778
-0.0002355450976
7.225711174e-05
0.0003803878889
-5.894552674e-05
-1.33256954e-05
3.239632692e-05
-1.978895018e-05
0.000132375915
0.0001114332181
-0.0001027118092
-9.391986465e-05
-5.183816471e-05
7.653241554e-05
0.0001730828312
-0.0001342741473
0.0003028296465
0.0002122475964
-0.0002006290373
-0.0002600423657
-0.0001736672058
0.0001718710367
0.0003436514437
-0.0002069117272
0.0004496960688
0.0001825118024
-0.000185034263
-0.0004169450219
-0.0003159568292
0.000174560155
0.0004725704107
-0.0001635335281
0.0004876230048
9.436645189e-05
-8.830310796e-05
-0.0004933362701
-0.0003960244392
8.558909445e-05
0.0004822444234
-6.360185595e-05
-3.161195759e-05
6.254322296e-05
-3.978204399e-05
0.0002002399307
0.0001457476974
-0.0001405286723
-0.0001486349379
-0.0001059705261
0.0001230783585
0.0002548689941
-0.0001745555998
0.0004156990896
0.000237856997
-0.0002335995368
-0.0003646167507
-0.0002907898237
0.0002240841741
0.0004624389052
-0.0002344211002
0.0005565355369
0.0001782583524
-0.0001791738857
-0.0005357805879
-0.0004473440984