/*--------------------------------*- C++ -*----------------------------------*\
| =========                 |                                                 |
| \\      /  F ield         | OpenFOAM: The Open Source CFD Toolbox           |
|  \\    /   O peration     | Version:  v2012                                 |
|   \\  /    A nd           | Website:  www.openfoam.com                      |
|    \\/     M anipulation  |                                                 |
\*---------------------------------------------------------------------------*/
FoamFile
{
    version     2.0;
    format      ascii;
    class       pointVectorField;
    location    "2.3";
    object      pointDisplacement;
}
// * * * * * * * * * * * * * * * * * * * * * * * * * * * * * * * * * * * * * //

dimensions      [0 1 0 0 0 0 0];


internalField   nonuniform List<vector> 
6506
(
(0 0 0)
(0 0 0)
(0 0 0)
(0 0 0)
(0 0 0)
(0 0 0)
(0 0 0)
(0 0 0)
(0 0 0)
(0 0 0)
(0 0 0)
(0 0 0)
(0 0 0)
(0 0 0)
(0 0 0)
(0 0 0)
(0 0 0)
(0 0 0)
(0 0 0)
(0 0 0)
(0 0 0)
(0 0 0)
(0 0 0)
(0 0 0)
(0 0 0)
(0 0 0)
(0 0 0)
(0 0 0)
(0 0 0)
(0 0 0)
(0 0 0)
(0 0 0)
(0 0 0)
(0 0 0)
(0 0 0)
(0 0 0)
(0 0 0)
(0 0 0)
(0 0 0)
(0 0 0)
(0 0 0)
(0 0 0)
(0 0 0)
(0 0 0)
(0 0 0)
(0 0 0)
(0 0 0)
(0 0 0)
(0 0 0)
(0 0 0)
(0 0 0)
(0 0 0)
(0 0 0)
(0 0 0)
(0 0 0)
(0 0 0)
(0 0 0)
(0 0 0)
(0 0 0)
(0 0 0)
(0 0 0)
(0 0 0)
(0 0 0)
(0 0 0)
(0 0 0)
(0 0 0)
(0 0 0)
(0 0 0)
(0 0 0)
(0 0 0)
(0 0 0)
(0 0 0)
(0 0 0)
(0 0 0)
(0 0 0)
(0 0 0)
(0 0 0)
(0 0 0)
(-3.632694694e-07 4.177053918e-06 2.775557562e-17)
(0 0 0)
(0 0 0)
(0 0 0)
(0 0 0)
(0 0 0)
(0 0 0)
(0 0 0)
(0 0 0)
(0 0 0)
(0 0 0)
(0 0 0)
(0 0 0)
(0 0 0)
(0 0 0)
(0 0 0)
(0 0 0)
(0 0 0)
(0 0 0)
(0 0 0)
(0 0 0)
(0 0 0)
(0 0 0)
(0 0 0)
(0 0 0)
(0 0 0)
(0 0 0)
(0 0 0)
(0 0 0)
(-2.263165911e-05 6.059810249e-05 4.996003611e-16)
(-0.0001302511376 0.0003801249578 3.080868893e-15)
(-1.703111838e-06 5.111589618e-06 4.163336342e-17)
(-0.0002473414849 0.001016468824 8.007483565e-15)
(-0.000614338891 0.002457816357 1.992850329e-14)
(-0.000729185568 0.003329266364 2.69784195e-14)
(-0.0003399725709 0.001593643012 1.255939797e-14)
(-0.0004142196687 0.003358243513 2.646494135e-14)
(-0.0007265990821 0.005752021147 4.661548925e-14)
(-0.0006068148298 0.006355778146 5.150047055e-14)
(-0.0003568892387 0.003821770731 3.011479954e-14)
(0 0 0)
(0 0 0)
(0 0 0)
(0 0 0)
(0 0 0)
(0 0 0)
(0 0 0)
(0 0 0)
(0 0 0)
(0 0 0)
(0 0 0)
(0 0 0)
(0 0 0)
(0 0 0)
(0 0 0)
(0 0 0)
(0 0 0)
(0 0 0)
(0 0 0)
(0 0 0)
(0 0 0)
(0 0 0)
(-6.320694541e-05 0.0001127001061 1.026956298e-15)
(-0.0003452873956 0.000656549844 6.009082121e-15)
(-8.178941441e-05 0.0001605134396 1.429412144e-15)
(-0.001167073065 0.002861773388 2.53824739e-14)
(-0.001866625463 0.004438640349 4.062028491e-14)
(-0.002381541582 0.006180614449 5.655198532e-14)
(-0.001604589363 0.004292855014 3.805289417e-14)
(-0.002495530105 0.009185999183 8.140710328e-14)
(-0.003301543293 0.0118015316 1.079275558e-13)
(-0.003321463604 0.01357688184 1.241645675e-13)
(-0.002564700315 0.01079077231 9.5617958e-14)
(-0.002007808555 0.01476519022 1.308536612e-13)
(-0.002495368284 0.01787039751 1.634525848e-13)
(-0.00197363997 0.01884065416 1.723621246e-13)
(-0.001602459023 0.01568092748 1.389860449e-13)
(0 0 0)
(0 0 0)
(0 0 0)
(0 0 0)
(0 0 0)
(0 0 0)
(0 0 0)
(0 0 0)
(0 0 0)
(0 0 0)
(0 0 0)
(0 0 0)
(0 0 0)
(0 0 0)
(0 0 0)
(0 0 0)
(0 0 0)
(0 0 0)
(0 0 0)
(-2.719376289e-05 3.538219898e-05 3.747002708e-16)
(0 0 0)
(-0.001157533151 0.001864412076 1.891542478e-14)
(-0.001720448095 0.002667663923 2.807476474e-14)
(-0.002692427423 0.004460542242 4.690692279e-14)
(-0.001976911538 0.003398928836 3.447242491e-14)
(-0.004518943238 0.009739257348 9.862943795e-14)
(-0.005484257047 0.01140928779 1.197791866e-13)
(-0.006133251913 0.01393778582 1.462718835e-13)
(-0.005159608419 0.01214494323 1.229433222e-13)
(-0.005874635434 0.01908805287 1.931232951e-13)
(-0.006697467263 0.02101607533 2.204347815e-13)
(-0.006401941182 0.02299378751 2.411959521e-13)
(-0.005671136233 0.02108986956 2.133848653e-13)
(-0.003910254688 0.02559103422 2.590427872e-13)
(-0.004317639909 0.02730180469 2.865763182e-13)
(-0.003329970616 0.02817538021 2.958466805e-13)
(-0.0030315162 0.02653836623 2.687294831e-13)
(0 0 0)
(0 0 0)
(0 0 0)
(0 0 0)
(0 0 0)
(0 0 0)
(0 0 0)
(0 0 0)
(0 0 0)
(0 0 0)
(0 0 0)
(0 0 0)
(0 0 0)
(0 0 0)
(0 0 0)
(0 0 0)
(0 0 0)
(-0.0001256879936 0.0001378665775 1.637578961e-15)
(-0.0002858350753 0.0003002633996 3.719247132e-15)
(-0.001015290423 0.001122639215 1.393329896e-14)
(-0.0006825652016 0.0007879508736 9.36750677e-15)
(-0.00401297443 0.005506138288 6.5336625e-14)
(-0.004747559527 0.006241666299 7.729927809e-14)
(-0.006121412918 0.008590076523 1.062899768e-13)
(-0.005306916588 0.007771728277 9.214851104e-14)
(-0.008387573735 0.0154075732 1.822292317e-13)
(-0.009262973089 0.01628003277 2.010752675e-13)
(-0.009768027202 0.01874309139 2.313427228e-13)
(-0.008929001619 0.01792676742 2.118305531e-13)
(-0.008845230434 0.0246167261 2.903510765e-13)
(-0.009390361439 0.02494505063 3.071570776e-13)
(-0.008678053659 0.02640979399 3.251288128e-13)
(-0.008203652971 0.02613391814 3.082673006e-13)
(-0.005197075611 0.02916981997 3.443911822e-13)
(-0.005367578492 0.02872566348 3.539252225e-13)
(-0.004049792292 0.02898541531 3.572975249e-13)
(-0.003948645406 0.02962674973 3.499561751e-13)
(0 0 0)
(0 0 0)
(0 0 0)
(0 0 0)
(0 0 0)
(0 0 0)
(0 0 0)
(0 0 0)
(0 0 0)
(0 0 0)
(0 0 0)
(0 0 0)
(0 0 0)
(0 0 0)
(-1.196298936e-05 8.90016119e-06 1.387778781e-16)
(-3.264369307e-07 2.567337301e-07 0)
(0 0 0)
(-0.0008973812315 0.0008177449391 1.169897512e-14)
(-0.001132647149 0.0009796503448 1.476596623e-14)
(-0.002349993438 0.002140271836 3.222422329e-14)
(-0.002004929596 0.00192364556 2.750577544e-14)
(-0.006513954027 0.007435919928 1.059985433e-13)
(-0.007089942412 0.007683294504 1.153521723e-13)
(-0.008613927161 0.009964202473 1.494360191e-13)
(-0.008162035401 0.009947986984 1.416644579e-13)
(-0.01129435103 0.01722824833 2.448041769e-13)
(-0.01175762621 0.0170186549 2.546435285e-13)
(-0.01207251314 0.01905498783 2.85022006e-13)
(-0.0116546661 0.01938871845 2.754185768e-13)
(-0.01053220711 0.02401321802 3.410882687e-13)
(-0.01074525353 0.02320444918 3.472361287e-13)
(-0.009673095138 0.02379879363 3.56242813e-13)
(-0.009546329634 0.02483534497 3.527178549e-13)
(-0.005585072713 0.0253112324 0)
(-0.005658925548 0.0239912566 0)
(-0.00497266355 0.02399288597 0)
(-0.004249084606 0.02402380544 0)
(-0.004206451602 0.02467713102 0)
(-0.004190714851 0.02531499844 0)
(0 0 0)
(0 0 0)
(0 0 0)
(0 0 0)
(0 0 0)
(0 0 0)
(0 0 0)
(0 0 0)
(0 0 0)
(0 0 0)
(0 0 0)
(0 0 0)
(0 0 0)
(0 0 0)
(-0.0001077930432 6.190021086e-05 1.276756478e-15)
(-6.142813448e-05 3.788119558e-05 7.21644966e-16)
(-5.025356791e-05 3.311533747e-05 5.967448757e-16)
(-0.001627426149 0.001179805037 2.120525977e-14)
(-0.001687779951 0.001145011981 2.198241589e-14)
(-0.003125194969 0.002233006808 4.282685317e-14)
(-0.003042757603 0.002323150842 4.170275236e-14)
(-0.008188398651 0.007440294218 1.330602295e-13)
(-0.008318013245 0.007073762174 1.351002643e-13)
(-0.009905256535 0.008990239786 1.714878239e-13)
(-0.009767662657 0.009472101715 1.691702334e-13)
(-0.01268946519 0.01537612364 2.740169203e-13)
(-0.01281559075 0.01453071824 2.765149221e-13)
(-0.01298813885 0.01604371034 3.052558206e-13)
(-0.01287619111 0.01700238279 3.029243523e-13)
(-0.01106365259 0.01992866604 3.553685124e-13)
(-0.01111047278 0.01869904463 3.56242813e-13)
(-0.009847553648 0.01883786322 0)
(-0.009826546669 0.02012879913 3.591987818e-13)
(-0.005762702102 0.02008392349 0)
(-0.005776221292 0.0194294084 0)
(-0.00509930979 0.01942328349 0)
(-0.005085865288 0.02007676836 0)
(0 0 0)
(0 0 0)
(0 0 0)
(0 0 0)
(0 0 0)
(0 0 0)
(0 0 0)
(0 0 0)
(0 0 0)
(0 0 0)
(0 0 0)
(0 0 0)
(0 0 0)
(0 0 0)
(-0.000176948086 7.169521766e-05 2.095545959e-15)
(-0.000159819696 7.150325976e-05 1.887379142e-15)
(-0.0001402073977 6.865344227e-05 1.665334537e-15)
(-0.002005297925 0.001080588177 2.611799665e-14)
(-0.002073519345 0.001021146438 2.700617507e-14)
(-0.00361600671 0.001876323491 4.954370247e-14)
(-0.003530733387 0.002004438358 4.83779683e-14)
(-0.008833870601 0.005972364828 1.433714258e-13)
(-0.008939336589 0.0055255572 1.450367604e-13)
(-0.01051088246 0.006934033387 1.817018758e-13)
(-0.01040816525 0.007509864459 1.799810301e-13)
(-0.01317749388 0.01186732888 2.836342272e-13)
(-0.01325260788 0.01091003866 2.85022006e-13)
(-0.01334554813 0.01196034668 3.124306369e-13)
(-0.01328333155 0.01302517582 3.112787805e-13)
(-0.01120759788 0.01493476548 3.57616714e-13)
(-0.01123160512 0.01366797409 3.578387586e-13)
(-0.009920378 0.0137011558 0)
(-0.009903020973 0.01498214852 0)
(-0.00584580516 0.01492294695 0)
(-0.005854876244 0.01428201098 0)
(-0.005179711333 0.01427225349 0)
(-0.005170551181 0.01491318814 0)
(0 0 0)
(0 0 0)
(0 0 0)
(0 0 0)
(0 0 0)
(0 0 0)
(0 0 0)
(0 0 0)
(0 0 0)
(0 0 0)
(0 0 0)
(0 0 0)
(0 0 0)
(0 0 0)
(-0.0002610210901 6.171900599e-05 3.094746681e-15)
(-0.0002353283331 6.556923217e-05 2.789435349e-15)
(-0.0002124525992 6.815561311e-05 2.511879593e-15)
(-0.002243318894 0.0007929548746 2.921274334e-14)
(-0.002312098782 0.0007102147325 3.011479954e-14)
(-0.003911200927 0.001267064268 5.356826094e-14)
(-0.003826659433 0.001426044876 5.241640455e-14)
(-0.009198218519 0.004090019933 1.491029522e-13)
(-0.009300486945 0.003598682516 1.507127756e-13)
(-0.01086264216 0.004488464821 1.874889133e-13)
(-0.01076342331 0.005109672077 1.858513343e-13)
(-0.01344013932 0.007960741337 2.883665529e-13)
(-0.01351182489 0.006967056938 2.896849427e-13)
(-0.01356147993 0.007607587493 3.162886619e-13)
(-0.01350245777 0.008702347791 3.152061945e-13)
(-0.01129649989 0.009860116792 3.582967256e-13)
(-0.01131802914 0.008589516198 3.584632591e-13)
(-0.009987686605 0.008587932984 0)
(-0.009971062682 0.009865551281 0)
(-0.00591648744 0.009806507695 0)
(-0.005925135536 0.009168059886 0)
(-0.005250888784 0.009158464512 0)
(-0.005246504917 0.009477717224 0)
(-0.005242125017 0.009796702734 0)
(0 0 0)
(0 0 0)
(0 0 0)
(0 0 0)
(0 0 0)
(0 0 0)
(0 0 0)
(0 0 0)
(0 0 0)
(0 0 0)
(0 0 0)
(0 0 0)
(0 0 0)
(0 0 0)
(-0.000373799891 2.531398461e-05 4.440892099e-15)
(-0.0003432494773 3.772266764e-05 4.066191828e-15)
(-0.0003137007754 4.770836525e-05 3.719247132e-15)
(-0.002527146889 0.0004251164194 3.290423489e-14)
(-0.002602909288 0.0003173150565 3.388955783e-14)
(-0.004264823519 0.0005507004625 5.83977311e-14)
(-0.004173288501 0.0007421057968 5.714873019e-14)
(-0.009613378308 0.002056302018 1.556532681e-13)
(-0.009721252198 0.001519370258 1.573463582e-13)
(-0.01126926379 0.001887411637 1.94178007e-13)
(-0.0111652782 0.002555012944 1.924571613e-13)
(-0.01372834432 0.003928916956 2.935984789e-13)
(-0.0138018466 0.002897769056 2.949307465e-13)
(-0.01379852304 0.003149688104 3.205768984e-13)
(-0.01373875016 0.004275544049 3.194944309e-13)
(-0.0113795044 0.004767759507 3.588518371e-13)
(-0.01139891051 0.003491688597 3.589489816e-13)
(-0.01005286068 0.003474470604 0)
(-0.01003678983 0.004752839505 0)
(-0.005984705828 0.004694011083 0)
(-0.005992976783 0.00405496376 0)
(-0.005319888348 0.004045355889 0)
(-0.005315678648 0.004364878449 0)
(-0.005311440141 0.004684341189 0)
(0 0 0)
(0 0 0)
(0 0 0)
(0 0 0)
(0 0 0)
(0 0 0)
(0 0 0)
(0 0 0)
(0 0 0)
(0 0 0)
(0 0 0)
(0 0 0)
(0 0 0)
(0 0 0)
(-0.0004724322182 -4.771051781e-05 5.606626274e-15)
(-0.0004885729381 -2.872564139e-05 5.800915304e-15)
(-0.0004459979554 -7.412581316e-06 5.287437155e-15)
(-0.002850563203 -4.832563296e-05 3.712308239e-14)
(-0.002947398575 -0.0001863570586 3.837208329e-14)
(-0.004676204533 -0.000306237918 6.400435737e-14)
(-0.004561321619 -7.68740473e-05 6.242228956e-14)
(-0.01006534217 -0.0001633625534 1.627309398e-13)
(-0.010196334 -0.0007509581135 1.647848524e-13)
(-0.01172477142 -0.0009061367692 2.016442568e-13)
(-0.01159965298 -0.0001877126284 1.995903443e-13)
(-0.01403173803 -0.0002512852229 2.99080205e-13)
(-0.01411673786 -0.001321387143 3.006206395e-13)
(-0.01405138321 -0.001430021464 3.251565683e-13)
(-0.0139838116 -0.0002727601163 3.239075674e-13)
(-0.01145382728 -0.0003395580466 3.591710263e-13)
(-0.01147110407 -0.001617698691 3.591987818e-13)
(-0.01011614185 -0.001637505401 0)
(-0.01010034261 -0.0003594294241 0)
(-0.00604893441 -0.0004177726808 0)
(-0.006056640389 -0.001056769001 0)
(-0.005384826384 -0.001066209471 0)
(-0.005380912253 -0.0007465934358 0)
(-0.005376971959 -0.0004272153548 0)
(-0.005161227595 0.01555513001 0)
(-0.005836571082 0.01556486045 0)
(-0.005237745117 0.01011568824 0)
(-0.005233359927 0.01043503002 0)
(-0.005907838902 0.01044498519 0)
(-0.005307202956 0.005003714862 0)
(-0.005302963567 0.00532323698 0)
(-0.005976376378 0.005332998146 0)
(-0.005373032548 -0.0001078966521 0)
(-0.005369062565 0.0002114809881 0)
(-0.006041171698 0.0002210446228 0)
(-0.005070598789 0.02073096442 0)
(-0.00574760996 0.02073837663 0)
(-0.000723437573 0.02528893635 0)
(-0.0007348170559 0.02465433015 0)
(-0.009954347929 0.01114328701 0)
(-0.01127543088 0.01113019842 3.581579477e-13)
(-0.006582765418 0.01045479853 0)
(-0.006591325329 0.00981629002 0)
(-0.006521326341 0.01493270972 0)
(-0.006530337165 0.01429183225 0)
(-0.01002056921 0.00603129527 0)
(-0.0113596723 0.006043005317 3.587408148e-13)
(-0.00665044279 0.005342739321 0)
(-0.006658683615 0.004703721246 0)
(-0.00659985511 0.009177810759 0)
(-0.00595095783 0.007250932905 0)
(-0.005277127608 0.007241284325 0)
(-0.005272737569 0.007560952685 0)
(-0.005268378982 0.007880502729 0)
(-0.005942386898 0.007890183644 0)
(-0.00325665187 0.007212383348 0)
(-0.003254887123 0.007372238765 0)
(-0.003253645345 0.007532072251 0)
(-0.003590240254 0.007536862091 0)
(-0.003594363091 0.007217189763 0)
(-0.003221260909 0.009767558426 0)
(-0.00355814589 0.009772411964 0)
(-0.003562791229 0.009453549179 0)
(-0.003226141998 0.009448817923 0)
(-0.003223625467 0.009608305829 0)
(-0.01008457571 0.0009184688589 0)
(-0.01143518632 0.0009380321691 3.590877595e-13)
(-0.006714438267 0.0002306551386 0)
(-0.006722112352 -0.0004081931766 0)
(-0.006666835812 0.00406467216 0)
(-0.006017438224 0.002137489921 0)
(-0.005344827462 0.002127710969 0)
(-0.005340736077 0.00244726498 0)
(-0.005336613682 0.002766907619 0)
(-0.006009374653 0.002776570019 0)
(-0.003331178465 0.002099030137 0)
(-0.003328043401 0.002258776121 0)
(-0.003497375905 0.002261260648 0)
(-0.0035000156 0.002101477614 0)
(-0.003297783002 0.004655808715 0)
(-0.003632265807 0.004660448413 0)
(-0.003636830895 0.004340990522 0)
(-0.003302615733 0.004336325102 0)
(-0.003300451064 0.00449611519 0)
(-0.006729759394 -0.001047220068 0)
(-0.006079309902 -0.00297355675 0)
(-0.00574337321 -0.002978277425 0)
(-0.005739606203 -0.002658570119 0)
(-0.006075573024 -0.002653878691 0)
(-0.003382176212 -0.003012059205 0)
(-0.003383335289 -0.002851922811 0)
(-0.003559917649 -0.002848914898 0)
(-0.003560303173 -0.003008879881 0)
(-0.003357004671 -0.0004559603033 0)
(-0.003530997372 -0.0004531393205 0)
(-0.003534167064 -0.0006126175284 0)
(-0.003361313544 -0.0006153622054 0)
(-0.003106690121 0.01745588107 0)
(-0.00311176722 0.01713393932 0)
(-0.002773936685 0.01712936869 0)
(-0.002771394219 0.01729040336 0)
(-0.002769053432 0.01745105498 0)
(-0.003145801321 0.01488374857 0)
(-0.002806677454 0.01487868362 0)
(-0.002804436241 0.01503882891 0)
(-0.00280307909 0.01519943277 0)
(-0.003141366164 0.01520445561 0)
(-0.003052337225 0.02006693926 0)
(-0.003061169477 0.01973748858 0)
(-0.002721093849 0.01973952458 0)
(-0.002712265525 0.02006831073 0)
(-0.002763682943 0.01777415645 0)
(-0.003101335211 0.01777873333 0)
(-0.003218748786 0.00992674944 0)
(-0.003216439639 0.01008627012 0)
(-0.003553500551 0.01009127475 0)
(-0.003185124399 0.01232334604 0)
(-0.003521533913 0.01232822222 0)
(-0.003526187628 0.01200879534 0)
(-0.003189866741 0.01200395017 0)
(-0.005881564218 0.01236258059 0)
(-0.005890372663 0.01172333338 0)
(-0.00521565397 0.01171352313 0)
(-0.005206756899 0.01235273933 0)
(-0.002854470392 0.01199923752 0)
(-0.002852148928 0.01215878772 0)
(-0.002849360022 0.01231842006 0)
(-0.003051955125 0.009765074295 0)
(-0.003049350966 0.009924263943 0)
(-0.003150527198 0.01456346159 0)
(-0.002811454567 0.01455854587 0)
(-0.002808536882 0.01471865143 0)
(-0.002846824238 0.01247820463 0)
(-0.002844033011 0.01263819329 0)
(-0.003180228763 0.01264306629 0)
(-0.00329520533 0.004815414496 0)
(-0.003292480093 0.004974958695 0)
(-0.003627525229 0.004979725524 0)
(-0.003598757097 0.006897254201 0)
(-0.003260631991 0.006892322858 0)
(-0.003258074427 0.007052374373 0)
(-0.005959502599 0.006611444213 0)
(-0.005285793337 0.00660164895 0)
(-0.005281461354 0.006921407259 0)
(-0.003086350741 0.007049735558 0)
(-0.003085224635 0.007209778631 0)
(-0.003131509246 0.004653518082 0)
(-0.003128445112 0.004813086944 0)
(-0.003054562694 0.009605855002 0)
(-0.003084735639 0.007369712382 0)
(-0.003353037222 -0.0002965533319 0)
(-0.003527976567 -0.0002936885978 0)
(-0.003502595036 0.001941753077 0)
(-0.003334310118 0.001939313799 0)
(-0.006025405675 0.001498883527 0)
(-0.005352940272 0.001489314603 0)
(-0.00534891576 0.001808364781 0)
(-0.003164917795 0.001936858079 0)
(-0.003160778033 0.002096470362 0)
(-0.003178565092 -0.0004590848782 0)
(-0.003172954187 -0.0002997913956 0)
(-0.003134426697 0.004493828259 0)
(-0.003156639917 0.002256171756 0)
(-0.003562498854 -0.003168758594 0)
(-0.003384792597 -0.003171872281 0)
(-0.006083045457 -0.00329314574 0)
(-0.005747108765 -0.003297866416 0)
(-0.003203868154 -0.003175241621 0)
(-0.003199925986 -0.003015537317 0)
(-0.003184721836 -0.0006183405606 0)
(-0.00320264242 -0.002855288712 0)
(-0.009885253302 0.0162647981 0)
(-0.01118021762 0.01619689071 3.572975249e-13)
(-0.006512182213 0.01557456517 0)
(-0.006439594904 0.02009130781 0)
(-0.006452803458 0.01943771402 0)
(-0.005808205286 0.01749129193 0)
(-0.005132435042 0.01748230349 0)
(-0.005122069735 0.01812840511 0)
(-0.005797898652 0.01813744194 0)
(-0.003438843781 0.01778338826 0)
(-0.003444200999 0.01746058058 0)
(-0.003390730005 0.0200698428 0)
(-0.003399793041 0.01973944884 0)
(-0.005197793837 0.01299239998 0)
(-0.005872720794 0.01300218363 0)
(-0.003516846101 0.01264794555 0)
(-0.003483606665 0.01488861577 0)
(-0.003488332542 0.01456832879 0)
(-0.003478933995 0.01520931929 0)
(-0.003449248629 0.01713862354 0)
(-0.005817710356 0.01684912707 0)
(-0.005142124507 0.01683971968 0)
(-0.001781985454 0.01614991633 0)
(-0.001795617862 0.01598937594 0)
(-0.001646068003 0.01598733362 0)
(-0.001630957723 0.01614820841 0)
(-0.001688232478 0.02007836312 0)
(-0.001696120014 0.0199081389 0)
(-0.001525187212 0.01991003419 0)
(-0.001516103939 0.02008259107 0)
(-0.001724290847 0.01873843813 0)
(-0.001554525008 0.01873813871 0)
(-0.001550551066 0.01890238301 0)
(-0.001722782412 0.01890243099 0)
(-0.00291616119 0.02273437201 0)
(-0.00297725348 0.02205261665 0)
(-0.002631216059 0.02205697839 0)
(-0.002274379156 0.02207048345 0)
(-0.002243303651 0.02240841339 0)
(-0.002213042022 0.02274112898 0)
(-0.002700453425 0.02040165363 0)
(-0.00304404636 0.0203935276 0)
(-0.003392671862 -0.0017329395 0)
(-0.003557124909 -0.001730824379 0)
(-0.003560150122 -0.001890571993 0)
(-0.003396735314 -0.001892612308 0)
(-0.004722711939 -0.001714913617 0)
(-0.004726651792 -0.002034262009 0)
(-0.004392613442 -0.002038835716 0)
(-0.004388555274 -0.001719518776 0)
(-0.004738410208 -0.00299218931 0)
(-0.004404490615 -0.002996761253 0)
(-0.004400545914 -0.002677086281 0)
(-0.004734525326 -0.002672543145 0)
(-0.001743722073 0.01743734846 0)
(-0.001722164903 0.01727222025 0)
(-0.001511806878 0.01722979761 0)
(-0.001589964254 0.01743711152 0)
(-0.001614976048 0.01630797152 0)
(-0.001767394877 0.01630978918 0)
(-0.003127199422 0.01616858325 0)
(-0.002790041624 0.01616390383 0)
(-0.002787274446 0.0163248728 0)
(-0.002784588544 0.01648536785 0)
(-0.00312206819 0.01649017082 0)
(-0.001937131594 0.01631225001 0)
(-0.001948617243 0.01615209349 0)
(-0.001911998333 0.01743957083 0)
(-0.001901473758 0.01727599916 0)
(-0.001733416953 0.01485799669 0)
(-0.001723204171 0.01500902584 0)
(-0.001902841525 0.01502268047 0)
(-0.001898472403 0.01486214007 0)
(-0.001959199811 0.01599135935 0)
(-0.003132215864 0.01584672671 0)
(-0.002795297901 0.0158416945 0)
(-0.002792769118 0.01600260762 0)
(-0.003083486921 0.01875361257 0)
(-0.002745621217 0.01874981055 0)
(-0.002738161106 0.01907924775 0)
(-0.003076009422 0.01908282086 0)
(-0.001894305825 0.01890415814 0)
(-0.001896066471 0.01873997897 0)
(-0.001861996876 0.02007056035 0)
(-0.001867232139 0.01990556625 0)
(-0.001753366863 0.01760077344 0)
(-0.001917684411 0.01760241439 0)
(-0.001895982613 0.01857622676 0)
(-0.001721949469 0.01857472961 0)
(-0.003089876235 0.0184270934 0)
(-0.002751975197 0.01842307111 0)
(-0.001551147665 0.01857340218 0)
(-0.001597557641 0.01760029818 0)
(-0.00320250598 0.01104469965 0)
(-0.003032767175 0.01104217939 0)
(-0.003031126358 0.01120188817 0)
(-0.003200343074 0.01120437098 0)
(-0.001883473204 0.0123055338 0)
(-0.00203261929 0.01230757013 0)
(-0.002040461172 0.01214822068 0)
(-0.001891891055 0.01214619291 0)
(-0.003204491632 0.01088496629 0)
(-0.003034589537 0.01088244361 0)
(-0.003165447938 0.01360255228 0)
(-0.002827867466 0.01359753994 0)
(-0.002824950106 0.01375782367 0)
(-0.002822372083 0.01391805306 0)
(-0.003160453537 0.01392292436 0)
(-0.001813856029 0.01358203861 0)
(-0.001804885609 0.01374199491 0)
(-0.001958729283 0.01374424946 0)
(-0.001967271739 0.01358431651 0)
(-0.001904019107 0.0147023705 0)
(-0.001744295452 0.01469973169 0)
(-0.001875128693 0.01246493518 0)
(-0.002024772675 0.01246703829 0)
(-0.001975607136 0.01342452895 0)
(-0.001822722421 0.01342228864 0)
(-0.003170406479 0.0132825954 0)
(-0.002833276842 0.01327761945 0)
(-0.002830478912 0.01343745953 0)
(-0.003276308844 0.005933889519 0)
(-0.0031063499 0.00593139569 0)
(-0.003103150402 0.006091081325 0)
(-0.003273355326 0.006093608502 0)
(-0.0032788421 0.005774075209 0)
(-0.003109509596 0.005771590681 0)
(-0.003240903867 0.008490608565 0)
(-0.003073220758 0.008488237614 0)
(-0.003070555665 0.008647931184 0)
(-0.003238443188 0.008650334865 0)
(-0.003243394676 0.008330853016 0)
(-0.00307586595 0.008328484357 0)
(-0.0033538695 0.000822392795 0)
(-0.003189746003 0.0008202825668 0)
(-0.003188514779 0.0009802052965 0)
(-0.003352296851 0.0009823104552 0)
(-0.003353845755 0.0006623920404 0)
(-0.00318770219 0.0006601330358 0)
(-0.003308173993 0.003377177306 0)
(-0.003131952518 0.00337426384 0)
(-0.003132095461 0.003534236669 0)
(-0.003306955086 0.003537070523 0)
(-0.003310152062 0.003217354753 0)
(-0.003133651508 0.003214437143 0)
(-0.004742323898 -0.003311775656 0)
(-0.004408523062 -0.003316345836 0)
(-0.003229541628 -0.001734945894 0)
(-0.003223302843 -0.001575364777 0)
(-0.003388322512 -0.001573211547 0)
(-0.003235360915 -0.001894473848 0)
(-0.001592665377 0.02143839108 0)
(-0.001626065996 0.02109606507 0)
(-0.001269286984 0.0211086712 0)
(-0.001224310413 0.02145343559 0)
(-0.001505320754 0.02025563674 0)
(-0.001678014749 0.02025132543 0)
(-0.003479936275 0.003379816694 0)
(-0.003482071696 0.003219996477 0)
(-0.004656230509 0.003396599131 0)
(-0.004660531039 0.003076959138 0)
(-0.004324921369 0.003072213622 0)
(-0.004320561901 0.003391823044 0)
(-0.004673282863 0.00211812602 0)
(-0.004337940395 0.002113384472 0)
(-0.004333611057 0.002432964646 0)
(-0.004669042592 0.002437707517 0)
(-0.004639004868 0.004674743016 0)
(-0.004643332443 0.004355281598 0)
(-0.004307485701 0.004350502867 0)
(-0.004303098747 0.004669963403 0)
(-0.004316232122 0.003711432908 0)
(-0.004651960108 0.003716209876 0)
(-0.003478008678 0.003539639997 0)
(-0.004706404017 -0.0004365779319 0)
(-0.004710492756 -0.0007559538088 0)
(-0.004375831817 -0.000760596151 0)
(-0.004371595073 -0.0004412521674 0)
(-0.00438434337 -0.001399847771 0)
(-0.00471867817 -0.001395239967 0)
(-0.003553920678 -0.001571020031 0)
(-0.003613049671 0.00593865183 0)
(-0.003617885929 0.005618930704 0)
(-0.003281724481 0.0056141473 0)
(-0.00462150938 0.005953061069 0)
(-0.00462592999 0.005633333771 0)
(-0.004289816486 0.005628521383 0)
(-0.004285336498 0.005948247799 0)
(-0.004298684309 0.004989275053 0)
(-0.004634649367 0.004994085237 0)
(-0.002641968129 0.004647229408 0)
(-0.002634572466 0.004806526086 0)
(-0.0027981289 0.004808627895 0)
(-0.00280359862 0.004649243229 0)
(-0.002612392178 0.0052845647 0)
(-0.002781445604 0.005287045084 0)
(-0.002787010445 0.00512745396 0)
(-0.002619769263 0.005125119267 0)
(-0.00328711428 0.005294345306 0)
(-0.003289783224 0.005134592401 0)
(-0.003122177306 0.005132222597 0)
(-0.003119033777 0.005291938759 0)
(-0.003519716174 0.0008246473914 0)
(-0.003520932554 0.0006647244413 0)
(-0.0046899888 0.0008409840724 0)
(-0.004693990676 0.0005214584273 0)
(-0.004359123676 0.0005166942427 0)
(-0.004355002602 0.0008362478137 0)
(-0.00436738934 -0.0001219968103 0)
(-0.004702317041 -0.0001173208116 0)
(-0.004677489918 0.001798781596 0)
(-0.004342236518 0.00179404137 0)
(-0.004350762332 0.001155829311 0)
(-0.004685838038 0.001160537203 0)
(-0.003517817826 0.0009845008242 0)
(-0.00334371208 0.001461293325 0)
(-0.003177432385 0.001459002604 0)
(-0.003173233919 0.001618168579 0)
(-0.003340570106 0.001620504683 0)
(-0.002681950146 0.001452447542 0)
(-0.002672097777 0.001611202917 0)
(-0.002838561544 0.001613496372 0)
(-0.002846539323 0.00145459438 0)
(-0.002644158586 0.002088502718 0)
(-0.002815487847 0.00209110598 0)
(-0.002823125756 0.001931694116 0)
(-0.002653425547 0.001929174433 0)
(-0.002664874344 -0.0004678999083 0)
(-0.002653601835 -0.0003088983582 0)
(-0.002809275567 -0.0003064978511 0)
(-0.002819479707 -0.0004655449599 0)
(-0.002620544992 0.0001586743558 0)
(-0.002798201315 0.0001721510984 0)
(-0.002794180969 1.212069857e-05 0)
(-0.002631183301 8.186053512e-06 0)
(-0.003347895951 0.0001825103623 0)
(-0.003347883524 2.274734132e-05 0)
(-0.003166512862 1.943076766e-05 0)
(-0.003168385476 0.0001793104955 0)
(-0.003305567495 0.004016724474 0)
(-0.003138192712 0.004014387797 0)
(-0.003138334008 0.004174271514 0)
(-0.003304542448 0.004176561178 0)
(-0.002652941561 0.004008370689 0)
(-0.002657725682 0.004168560908 0)
(-0.002813695891 0.004170193729 0)
(-0.002809184469 0.004010037255 0)
(-0.002808670181 0.004489674477 0)
(-0.002649021162 0.004487808859 0)
(-0.002634891183 0.002247860692 0)
(-0.002807860932 0.002250577399 0)
(-0.002607046529 0.002725993376 0)
(-0.002785018342 0.002729021919 0)
(-0.002792606661 0.002569549926 0)
(-0.002616331745 0.002566635666 0)
(-0.003318669987 0.002738073934 0)
(-0.003321778771 0.002578297864 0)
(-0.003148381499 0.00257557481 0)
(-0.003144290886 0.002735276909 0)
(-0.003374822423 -0.001094182876 0)
(-0.003204021629 -0.001096778291 0)
(-0.003197551709 -0.0009372303021 0)
(-0.003370289882 -0.0009345170335 0)
(-0.002711953993 -0.001103906263 0)
(-0.00270018644 -0.0009447635846 0)
(-0.002851998612 -0.0009426876747 0)
(-0.002862902651 -0.00110187287 0)
(-0.002830207582 -0.0006244655096 0)
(-0.002676629787 -0.0006266270266 0)
(-0.002805657204 -0.00237340161 0)
(-0.002937357935 -0.002374623577 0)
(-0.002920020386 -0.002535742579 0)
(-0.002817308105 -0.002519687784 0)
(-0.003400058701 -0.002370841818 0)
(-0.003395101941 -0.002531004905 0)
(-0.003228287401 -0.002533273872 0)
(-0.003239025286 -0.0023726686 0)
(-0.001820098464 0.01550941157 0)
(-0.001685547691 0.01551038335 0)
(-0.0016723893 0.01566819877 0)
(-0.001817187923 0.01566963602 0)
(-0.001802227976 0.01534718591 0)
(-0.001697535545 0.01536300344 0)
(-0.001713209648 0.019404155 0)
(-0.001543599483 0.01940337089 0)
(-0.001537711418 0.0195725311 0)
(-0.001707746988 0.01957286422 0)
(-0.001195310058 0.01957500473 0)
(-0.001206497586 0.01940812662 0)
(-0.001168847604 0.02009724645 0)
(-0.001181177234 0.01992004802 0)
(-0.001216992138 0.01924152033 0)
(-0.001093976018 0.01926063521 0)
(-0.001717697003 0.01923493242 0)
(-0.001547278297 0.01923500341 0)
(-0.001722774091 0.01678779155 0)
(-0.001565078204 0.01678518285 0)
(-0.001547012403 0.01694331144 0)
(-0.001710745688 0.01694770245 0)
(-0.001737443389 0.01662821683 0)
(-0.001582245124 0.01662579369 0)
(-0.001903050753 0.01679138884 0)
(-0.001913721157 0.016631339 0)
(-0.002437803606 0.01680167473 0)
(-0.002441380416 0.01664077717 0)
(-0.002268035819 0.01663790642 0)
(-0.002263154891 0.01679863614 0)
(-0.00245293518 0.01615916579 0)
(-0.002284456402 0.01615678302 0)
(-0.002278990597 0.01631750405 0)
(-0.002449070385 0.01632005907 0)
(-0.002429589861 0.01744646902 0)
(-0.002430923009 0.01728548173 0)
(-0.002257479616 0.01728286489 0)
(-0.002257982289 0.01744460996 0)
(-0.00225944689 0.01695976931 0)
(-0.002434744916 0.01696287694 0)
(-0.001895363435 0.01695192841 0)
(-0.001970665158 0.01551037025 0)
(-0.001952471499 0.0153481101 0)
(-0.002462052291 0.01551632998 0)
(-0.002460792298 0.0153553903 0)
(-0.002288982073 0.0153527799 0)
(-0.002294118911 0.01551401471 0)
(-0.002457127873 0.01487298873 0)
(-0.002274181598 0.01486958937 0)
(-0.002276034402 0.01503000333 0)
(-0.002457034832 0.01503325501 0)
(-0.002456586006 0.01599788329 0)
(-0.002289492829 0.01599558049 0)
(-0.002295465236 0.01567453992 0)
(-0.002461657185 0.01567674026 0)
(-0.001973180354 0.01567097221 0)
(-0.001723173688 0.0180848787 0)
(-0.001901051716 0.01808822359 0)
(-0.001908753932 0.01792608068 0)
(-0.00173592068 0.0179235709 0)
(-0.002419515206 0.0180943953 0)
(-0.002422591424 0.0179318125 0)
(-0.002252746328 0.01792945103 0)
(-0.00224906667 0.01809207534 0)
(-0.002257761236 0.0176060978 0)
(-0.00242774637 0.0176080278 0)
(-0.001544451941 0.0180807581 0)
(-0.001532790747 0.01824173755 0)
(-0.001715776093 0.01824670542 0)
(-0.001564568241 0.01792092869 0)
(-0.001918056833 0.01166833226 0)
(-0.002061128753 0.01166986265 0)
(-0.002059616609 0.01150930528 0)
(-0.001926537122 0.01150958621 0)
(-0.002528126043 0.01167507421 0)
(-0.002525496265 0.01151458932 0)
(-0.002363044707 0.01151247422 0)
(-0.002368315497 0.01167308741 0)
(-0.002504067006 0.01103364633 0)
(-0.002318337535 0.01103029473 0)
(-0.002332114824 0.01119079665 0)
(-0.002510823809 0.01119377675 0)
(-0.002517819412 0.01231382404 0)
(-0.00252150152 0.01215423466 0)
(-0.002360005072 0.01215219314 0)