/*--------------------------------*- C++ -*----------------------------------*\
| =========                 |                                                 |
| \\      /  F ield         | OpenFOAM: The Open Source CFD Toolbox           |
|  \\    /   O peration     | Version:  v2012                                 |
|   \\  /    A nd           | Website:  www.openfoam.com                      |
|    \\/     M anipulation  |                                                 |
\*---------------------------------------------------------------------------*/
FoamFile
{
    version     2.0;
    format      ascii;
    class       volScalarField;
    location    "0.69";
    object      k;
}
// * * * * * * * * * * * * * * * * * * * * * * * * * * * * * * * * * * * * * //

dimensions      [0 2 -2 0 0 0 0];


internalField   nonuniform List<scalar> 
3259
(
34.98533361
35.00984634
35.07466856
35.21740433
35.42947366
35.86723983
36.50555747
37.25407283
38.42881449
40.20910835
43.34287701
47.11002038
34.88174853
34.91122928
34.98876135
35.15327623
35.40287136
35.90069065
36.60532207
37.40411321
38.65883315
40.56667328
43.97568427
45.57552565
34.78688425
34.8211775
34.91051959
35.09569662
35.37093428
35.91384071
36.67347757
37.53281068
38.86058144
40.86012187
44.35977942
41.9591366
34.69652728
34.73538871
34.8353599
35.03998008
35.33958707
35.91819155
36.72848441
37.6653441
39.09763868
41.22121767
44.61300027
38.1211643
34.6090385
34.65204517
34.76103429
34.98272107
35.30404304
35.91115349
36.76057628
37.774581
39.36504948
41.67320721
44.52627318
29.48898319
34.51993253
34.56665584
34.68338497
34.92025201
35.26092726
35.88820483
36.76517203
37.82134629
39.54703513
42.01314748
43.67333489
25.45562455
34.42964106
34.47956432
34.60254702
34.85176651
35.20800075
35.84938531
36.74775037
37.82813229
39.58206705
42.044968
41.87443089
26.06164985
34.33389917
34.38659486
34.51497604
34.77501193
35.1445185
35.79523798
36.70630024
37.80412042
39.56325717
41.84064102
40.21137155
26.57679468
34.23594792
34.29093937
34.42358234
34.69168467
35.07063268
35.72727333
36.6462008
37.75504868
39.50282473
41.53018132
38.46191373
27.64385414
34.1307771
34.18776761
34.32438441
34.5999492
34.98728364
35.6474698
36.57112199
37.68666912
39.40740783
41.11913293
36.59425041
28.98908544
34.02489148
34.08352158
34.22326055
34.50376294
34.89567245
35.55792413
36.48437008
37.60335941
39.28169676
40.64689697
34.70433785
30.17360835
33.91077482
33.97092853
34.11398414
34.4000538
34.79733708
35.46069536
36.38885697
37.50850536
39.12799051
40.13881466
32.88206706
31.01537693
33.79917662
33.86058905
34.00617652
34.29515836
34.69352698
35.35760192
36.2869785
37.40440779
38.94735036
39.60262465
31.19731776
31.48823825
33.67767513
33.74038312
33.88905654
34.18286898
34.58563631
35.25017057
36.18055237
37.29216328
38.74256442
39.05037077
29.68073309
31.65744612
33.56351126
33.62728216
33.77814127
34.07341002
34.47448256
35.13964569
36.07083701
37.17213754
38.51801629
38.49366928
28.31108205
31.59570672
33.43587099
33.50086156
33.65475359
33.95485817
34.36123905
35.02699724
35.95860268
37.04451924
38.27862751
37.94125743
27.11877159
31.36951063
33.32256839
33.38852232
33.54434811
33.84465428
34.24620445
34.91297512
35.84429155
36.90968817
38.028352
37.40012685
26.1016467
31.03760429
33.18893707
33.25612141
33.41497841
33.72059698
34.13053044
34.79817111
35.72812983
36.76825295
37.76949687
36.87536324
25.24375277
30.64164577
33.08030098
33.14838257
33.30898565
33.61369558
34.01395682
34.68303445
35.61029596
36.62096401
37.50528617
36.3702695
24.52465919
30.21131295
32.93926709
33.00864739
33.17226758
33.48286769
33.89793732
34.56795361
35.49099917
36.46865544
37.23860354
35.88677804
23.92436509
29.76710759
32.84000566
32.91020574
33.07546375
33.38461975
33.78150701
34.45326165
35.37046211
36.31215279
36.97204066
35.42574905
23.42483609
29.32150606
32.68820924
32.75982035
32.92806657
33.24269331
33.66714767
34.33953121
35.24907649
36.15230954
36.70626869
34.98750757
23.01074206
28.88253814
32.60395633
32.67631681
32.84610916
33.16117885
33.55336517
34.22776098
35.12806166
35.98989492
36.44231629
34.57231248
22.66979862
28.45600852
32.41042715
32.48462146
32.65814817
32.97891028
33.44614843
34.12044053
35.01141634
35.82612721
36.18263785
34.18308627
22.39119647
28.04691981
47.14679356
46.12872225
43.21635367
47.13407573
43.86525744
46.67355388
47.10820455
46.80967269
33.4595405
36.88805095
44.42286162
37.06418043
34.28424068
40.85439575
33.39430125
46.76231669
32.2897535
90.59341754
34.17886758
32.3312182
69.21759919
35.80371999
44.51904699
43.98303127
45.21094834
44.71555437
35.93403227
39.13828393
45.84261902
45.37530686
45.98958041
39.311855
37.15134467
36.97850345
43.77559688
43.26882791
32.67837488
32.86174315
44.58280645
54.69505496
33.68092089
91.08782159
57.40955118
83.11808843
33.60165837
65.23038693
46.40050391
44.27727078
46.00495971
46.54377562
44.96071974
38.7433751
42.96329596
34.04988603
40.48773868
40.0187575
83.91229054
64.40954564
37.67844812
35.56210668
37.98506482
41.76334617
40.85708195
39.86752275
39.42959071
33.22443771
45.10517212
32.18219973
102.705732
48.51706537
43.88631222
44.64962989
33.98808867
32.48698014
41.15323216
40.6271695
34.64697391
36.35173074
41.73925231
41.3014492
37.53566397
36.28170411
33.14932965
39.22195063
38.47231216
91.54926858
95.46057327
32.14156784
98.79909742
84.63137676
48.86643866
33.91647998
91.45447517
65.84407368
98.20402025
69.49888698
32.62951492
42.29789328
41.8769343
36.47920493
38.05212563
42.88135123
42.43672041
32.81705526
32.86933914
34.47052531
32.2550542
34.11010828
32.72129506
32.77408345
32.36841458
43.43723068
43.02379127
38.43496395
39.77160236
43.93497301
43.56086919
34.69070331
34.75226454
37.26836305
36.84714103
34.49295521
34.56174256
32.65752209
34.56939038
33.45770403
108.1363904
32.39145438
47.06072777
80.70011297
75.36731679
32.3756005
32.4148326
33.76441321
89.88756513
94.4435318
92.48830426
77.6939866
33.46124504
32.28315199
32.33145361
55.43904059
33.19431141
33.13478131
32.67732561
34.8523591
32.94219799
33.09171067
36.29633135
34.97995562
38.68952231
33.29668861
35.57448934
35.43822811
32.21203878
102.4875264
103.5325849
66.94489948
97.62967156
90.27551849
32.60371616
32.67344461
34.05624111
32.41978025
32.95402081
32.90418488
33.06874061
33.02548993
33.95389863
34.24855864
36.55875736
32.68702033
32.67372142
32.82421866
32.77376836
35.30303943
35.05144786
32.94871682
89.45644418
107.3294932
109.1717342
107.9442463
107.4550702
92.41607791
32.18938731
92.28960816
77.32287803
80.17994622
33.83486949
32.46581187
32.53322475
90.96635002
95.86388863
95.06218522
83.8495275
88.79902422
99.21640095
96.39541104
73.36979219
93.36143538
86.06867438
32.3754547
32.26353724
33.15759223
37.2228075
38.04701146
38.37710337
39.61075585
40.13165779
42.22990919
37.37160659
38.25581345
38.09332468
38.60908358
39.93118723
39.68157777
40.49253337
42.79553512
42.34311685
43.493544
45.03537245
44.80192171
46.98910205
45.73798943
46.10229287
37.50074901
38.43630527
38.30109149
38.80785479
40.1941105
39.99762706
40.78375747
43.19472186
42.90577053
44.08673408
45.30869401
45.49097885
45.42598071
41.91890721
42.77441694
37.63340477
38.63793454
38.48407309
39.03403531
40.50144056
40.26422052
41.12023642
43.5788498
43.28555635
44.56999953
44.65419776
45.73054301
39.57619216
37.75360293
38.86410445
38.6931424
39.30082901
40.90412211
40.59279916
41.56512091
43.89766814
43.6784744
44.60182963
41.30487241
44.04223816
31.8571691
37.81394929
39.0304597
38.91616811
39.51652776
41.26625959
41.00518419
41.95046466
43.88760213
43.97415136
43.97324183
32.41656968
39.79505377
26.00099634
37.82938619
39.07456876
39.04943555
39.58012796
41.39993105
41.32880883
42.07525366
43.15326154
43.74562998
42.37499543
25.94132896
29.74519103
25.77080661
37.8128232
39.0676983
39.07626721
39.57222223
41.31512423
41.38851985
41.901775
42.13897112
42.89816946
40.62594398
23.84258946
25.34430548
26.43670092
37.76934603
39.02471556
39.06005796
39.52142529
41.14321679
41.27970542
41.61807485
41.02660219
41.87117348
38.91287849
22.32915005
23.40231396
27.33019854
37.7053151
38.95213019
39.00913968
39.43425553
40.89788219
41.08797608
41.22940748
39.81402693
40.7321437
37.06750369
21.44236444
22.05580491
28.65528183
37.62537924
38.85475224
38.92995928
39.31579991
40.58574664
40.82618581
40.7684068
38.53178304
39.49808133
35.17326442
21.08112466
21.31411181
29.90714186
37.53314322
38.73569928
38.82695297
39.16898923
40.21313624
40.49729993
40.26882982
37.22870463
38.20595981
33.32656352
21.10692923
21.05168305
30.8398665
37.43121089
38.59610714
38.7027195
38.99494336
39.8050362
40.11341704
39.73872912
35.95104161
36.9053127
31.60428713
21.43184036
21.16701285
31.40305363
37.32095
38.43648285
38.55804114
38.79578628
39.37894058
39.70009814
39.18924213
34.73650216
35.64003177
30.04853474
21.9030228
21.54112816
31.64027463
37.20285343
38.25861921
38.39363169
38.57581349
38.93944373
39.27007917
38.63275376
33.60624989
34.4455339
28.63762947
22.40167782
22.02931078
31.62889319
37.07711082
38.06529807
38.21160844
38.339631
38.49294829
38.82816138
38.07855732
32.57150097
33.33817072
27.40047079
22.84749717
22.52071346
31.43805287
36.94403089
37.85977249
38.01494401
38.09178468
38.04632415
38.38107992
37.53404735
31.63872618
32.3285883
26.34078254
23.19758304
22.9446697
31.12790243
36.80418119
37.64473518
37.806825
37.83485594
37.60437002
37.93524891
37.00481063
30.80704039
31.42143558
25.44503329
23.43629838
23.26802093
30.7446981
36.65827914
37.42283418
37.58982419
37.57166139
37.17060865
37.49504572
36.49456685
30.06992672
30.61421836
24.69319721
23.56825437
23.47926443
30.32058261
36.5071486
37.19599707
37.36652124
37.30532082
36.74772129
37.06379064
36.00554592
29.41787815
29.89945014
24.06473086
23.60372303
23.58432915
29.87798835
36.35161197
36.96538117
37.13864665
37.03863563
36.33745516
36.64393101
35.53881369
28.84061557
29.26738683
23.54098782
23.56693427
23.60112393
29.43087864
36.19253094
36.73261437
36.90732032
36.77258246
35.94097234
36.23703973
35.09466059
28.32819477
28.70801745
23.10533252
23.47085016
23.54955351
28.98753804
36.0306825
36.49927315
36.67429477
36.50797496
35.55877893
35.84425039
34.67253589
27.87144989
28.21233108
22.74389866
23.33348872
23.44353176
28.55272458
35.86660137
36.2662096
36.44104925
36.24500766
35.18921559
35.46654559
34.26941977
27.46080377
27.77291814
22.44365039
23.16833857
23.30108636
28.12842744
35.69043584
36.01894688
36.21021293
35.96699706
34.80830865
35.10750196
33.85896053
27.06686336
27.38400965
22.18117368
22.97268538
23.13567295
27.68992418
46.22046831
46.55682178
47.25240797
42.98890874
43.66030027
46.3421374
42.102691
44.71810515
44.433733
43.06911034
47.18000164
45.17996492
45.41344349
45.44398004
45.09934144
43.58871594
46.9561258
45.75118858
46.06049359
45.48695904
45.69824242
47.00632704
45.21419021
45.60603647
46.94941827
33.54323124
36.10103803
35.93938115
39.16214572
38.99904531
36.74080887
33.64758902
38.02766471
44.68766999
59.0721705
47.2941014
42.06911313
41.97231738
37.30045547
39.54571157
39.33996556
44.05007784
39.92731394
47.2824372
46.66297568
40.33990361
34.62706053
33.59701087
35.80732659
35.68145987
33.33886132
46.59562339
44.62831139
45.06292648
96.35862832
95.68954667
75.45216656
37.8772053
37.6532326
35.55867778
44.36857578
42.74013588
42.86565515
41.51086069
42.11495736
44.15718005
45.05022348
43.61673587
43.83133701
43.17246016
43.37230417
44.87471884
36.08821733
38.21872673
38.0495002
40.91254195
40.73920155
38.96236656
45.69063495
44.4964287
44.70503425
44.0570865
44.27716197
45.53410752
46.27366345
45.28699218
44.90490857
45.0985749
46.13314383
39.46440122
41.23621421
41.07826514
43.63919687
40.92312523
41.35183841
40.10263295
40.73556856
43.33371439
45.29280143
53.49266701
52.6338836
67.37062891
64.88501431
52.59295052
60.04059238
73.28742384
70.19289182
61.65921595
52.51729361
45.44825324
45.38646198
44.18744283
46.02985099
46.32752559
46.27690788
46.08858924
46.12483531
46.14945405
42.1997061
42.63640966
45.18521197
40.13737016
37.79142187
37.86958861
40.51797633
40.10284032
49.81389497
36.63031636
36.32104387
33.71467878
40.32911323
38.52100381
38.74938577
38.16453344
38.32901373
40.17077229
73.19347223
43.92412531
47.53262606
50.74753588
51.32137292
74.03769143
34.98831394
35.0736582
37.82038839
34.37883757
34.4266813
38.13092352
41.41564426
38.18456937
38.59579944
37.42048676
37.93967064
41.12744894
39.72175949
37.86873492
38.01584266
37.57043714
37.73442755
39.56560001
42.86041699
49.98811776
71.57295149
68.29646591
77.05504202
85.01299206
51.26996233
74.43102037
93.32344542
40.97739913
39.47152847
39.66487405
39.00198491
39.25022467
40.82088135
35.29446142
37.37725774
37.01634289
38.53508716
38.37532657
36.21063345
41.5886112
40.15576827
40.3136732
39.83370868
39.99746355
41.45182197
37.41241961
34.84181026
34.90451786
39.11317148
37.14018588
37.42975958
35.86422508
36.87709463
38.52194616
72.44931527
74.20737709
86.466232
50.23117483
62.29675821
60.24414103
80.67160717
76.89167805
62.92352053
42.15455528
40.77454543
40.93032244
40.46844555
40.6220307
42.02032326
36.61237273
38.84507892
38.69007074
40.05644308
39.78843718
37.63283525
42.72863547
41.44943372
41.64144675
41.09252055
41.26422377
42.58359814
43.30136295
42.16923891
42.32379891
41.82841139
42.00584435
43.16992298
38.7238252
40.54163937
40.31287899
41.54741609
41.39326498
39.62186953
43.81010354
42.76472386
42.91023277
42.47286798
42.61969806
43.69085024
57.88125866
55.49319491
45.93143904
79.8370029
68.28579323
69.48023318
64.74092418
65.75905022
77.68622167
58.40404334
35.35469629
34.34728663
34.74128245
33.7109081
34.13735795
35.1305619
38.09227917
33.99405296
33.48230627
98.06555109
89.94425371
58.53357189
99.21639372
107.4583932
108.3710713
106.6805894
106.7322319
97.27748585
35.45630738
35.63158257
35.86874922
36.16410047
36.48843866
36.99272186
35.41888638
35.6238976
35.61745666
35.89261486
36.21491407
36.16991837
36.56894531
37.12243591
37.01977316
37.28484506
37.54433381
37.50980899
38.47776506
38.85538488
38.80061877
40.28918728
40.90637228
40.81327855
47.06960789
46.91402575
46.97200815
35.38574447
35.61470021
35.61713411
35.90854912
36.25674554
36.23704083
36.63936099
37.23439561
37.15090952
37.43644323
37.71417001
37.67832933
38.70720017
39.10826699
39.05517629
40.63780413
41.30312715
41.22321967
35.35520851
35.60448441
35.60825687
35.91838457
36.2885917
36.27420805
36.70379232
37.3461626
37.26197143
37.56669341
37.86338219
37.82477206
38.91550115
39.33760602
39.27646558
40.94065128
41.63439454
41.5469185
44.4353105
45.4769519
45.48003033
41.39189837
32.0026184
33.96483282
35.32262474
35.58819242
35.59508669
35.91632573
36.30480445
36.29832764
36.74764732
37.43892682
37.37202432
37.69785815
38.02077269
37.98174267
39.16378277
39.61908458
39.5430756
41.33276631
42.06431211
41.94008453
44.64899653
45.20455405
45.32478651
36.3301588
26.4257192
27.29799761
35.28372446
35.56191743
35.57323125
35.90211119
36.30140391
36.30448021
36.76658096
37.48406058
37.45275151
37.79106181
38.14963376
38.12539479
39.42353746
39.92929532
39.85767382
41.77675604
42.50611716
42.40421079
44.38214978
44.26612489
44.60688255
27.64662846
25.99674429
25.57780272
35.2357469
35.52238204
35.54049987
35.87121568
36.28053877
36.29386257
36.75965716
37.49211854
37.48862615
37.82660116
38.19724904
38.19013001
39.56430159
40.11938003
40.09135987
42.06063287
42.74953948
42.71600889
43.30011552
41.70827069
42.54117969
25.41634146
32.79519356
30.58660103
35.17745329
35.46995468
35.49503931
35.82450947
36.24033605
36.26263398
36.7295899
37.47099648
37.48945731
37.82511557
38.20127857
38.20323529
39.58118852
40.13580341
40.13775041
42.00399766
42.56767788
42.65180455
41.43420075
37.97374624
38.80488084
26.31627126
38.90864001
37.90753263
35.10850294
35.40504805
35.4367613
35.76315114
36.18359406
36.213881
36.67834189
37.42436424
37.4610595
37.79398911
38.17330283
38.18295148
39.55173669
40.09284203
40.10867944
41.77330754
42.1370315
42.25714709
39.78760763
35.2978026
36.00160665
26.78265188
39.7998113
39.68535913
35.02964744
35.32879454
35.36644367
35.68894676
36.11262702
36.14973837
36.61031687
37.35843723
37.40925656
37.73958601
38.11996367
38.13535041
39.48204303
39.99976836
40.02730598
41.43556911
41.60397021
41.7439538
38.00313687
32.37774911
33.11229595
27.97595115
39.88652423
39.9081081
34.9418141
35.24272551
35.28545545
35.60395937
36.02975141
36.0725316
36.52901031
37.27785914
37.33936771
37.66709194
38.04684873
38.06674973
39.3786866
39.8638968
39.90155496
41.00439244
41.00177429
41.15803995
36.11976342
29.52276993
30.21490929
29.31157663
39.5764125
39.67865013
34.84664571
35.14854599
35.19542036
35.51028711
35.93727717
35.98456446
36.43754507
37.18628096
37.25579601
37.58061132
37.95803041
37.98153753
39.24585651
39.68967525
39.73669722
40.52304716
40.34321524
40.5119803
34.23939988
26.94529915
27.55525078
30.42004931
39.07966992
39.21249035
34.74523491
35.0479185
35.09807969
35.40988588
35.83750447
35.88816672
36.33858427
37.08641173
37.1619741
37.48327914
37.85637714
37.8828959
39.08530767
39.47956871
39.53527714
40.00711625
39.64935901
39.82505098
32.44513443
24.81513582
25.30291268
31.16592393
38.51700288
38.66122662
34.63934103
34.94232427
34.99498687
35.30442536
35.73244509
35.78552671
36.23424188
36.97993024
37.06036228
37.37708124
37.74337901
37.7726658
38.89825276
39.2375435
39.30057399
39.46554954
38.93858552
39.11697293
30.80652196
23.10949706
23.50235256
31.55786419
37.92989316
38.07852539
34.52948046
34.83301368
34.88756209
35.19529257
35.62368536
35.67844481
36.12604776
36.86766863
36.95240618
37.2628716
37.61945894
37.65145739
38.68812389
38.97111061
39.03964794
38.91123188
38.22677865
38.40400715
29.32276176
21.77753358
22.07607125
31.65616359
37.3168413
37.47194025
34.4174362
34.72102637
34.77689711
35.08358032
35.51239186
35.56829889
36.01499908
36.74993916
36.83877589
37.14092662
37.48488655
37.51950668
38.45936776
38.68530903
38.75834785
38.35486214
37.52783864
37.70072681
27.99647971
20.76000032
20.98932897
31.55212847
36.69271134
36.84905298
34.30285613
34.60718139
34.66401383
34.97014895
35.39938726
35.45606747
35.90168515
36.62689882
36.71971376
37.0114587
37.34029454
37.37733176
38.21695385
38.38580512
38.46156676
37.80468454
36.85213226
37.01842585
26.84900348
19.9735605
20.15066445
31.29456917
36.06824318
36.22402216
34.18792261
34.49216988
34.54954542
34.85564482
35.28523531
35.34244025
35.7864211
36.49878786
36.59539041
36.87491227
37.18675548
37.22591494
37.96432264
38.07911101
38.15607181
37.26724188
36.20680223
36.36500142
25.87359889
19.36532384
19.50179836
30.94321491
35.44882633
35.60308579
34.07105808
34.37649471
34.43428009
34.74057684
35.17030167
35.22788281
35.6693763
36.36594692
36.4660687
36.7319364
37.02551021
37.06647912
37.70380592
37.77018093
37.84757788
36.74712911
35.59600792
35.74534981
25.05241854
18.89635309
19.00077105
30.53613967
34.83730273
34.98932945
33.9555439
34.2606153
34.3184876
34.62529046
35.05482949
35.11272326
35.55071343
36.22882934
36.33211958
36.58331886
36.85786163
36.900308
37.43875449
37.46020999
37.53770731
36.24731507
35.02164007
35.16182897
24.3647529
18.53805865
18.61650326
30.10053291
34.2376326
34.38640114
33.83777521
34.14473974
34.20292788
34.51001079
34.9389277
34.99721806
35.43056239
36.08794021
36.19401624
36.42988073
36.68501447
36.72865541
37.17192396
37.15086916
37.22807261
35.76937145
34.4835559
34.61480499
23.79088505
18.2695547
18.32661353
29.6543665
33.6534158
33.79835466
33.72319064
34.02903221
34.08757245
34.3947174
34.82254741
34.8816511
35.30884119
35.94390238
36.05228567
36.27246601
36.50806206
36.55262204
36.90549063
36.84379234
36.92024997
35.31392479
33.98050018
34.10332471
23.31306095
18.07359594
18.11345922
29.20836711
33.08697729
33.22806969
33.60436161
33.91307064
33.97364458
34.27905952
34.70522509
34.76651057
35.18514979
35.79726527
35.90755227
36.11191145
36.32809811
36.37332434
36.64004475
36.5405746
36.61598136
34.88094045
33.51052419
33.62597455
22.9161685
17.93797912
17.96343886
28.76889524
32.53969806
32.67805111
33.48951915
33.7955882
33.8614593
34.16164027
34.58549285
34.65286283
35.05772733
35.64843527
35.76036963
35.94893872
36.14597434
36.191709
36.37641425
36.24202603
36.31656017
34.46903505
33.07028187
33.18150874
22.58692541
17.85319347
17.86709132
28.33926411
32.01130867
32.15088398
33.35601459
33.66752582
33.75443563
34.03350908
34.45413878
34.54324693
34.91709991
35.48859786
35.61167848
35.78278415
35.96069954
36.00922418
36.11186151
35.94436243
36.0250356
34.0713512
32.65192053
32.77112135
22.31254221
17.81045614
17.81595016
27.92001033
31.49841996
31.65063571
47.03065219
47.08549324
47.18437626
45.33460545
45.543428
46.12629409
47.156228
46.7136244
46.74606123
46.75775974
46.80910484
46.78294244
46.77410185
46.79715942
47.07861463
46.52686393
46.59486424
46.86001964
47.34511188
47.3430025
46.70695483
46.38096519
46.45227204
48.07168851
46.74132084
46.69449986
46.42233777
33.63035781
33.77859413
44.72726715
78.49657802
90.74519406
92.94913183
44.12366075
49.1817268
57.12073261
44.01697591
37.47363306
37.43536587
37.18933149
37.99899036
37.70398216
37.74774861
38.74313519
38.68404032
38.32389129
39.53737958
39.08587973
39.15157232
40.72763068
40.63283337
40.04851001
42.10159272
41.30826573
41.41699814
37.64141444
37.57801106
37.31437531
38.17774425
37.86448737
37.93483221
37.78848041
37.82719577
38.13684518
39.0005765
38.90376847
38.52230904
39.80841683
39.32948034
39.43810382
39.21538179
39.27689335
39.75105976
41.13923654
40.97646871
40.35231216
42.56650927
41.70232012
41.89503977
41.51364073
41.62279133
42.47354827
46.79170885
46.85255243
47.03270598
45.8595711
46.48558709
46.39759056
46.65807783
46.57365169
45.9839554
37.78726607
37.75031469
37.46778348
38.39015637
38.05632263
38.09778103
37.97576055
38.01571406
38.34510079
39.21859035
39.16276974
38.75682999
40.1270132
39.61600262
39.67697395
39.49811106
39.55645623
40.06182436
41.46404189
41.38323858
40.70994978
43.10230011
42.17121233
42.25911228
41.99173077
42.08248223
43.006497
44.25454234
44.09020691
42.55091009
37.94208657
37.90242344
37.59941973
38.58463663
38.22946213
38.27566342
38.14044152
38.18438085
38.53338935
39.47061629
39.40228938
38.97335517
40.41680735
39.87990573
39.9561668
39.74078378
39.80832439
40.33811521
41.82957577
41.72782537
41.02678805
43.47437649
42.53955322
42.6470924
42.34793567
42.44114705
43.37905714
45.40978978
45.45474922
44.50462134
45.06687039
45.86113387
45.67989178
46.17076237
46.04160151
45.45594419
28.58112933
30.08644126
40.62832227
41.53792068
40.01582966
46.59571103
43.79783532
38.09507703
38.05984786
37.72744631
38.80705786
38.41839966
38.46399811
38.32295768
38.37050359
38.74984126
39.78064533
39.69907126
39.23179153
40.79859016
40.21773289
40.31194166
40.03791129
40.12435402
40.69078425
42.29704344
42.18447203
41.45201063
43.83801283
42.99119378
43.08740522
42.764334
42.88478846
43.76760062
44.85386719
45.04663951
44.63669906
42.38440073
44.75083717
44.26391448
45.42750375
45.15048406
43.36258047
25.51564676
25.75949443
34.21611165
38.55133115
39.14049002
38.93629084
38.50966377
38.18028565
38.16735573
37.8036659
39.00091778
38.56647776
38.58533186
38.50466972
38.53933517
38.96223726
40.04822886
39.99353577
39.47460895
41.18891761
40.5635771
40.63079757
40.40176348
40.4865042
41.10146447
42.66791324
42.5893792
41.86829862
43.95924319
43.32111023
43.38384707
43.18317572
43.26523114
43.98677833
43.23163405
43.84007078
44.20740094
34.92843002
41.74723831
40.35380236
43.61891632
42.80073209
37.78126433
28.61119764
26.96244528
26.63821988
43.11320096
44.28089721
40.30340711
41.75096893
38.20376557
38.20186864
37.82943177
39.06926406
38.61356809
38.61745943
38.59795918
38.60724686
39.06120395
40.13767598
40.13207366
39.57395298
41.40126399
40.7448268
40.74595647
40.68525604
40.7240391
41.37453773
42.71938307
42.74702853
42.0798537
43.3789011
43.25742491
43.13259361
43.37895353
43.3438677
43.58137539
39.77047255
40.76793566
42.85274322
26.66652865
34.87975267
32.83059311
38.93559048
36.98786909
27.9312326
36.60550203
34.77411794
25.54264114
46.25816072
46.49686446
45.19169301
45.85404421
38.19092552
38.1971296
37.8197571
39.07295163
38.613681
38.60810495
38.61783328
38.61669412
39.0754779
40.12133467
40.13069344
39.57829947
41.34519457
40.7247929
40.70843495
40.74345519
40.73683842
41.36974077
42.3692186
42.47303216
41.95626678
42.39888495
42.68786126
42.52423351
42.9910447
42.84335959
42.65014805
36.68134048
37.33113969
41.03249065
24.3183625
28.87475262
28.00055587
31.12742065
29.80047611
24.83123068
39.50113749
39.25833163
26.3712463
46.20687038
45.93914163
46.52740197
46.45416775
38.14941035
38.16210135
37.78231604
39.03845879
38.5800227
38.56723041
38.60056284
38.5911616
39.05027087
40.05206428
40.07393896
39.53775931
41.19369341
40.63477706
40.60246616
40.68788582
40.66327936
41.23915599
41.87931075
42.01022137
41.69937706
41.31466466
41.98838447
41.7958076
42.35271185
42.1739883
41.59626611
33.848721
34.57838245
39.35491948
22.64770875
25.74812106
25.10416344
27.19277986
26.44306829
23.00463942
39.91353673
39.88093905
27.03736927
45.17469118
44.93229898
45.67859099
45.42316387
38.08559549
38.103371
37.72297377
38.97276647
38.51980663
38.50123758
38.55287948
38.53703912
38.991792
39.93680483
39.96956966
39.4591591
40.96542498
40.48402694
40.43792795
40.56642464
40.5268902
41.02876874
41.31076994
41.45950198
41.33509712
40.12541471
41.18353889
40.96966267
41.59708802
41.39280936
40.43157862
30.92481928
31.64685763
37.53801153
21.61676155
23.45522147
22.98872499
24.50897464
23.95989753
21.81211954
39.76724543
39.83887112
28.31535386
44.23775525
44.01568144
44.69525957
44.46389596
38.00419373
38.02599429
37.64665042
38.88121525
38.43816715
38.41487412
38.48140396
38.46035636
38.90629812
39.78144306
39.82387396
39.34814057
40.67014286
40.28068059
40.22178491
40.38863288
40.33624939
40.75057995
40.67825151
40.84165426
40.88753535
38.8561595
40.30468838
40.07666767
40.75157556
40.52982609
39.17872105
28.19018951
28.84387956
35.64490672
21.13020667
21.81775442
21.48737062
22.56457197
22.17105347
21.20495778
39.34069529
39.46249781
29.61826814
43.37045847
43.16043449
43.79752415
43.58222909
37.90868103
37.9337452
37.55720193
38.76740541
38.33878138
38.31144608
38.39052459
38.36514702
38.79782848
39.58891805
39.64040142
39.20828049
40.31056467
40.02880658
39.959143
40.16020725
40.09586977
40.40542006
39.99944711
40.17225831
40.39696328
37.55387518
39.37931522
39.14389937
39.84611518
39.61353917
37.8798276
25.8217102
26.36655176
33.77996099
21.07074698
20.66332455
20.41434476
21.19371794
20.92391521
21.05482908
38.80298924
38.94280073
30.64110615
42.54188577
42.33975648
42.95221644
42.74603943
37.80125565
37.82917109
37.45752069
38.6329177
38.22373424
38.19261434
38.28315557
38.25391246
38.66845366
39.36201094
39.42181426
39.04095839
39.908852
39.73564839
39.65654284
39.88703514
39.81265255
40.0116119
39.29506689
39.47260865
39.87364566
36.26564488
38.43490493
38.19902885
38.90777217
38.67131003
36.58405644
23.91434654
24.35243948
32.0189949
21.33165458
19.73782886
19.53726814
20.17645247
19.95121637
21.24171393
38.22543904
38.37238074
31.29640999
41.74490735
41.5502498
42.13963276
41.94129119
37.68277191
37.71342377
37.34927474
38.47819808
38.09362531
38.05876876
38.16055486
38.12755341
38.51872613
39.10698118
39.17298454
38.8477093
39.48697479
39.4077992
39.32194195
39.57532592
39.492322
39.59405471
38.5818602
38.76013991
39.32770159
35.03250626
37.49792967
37.2675408
37.96398643
37.73019233
35.333881
22.39710557
22.73988469
30.42407051
21.77846254
19.00623695
18.85335426
19.3481144
19.17187643
21.65790742
37.6258582
37.77858154
31.60343393
40.9767133
40.78878732
41.35737082
41.1662282
37.55347654
37.58680365
37.23311474
38.30465113
37.94879951
37.91040718
38.02300341
37.98633773
38.34967013
38.8303672
38.90137641
38.63252466
39.05028429
39.0580918
38.9689153
39.23495446
39.14691117
39.16050503
37.87496043
38.05036826
38.77198495
33.88011597
36.5903245
36.36993054
37.03932425
36.81353665
34.16000159
21.23563348
21.49689984
28.97449488
22.27959873
18.45917003
18.34936436
18.71069929
18.58015803
22.15488825
37.00524799
37.16119349
31.64806197
40.23417193
40.0522467
40.60242797
40.41755943
37.41378641
37.44964805
37.10926352
38.114891
37.79034081
37.74879473
37.87118058
37.8311455
38.16367735
38.53680351
38.61141665
38.39989255
38.60480649
38.69884544
38.60800167
38.87932879
38.78930079
38.71657728
37.18657615
37.35640994
38.21645585
32.82066319
35.72764698
35.52030094
36.15263011
35.93851611
33.07637122
20.34167689
20.54321486
27.69243964
22.7439548
18.07467386
18.00137886
18.24835647
18.15763599
22.63475777
36.38009209
36.53636238
31.49919512
39.51499205
39.33873278
39.87175177
39.69265981
37.26456725
37.30270571
36.97797414
37.91213604
37.62001759
37.57582659
37.70653306
37.66359615
37.96387542
38.23296373
38.30959362
38.15464953
38.15769875
38.3336525
38.24180609
38.51680775
38.42534195
38.2693085
36.5253337
36.68774983
37.66892189
31.86223
34.91977055
34.72700697
35.31647324
35.11627786
32.09226536
19.64985346
19.80536571
26.58911453
23.11991092
17.82502839
17.78092682
17.93470231
17.87704483
23.03598206
35.7577218
35.91281452
31.21376632
38.81826107
38.64750724
39.16385027
38.99036119
37.10701795
37.14712138
36.8397533
37.69924375
37.43986605
37.39351433
37.53105249
37.4857231
37.75330676
37.92487022
38.00204936
37.89981834
37.71421567
37.96562623
37.87356265
38.14982778
38.05773736
37.82452615
35.89692479
36.05075818
37.13545208
31.00572315
34.17163781
33.99412641
34.53806005
34.35294395
31.21054987
19.1154485
19.23499902
25.65403686
23.38779428
17.68089361
17.65777029
17.74179268
17.70906065
23.33096013
35.14186303
35.29513427
30.84560077
38.14313432
37.97758398
38.47808827
38.30994735
36.94240844
36.98415216
36.69528796
37.4788417
37.25179381
37.20376163
37.34670015
37.29944583
37.53451173
37.61522119
37.69272267
37.63784799
37.27811462
37.59815288
37.50675955
37.78160049
37.68977577
37.38626986
35.30425183
35.44899906
36.62019892
30.24585763
33.48426309
33.3216566
33.82043936
33.65045134
30.42720309
18.70481066