/*--------------------------------*- C++ -*----------------------------------*\
| =========                 |                                                 |
| \\      /  F ield         | OpenFOAM: The Open Source CFD Toolbox           |
|  \\    /   O peration     | Version:  v2012                                 |
|   \\  /    A nd           | Website:  www.openfoam.com                      |
|    \\/     M anipulation  |                                                 |
\*---------------------------------------------------------------------------*/
FoamFile
{
    version     2.0;
    format      ascii;
    class       volScalarField;
    location    "0.69";
    object      p;
}
// * * * * * * * * * * * * * * * * * * * * * * * * * * * * * * * * * * * * * //

dimensions      [0 2 -2 0 0 0 0];


internalField   nonuniform List<scalar> 
3259
(
796.0919245
800.1847637
808.665381
820.6816848
849.2896386
872.8971637
902.8564874
953.6708447
1010.964253
1070.530094
1120.336785
1198.264091
749.084739
751.7588193
757.4861602
765.2000341
788.4474443
802.9597343
818.9734064
853.7899416
884.9216123
907.0311993
903.5510731
893.7268418
699.1667853
700.3563217
703.007975
706.202023
724.3950498
729.2691606
732.3053579
748.9586281
755.2050972
746.1359494
698.8217524
567.0124904
647.5975841
647.4262082
647.1651482
646.1602221
659.5598074
656.2482117
648.7436387
648.4504486
633.9540145
602.139506
534.1384747
409.9035348
595.5968585
594.2943406
591.608541
587.1280604
596.0197488
586.1913453
570.6270914
558.0527528
526.2852233
479.2793091
405.3563185
298.7145807
544.2478001
542.0579765
537.4727193
530.320137
535.3683132
520.777306
499.6098249
480.237075
437.7067298
381.5868943
308.3413353
216.2785287
494.4049717
491.5603034
485.573376
476.5145032
478.5828155
460.8853013
436.4615979
413.4551736
369.1350853
311.3958154
240.9746524
163.0683544
446.7031737
443.4258179
436.5105584
426.2409617
426.1518439
406.7475335
380.6787118
356.5235757
313.1805556
259.5671185
196.3113087
129.1213274
401.5814264
398.0699859
390.6517565
379.7600657
378.2404762
358.2085465
331.8621988
307.9717787
267.04173
218.4363174
163.0504489
105.2690112
359.3063411
355.7225335
348.1536915
337.12927
334.6936097
314.8731586
289.2452841
266.4217944
228.6528597
185.2221803
136.762666
87.30947511
319.9923757
316.4597257
309.0073583
298.2234609
295.29386
276.2556309
252.0823505
230.6797805
196.3875648
157.9012266
115.5370429
73.05707644
283.6319184
280.2413625
273.0971713
262.8179498
259.7163651
241.8343501
219.4796066
199.7799767
168.9965369
135.0635574
98.07647319
61.46295739
250.1299616
246.9459371
240.2425336
230.6445242
227.612656
211.1148863
190.7410906
172.8975651
145.5162468
115.7192423
83.48087684
51.86435292
219.3319754
216.3973404
210.2216414
201.4149571
198.6254006
183.6301762
165.2952024
149.3504326
125.1909314
99.13765743
71.11000875
43.80532159
191.0404776
188.3810641
182.7848675
174.8305175
172.4085832
158.9595431
142.6497846
128.5814332
107.4309411
84.77064912
60.49461009
36.95741375
165.0291822
162.6582102
157.6674255
150.5916979
148.626443
136.7194785
122.3791027
110.1276431
91.76820071
72.19326469
51.27907514
31.07674184
141.0567378
138.9788094
134.6014973
128.4070735
126.9642449
116.5665439
104.1213004
93.60065901
77.82794578
61.07204184
43.19344034
25.97531158
118.8757878
117.0897529
113.3222806
107.99693
107.1253561
98.18817323
87.59430052
78.66891761
65.30333685
51.13757823
36.02233904
21.50223054
98.23179145
96.73407931
93.56662408
89.08633291
88.839829
81.29703456
72.49233531
65.0687283
53.94227491
42.16976283
29.59035434
17.53448857
78.89764217
77.68105488
75.10085026
71.4407149
71.83696237
65.63185739
58.49264607
52.57834871
43.53013008
33.98257229
23.7510524
13.969898
60.54954976
59.6162979
57.61830301
54.74204895
55.92671552
50.95446562
45.32609545
40.96513159
33.86972616
26.41193815
18.37745473
10.7215581
43.24659213
42.57006789
41.13834336
39.08831212
40.62219779
37.0411256
32.89485745
30.01637611
24.78202303
19.30995393
13.35831677
7.715604553
25.68683393
25.35160144
24.50383752
23.27306803
26.02171702
23.69829697
20.97077569
19.55337108
16.10340832
12.5360048
8.591705198
4.889471587
12.29723632
12.00878452
11.58612333
10.95434939
11.76030333
10.59396306
9.284394786
9.413852503
7.679803517
5.936500796
3.982056264
2.201499856
1216.539224
922.0707068
1173.017973
1214.155673
957.6466049
931.4074748
1181.125112
1071.671975
1100.329322
1262.123917
638.6922113
1271.164157
1276.710291
988.1701282
1087.060009
1051.905128
1092.397592
922.3166892
1267.680429
1104.912732
-228.3960296
1184.668303
1150.826705
1085.000599
1227.165761
1170.874175
1194.561346
1327.244293
1295.206757
1244.720392
1311.462728
1336.58037
1340.996679
1331.162981
1061.385831
989.4441361
902.2330137
926.798123
489.8079801
218.0253743
1200.605792
-215.6327117
179.6647663
-131.3616385
1191.334554
-166.9408574
148.5319198
746.2759987
681.9649352
895.3358835
782.8619639
807.04792
955.315657
1138.544244
1125.254176
1087.944563
878.3910685
696.3494498
1376.739097
1293.519219
736.8364222
965.4289415
921.5606319
1074.460436
1029.153881
1035.213342
187.4708412
1042.267791
432.90918
718.9411088
528.1970595
532.666296
1235.034123
1142.746305
1169.832524
1137.724025
1147.495609
1221.19635
1209.240297
1180.614469
1369.150361
1303.660338
1011.820625
1012.522913
961.0859151
594.2700097
519.7975811
1020.597104
284.9591363
418.9875158
334.9699647
1223.584001
-361.363277
43.53841782
237.2921451
3.83447173
1146.381801
1246.626987
1219.440714
1231.72676
1292.220571
1280.570421
1255.887981
1281.689071
1291.000485
1284.764208
1077.996757
1258.530502
1265.433545
1273.320534
1114.262408
1314.386891
1289.514434
1300.546046
1363.16773
1347.33502
1323.331037
1345.142261
1356.472057
1351.047893
1321.779857
1325.385536
1334.706107
935.848367
951.8741423
918.2338605
625.683073
942.2775195
373.9111235
479.2819468
582.2285313
1206.850716
1212.441428
1208.158882
-278.1801229
-124.3998372
-106.4503708
-122.1563977
1179.836718
1186.736981
1198.384517
-31.40929093
1393.674249
1389.147526
1297.298021
1289.46613
1295.249069
1291.568139
942.4912189
956.6383784
1019.002188
1054.878727
1049.670047
1030.819099
1061.998299
386.2297153
377.1715969
984.00592
880.5025387
681.0839936
1236.707642
1253.092472
1247.674822
1128.276586
1361.748204
1348.460646
1383.55908
1374.516245
1308.290499
1316.205657
1312.445482
1319.099014
1311.61123
1337.246028
1327.949581
1009.1243
984.8969521
985.2560108
561.4286828
565.5610571
608.9656
519.8888115
523.3217445
513.4500942
995.811642
372.5270363
328.8517499
268.3134706
1215.072941
1216.865124
1223.613894
-342.1657343
123.8969142
71.87744931
224.181683
217.3374574
225.5393038
57.74884218
-66.90291521
-48.58139567
48.01522723
1159.671973
1175.846839
1168.348168
977.7811938
1024.829938
1041.875155
1093.944445
1110.953805
1159.051341
878.4301477
906.3754305
995.8807854
915.7596786
940.5686702
1056.12686
946.8627004
956.5411882
1109.697716
1066.760718
1061.754234
1150.830874
1147.262251
1163.773256
1219.275478
774.8426572
784.7495686
877.3186379
787.2126546
787.1152826
903.3021844
784.6821454
760.843901
907.3591524
848.8793884
839.7661744
911.0366347
856.6801638
839.8563311
901.7099575
672.6949836
666.4760341
754.4927039
663.2043179
645.5868814
750.7573998
636.1930293
592.5570894
715.7379046
571.7766052
491.0504039
624.3197055
444.1596863
579.4863102
559.6700939
638.5502589
551.7762517
521.2308788
612.6554816
507.9773219
456.0420661
555.5533762
434.4200238
353.785202
450.8380378
323.6314571
498.6002271
469.0491715
535.1571173
457.707398
418.5705025
493.1710947
403.39037
350.2601209
426.6888945
329.8092474
258.4720061
326.6995425
234.1597016
429.1608709
397.2740305
449.6415992
384.9395191
342.4636212
397.0563151
326.5624926
274.6925125
328.6063492
255.0380263
193.4506327
239.5536852
173.9627769
369.9001422
338.1210272
381.4242169
326.1588944
286.0855404
327.0937891
271.4091723
223.7184153
260.2203329
206.240771
152.7977743
181.4522095
136.2633721
319.3855457
288.9906438
324.9822811
277.7766373
241.0304221
273.8766513
227.8814152
185.798742
213.2311513
170.640539
125.6147539
145.232506
110.5211247
276.2054087
247.9007001
278.0340873
237.6193381
204.5364352
231.1974041
192.9057505
155.9456973
177.6849608
142.7988567
104.3145901
119.7884748
91.39831504
239.1109003
213.237779
238.6876536
203.9536661
174.5120747
196.4924015
164.2647937
131.853716
149.4511185
120.4484014
87.36088128
99.72033623
76.3386869
207.0849012
183.7358577
205.4213062
175.443837
149.4253129
167.826804
140.4118836
112.0273004
126.5413612
102.1426873
73.60974518
83.65867404
64.15303381
179.268782
158.4073278
177.0463097
151.0641368
128.1784775
143.7892122
120.2713631
95.46877549
107.6143965
86.89961312
62.26928116
70.57390997
54.10441626
154.9456217
136.4684818
152.6316898
130.0109627
109.9678627
123.3676101
103.0564038
81.44209539
91.74927764
74.02167625
52.77390106
59.7406106
45.69538471
133.5301068
117.2993736
131.4379527
111.6577992
94.19295302
105.8159338
88.17984817
69.41508781
78.26543688
63.00446019
44.71558725
50.63813359
38.57027893
114.5379069
100.4024861
112.8793098
95.50940063
80.38948959
90.57295337
75.18971158
58.98509667
66.67122378
53.46760119
37.7896422
42.88811781
32.46737612
97.56329462
85.3749371
96.4840095
81.16936675
68.19147133
77.20169276
63.73148436
49.84280725
56.58936611
45.12150569
31.76509469
36.2064872
27.18642806
82.26106578
71.88745804
81.87024829
68.31631238
57.30576559
65.35726866
53.52254401
41.74249493
47.72842936
37.73953183
26.46543171
30.3782361
22.56870632
68.35172223
59.66925444
68.72342729
56.68555778
47.49154778
54.76026423
44.33167526
34.48538454
39.85611776
31.13740382
21.74977272
25.23664496
18.48490973
55.60494934
48.49359096
56.78589353
46.05518413
38.54739578
45.18119746
35.96545243
27.90690218
32.78305894
25.16254208
17.50327297
20.64823974
14.8282139
43.79551816
38.15262396
45.8381118
36.22444491
30.29578706
36.42611429
28.25506887
21.86527064
26.35133391
19.68344933
13.62848513
16.50322415
11.50820437
32.69788149
28.45348682
35.67464788
27.0093917
22.57735949
28.32215164
21.04921344
16.23612503
20.4239421
14.5855658
10.0417311
12.70782398
8.448008965
22.12999148
19.22442212
26.1085685
18.2431924
15.24311651
20.71352793
14.20642047
10.90553072
14.87985352
9.764985988
6.670076583
9.181248515
5.581968576
11.92714722
10.30927866
16.97193005
9.771165666
8.1428167
13.45242943
7.58126829
5.763560864
9.606761543
5.126138307
3.45617981
5.853455336
2.861253638
2.361167296
1.913117769
8.110723275
1.761293564
1.253261903
6.381796649
1.069535416
0.6696084193
4.494017898
0.7141736209
0.5990800761
2.669375048
0.3056688719
1236.718978
1286.850441
1263.57281
919.838273
969.4476278
971.906037
642.0623345
1179.627296
1262.636926
1224.870483
1306.889333
1272.963835
1187.788774
940.9573642
1031.765662
1011.422007
1040.119091
1033.863424
939.000651
1157.963053
1065.427609
1076.289546
1081.202142
1144.129766
1127.474596
1112.650589
1108.802633
1095.519238
1256.587951
1247.285219
1252.649977
501.7931452
710.9249017
744.9952876
652.784765
451.8090612
623.1820782
616.2247668
1278.99952
1273.555249
1265.458907
1355.567927
1370.938614
1280.518821
1302.923565
906.2278868
949.6587355
914.1596345
1081.646933
1066.460755
1071.851094
993.5242692
991.27643
1059.160615
903.2531338
862.587077
1007.9169
1179.221296
1168.226707
1173.284426
1129.882441
1136.715613
1158.019182
1085.046903
1122.477831
1107.829946
1209.014229
1216.985408
1235.361903
1178.366351
1197.929016
1190.233471
1203.367361
1198.762376
1189.325496
1323.11509
1314.26117
1318.101251
1278.645361
1286.842091
1303.636963
1252.957184
1269.992842
1261.835572
1342.716505
1351.999361
1320.229617
1336.371783
1327.308644
1345.898808
1340.893105
1332.041762
1037.313974
1029.554458
1072.006943
971.3539801
1014.826015
1013.217402
445.0112433
483.4357928
516.6432789
246.0795646
292.7539256
258.947001
136.0480748
172.1356156
208.6769024
-132.3539095
14.92995443
727.9622001
782.3786194
796.2243748
753.98167
766.6162457
707.3086558
907.1573365
815.4043335
788.5838372
777.0440277
809.7471745
819.8269724
888.139708
779.6732122
728.9358606
905.3022143
839.9347785
762.3715427
1133.802223
1121.844429
1126.447274
1112.932356
1117.185398
1129.179708
1091.416287
1104.607116
1100.701353
713.3315321
713.0965539
703.5610255
652.3540085
673.0495088
723.8638561
1383.100289
1389.389413
1383.896718
902.0789021
888.3410217
555.7510856
949.8107417
947.7236352
956.6026154
920.8052933
936.7346004
936.2992643
1060.197713
1062.756202
1077.566034
1029.272526
1046.720254
1045.119387
293.7216134
736.7781195
827.5731112
794.4189647
612.5149065
819.8490366
655.4089232
679.5671435
637.0658464
1159.917129
1163.64728
1174.417971
1140.956672
1152.514638
1148.285402
1161.23467
1156.820756
1145.14235
1217.593775
1208.002524
1211.870666
1200.183935
1203.884633
1213.560901
1184.57408
1194.329629
1189.864437
1360.614038
1367.242633
1376.065811
995.5198653
990.2282309
1010.302212
947.4629333
969.0419948
978.5556845
397.6044181
362.1795381
376.5191825
298.6235755
332.8007727
369.299904
57.99523153
106.4493204
84.63282558
1238.128505
1242.375296
1251.525586
1223.305816
1232.993858
1228.345962
1242.543234
1237.64096
1227.616712
1288.809818
1281.024195
1285.353881
1272.763652
1276.685643
1284.851216
1260.286622
1268.646368
1263.883783
1306.430176
1310.214136
1318.867946
1293.173258
1301.639128
1297.40563
1309.098113
1305.531172
1297.071218
1357.649603
1349.46574
1354.841651
1339.801008
1344.36778
1352.452931
1327.495137
1336.057922
1331.182864
409.8341467
450.1934437
416.958312
500.2115342
477.203961
443.6900249
544.0260968
518.6732471
546.6926836
-86.95934068
931.3406275
916.9944089
935.4377742
969.5064158
949.1295649
942.6957893
1214.265099
1026.773176
1000.242578
915.2012246
835.1520189
937.9413037
842.386782
898.296896
921.4974142
681.8852296
693.6191313
667.1992969
880.0219463
891.2260742
906.1729166
923.304092
943.3377734
963.8842064
820.5090771
827.9818635
860.3135185
838.0493197
848.8096362
886.8356611
860.3764576
869.8633704
941.2324635
929.1498306
941.1205936
967.0537801
979.7370323
992.8496286
1026.156438
1029.773664
1040.562371
1084.254867
1182.691566
1187.28128
1204.673493
756.9640234
761.2611415
795.4079778
766.3068592
771.2427295
810.913529
775.703313
771.3092885
846.2651379
827.4309695
833.7398783
861.5264042
852.2146787
857.3713626
891.9743322
865.7634714
864.806099
909.150199
691.8517397
692.3387361
727.0386647
692.4629478
691.7328782
731.1848621
689.9109732
674.1844047
746.943061
723.2353383
723.94595
751.1047949
723.5955997
721.7644137
754.976305
708.3223509
699.2867613
738.8422093
653.8916975
630.8455304
677.5091087
518.0014445
525.5093342
589.0723107
627.3145143
624.5678633
658.482857
620.7096037
615.4377695
653.097164
608.9184776
585.3425514
651.3238858
624.8232624
620.7827157
645.5423649
605.5553702
598.7392303
628.2631277
569.4707209
555.7325564
589.3661718
498.7349003
473.9871014
509.3081925
378.9987063
340.983659
372.4246611
565.0799044
559.7171633
591.9643841
552.8038186
544.0920541
579.0164117
534.1377179
506.7452221
564.9337789
537.4707701
529.4293752
550.8542112
502.0076687
491.3370912
516.4678867
452.2315853
436.2745864
463.6560783
378.2674224
354.8665052
381.6839016
275.512805
239.1633771
260.5311392
506.2848307
499.0764841
529.089578
490.0924067
479.1644332
510.7898741
467.0675786
438.2124608
488.8511025
462.5332368
453.0117941
470.9232334
419.0811765
405.9465659
425.0144417
361.5260042
344.8902049
365.0236158
288.6989915
266.1564765
285.549886
200.3610901
174.4474751
188.2193652
451.6447954
443.2827813
470.8130128
433.0763079
420.9236662
449.2118833
407.6671601
379.1778194
422.7657494
398.3441059
388.4059025
403.5446815
354.0976235
341.0870604
355.9889138
297.2592324
281.2008154
294.967808
228.6931427
208.1312685
219.5474903
153.2693273
130.8927998
140.0940087
401.4713337
392.5190553
417.5169905
381.7787872
369.2223165
394.2773873
355.4450711
328.4061873
365.9459771
343.6402657
333.8443537
346.6364239
300.8136491
288.5781293
300.7215314
248.3986694
234.0115666
244.7492992
187.2213555
170.5491368
178.732909
122.3980941
104.9469235
110.90558
355.7387488
346.6575696
369.2217184
335.8984845
323.5317937
345.6661326
309.827658
284.70202
317.0848961
296.9608473
287.6440654
298.4951361
256.7878033
245.564002
255.5525372
209.4805956
196.7744565
205.3240423
155.9081052
141.7504556
148.3296227
100.3544541
85.56494111
89.88132913
314.2927402
305.414893
325.6989291
294.9889468
283.1908975
302.7325358
270.0325793
246.9411688
274.9830755
256.9663777
248.3177363
257.5763779
220.0670351
209.9398103
218.2489514
177.9035911
166.7132283
173.6696642
131.0389094
118.8674566
124.1280167
83.44932988
70.7036431
74.09369772
276.8430162
268.3960883
286.6060758
258.5350911
247.5108681
264.8103661
235.2614787
214.218249
238.5478084
222.5216418
214.6275061
222.5775956
189.1247581
180.0930705
187.0853579
151.8158007
141.9749311
147.7371042
110.8582603
100.3630705
104.6441435
69.94017161
58.87706532
61.59806103
243.0489913
235.174839
251.5241053
226.0262827
215.8763552
231.2189323
204.6645364
185.6938817
206.9260781
192.6986893
185.5791763
192.4525044
162.7925748
154.803904
160.7538549
129.9322795
121.2999379
126.1413304
94.18774769
85.12242336
88.67403264
58.89664827
49.29131995
51.51018824
212.5535547
205.3338277
220.0298288
196.9813107
187.7660203
201.4116878
177.6395094
160.6751318
179.3175845
166.7102475
160.3525995
166.3387797
140.1647747
133.1405784
138.2588449
111.3389889
103.7899389
107.9103655
80.20029917
72.37394756
75.36047325
49.71990634
41.40739803
43.24220758
185.0017043
178.4766061
191.7143735
170.9551769
162.6915706
174.8758148
153.6508921
138.591574
155.062916
143.9068573
138.2804797
143.5330767
120.5305554
114.3870234
118.8348714
95.35675178
88.77957979
92.32707418
68.30683669
61.57137775
64.11516046
41.99044457
34.83467449
36.3721046
160.0499573
154.2316973
166.1958333
147.5461481
140.2238251
151.1556077
132.2419569
118.9665517
133.6178198
123.7579674
118.8229542
123.467196
103.3347163
97.99361347
101.8961045
81.47291625
75.77028664
78.85765003
58.07134032
52.29697539
54.49083073
35.40471285
29.28478876
30.58937446
137.3719978
132.2549294
143.1149526
126.3913475
119.9838491
129.846002
113.018739
101.3969951
114.5257686
105.8210255
101.5338333
105.6733151
88.1347308
83.5264913
86.98276541
69.28787083
64.37643983
67.0912814
49.1610866
44.23926766
46.15356222
29.7348038
24.53956838
25.66021061
116.6620679
112.2299147
122.1422359
107.1642474
101.6406628
110.5933693
95.65898645
85.53288633
97.39899909
89.72217226
86.04131112
89.76347431
74.57472389
70.63896533
73.72923861
58.48637036
54.29530611
56.70685275
41.32237145
37.15930107
38.84869054
24.80334442
20.43261409
21.40716776
97.63541712
93.86355698
102.973313
89.56412404
84.8820792
93.08162427
79.88492058
71.10375516
81.89577083
75.14738586
72.03480454
75.41102696
62.36258269
59.04719773
61.83735832
48.81256634
45.28141474
47.44660698
34.35103188
30.86742191
32.37549933
20.46711109
16.83368592
17.69188038
80.02171475
76.88188956
85.32616805
73.31773592
69.42126753
77.00489084
65.37878028
57.87831952
67.76104359
61.84597839
59.26415086
62.35251206
51.25818996
48.51740335
51.06180356
40.05651901
37.13453892
39.09984517
28.08023383
25.21052679
26.57258791
16.60919435
13.63969655
14.40512789
63.58570623
61.03619957
68.93591727
58.17605533
55.01795937
62.09826249
51.80356233
45.61062964
54.78192287
49.59938523
47.50959503
50.36448598
41.05198105
38.84638088
41.19400171
32.03821361
29.68308852
31.48924951
22.36860097
20.06005654
21.30646243
13.13129354
10.7661136
11.45852888
47.99452513
46.0537069
53.55860355
43.90567403
41.49069015
48.15880734
39.03444677
34.06508049
42.71047123
38.16931589
36.546991
39.22408842
31.55071316
29.84949805
32.04486375
24.59804264
22.77625178
24.45951927
17.09355914
15.30578149
16.46260135
9.950003223
8.142449517
8.778324326
33.12658051
31.82130038
38.94002244
30.31421904
28.61311237
34.98057541
26.88724227
23.06903275
31.31660391
27.35858934
26.18250482
28.72665548
22.58020799
21.35942773
23.44308944
17.59121874
16.27743349
17.87110246
12.14685249
10.85111195
11.94156533
6.994355257
5.709448551
6.302701914
19.02098919
18.09086833
24.98016301
17.21757274
16.22781986
22.34496976
15.20450513
12.45317415
20.42703327
16.98996115
16.24434333
18.69727237
13.97957304
13.21916818
15.22977534
10.87684791
10.05412744
11.59167078
7.428389851
6.608709348
7.653581339
4.205329982
3.418880826
3.980176298
6.333655166
5.777412189
11.19226371
5.344935282
4.977887546
9.956923111
4.590408854
2.513569462
9.877217468
6.915458092
6.591171547
8.97679191
5.609885955
5.284626905
7.249436583
4.295653635
3.952792544
5.476805757
2.857464305
2.521814948
3.514148041
1.553958705
1.241165406
1.779296744
1221.764125
1238.415002
1231.516147
920.2483128
938.9694645
940.0548508
1246.112464
1236.204206
1205.247627
967.259437
966.4634572
933.4781285
1173.410563
1140.724215
1147.052152
1073.900444
1093.779672
1090.079821
1310.820236
1317.053588
1032.765358
1033.857071
1054.069261
102.7598579
898.9734238
864.5895836
859.8182824
897.4069156
882.6137046
896.551766
830.0361944
847.5941634
883.0734861
227.7361118
566.7004498
504.7337019
576.5866193
992.6290936
1017.721979
1001.293932
1053.275962
1035.084489
1008.331265
1059.193594
1091.585632
1072.177194
1131.053614
1111.28472
1076.620755
1127.482587
1169.986161
1150.680037
1207.309819
1188.884057
1143.494877
887.4986407
914.2264405
903.7118775
936.3650098
925.1523268
896.8669435
981.1285746
953.6228775
966.5683422
924.7626666
958.6771566
947.6310798
979.15702
969.2770995
933.1281608
1041.286157
1005.710587
1018.067972
951.7192025
995.9126052
988.1198819
1007.780651
1002.31215
954.5511263
1097.229604
1050.325292
1059.434956
1151.085602
1169.341284
1163.605258
1182.819605
1175.868293
1157.194751
1211.783806
1194.087031
1201.336193
778.3043092
805.7979721
800.9642801
815.2724881
810.6487451
781.6792147
869.4286077
840.1233126
846.374647
788.6407803
822.7055348
819.3829187
825.5153193
824.9486548
788.7776701
898.2011665
861.5514992
864.4270683
779.6311354
821.5688141
824.0795021
807.9404782
816.300231
771.7313724
909.3342308
862.5197302
857.0972673
901.5543841
882.7381078
882.5547944
671.0265847
697.1926118
697.8020038
694.8443176
696.2643203
668.9312629
753.0558188
724.4491081
724.4048831
658.844334
690.1156413
692.7902364
679.7497236
685.8702985
653.0425166
753.1749935
719.2794792
714.9644528
624.4894497
661.1388698
671.6014402
631.5462752
647.9250738
610.0664616
728.8281218
687.5321528
672.6052641
547.2233614
587.6530356
611.6176353
534.8035945
559.842352
518.3346182
653.1575278
604.4653379
578.4454055
407.9838191
456.4242698
481.0640799
398.0399664
356.0585148
475.9672332
440.7180398
573.3291251
596.6866167
601.8178127
585.0859376
591.1773616
566.785568
642.3166884
616.3627391
611.3535304
542.891073
570.3353829
578.2131549
550.5461237
561.2068606
532.7909534
621.2537568
590.6492496
580.9975074
492.8089717
523.5404539
538.0788451
487.3340631
506.6903664
475.5300305
573.9347861
539.4838646
520.4997948
410.4095605
441.1224559
465.5288251
383.2523256
412.985135
382.7557481
480.1673159
445.2706625
415.3080573
284.6206243
311.5590867
350.3813781
268.7951027
246.8374247
321.6578733
293.4118002
489.5942659
509.0544776
517.6908848
489.7529078
499.698792
479.7109025
543.2807524
520.8820567
511.7974036
445.6035312
467.7077163
479.1397626
441.7568525
455.2989787
432.6019413
505.5010337
479.6047604
466.6265554
386.9634856
410.7134584
426.9362767
373.8089172
392.9984012
369.2399461
446.147199
418.6309388
399.2770317
306.8049262
329.9044916
353.1008148
279.2329605
303.8895228
281.6829166
354.4472711
328.1328896
301.9022231
203.3686522
220.2231927
253.9564927
192.2820447
176.3032693
227.1436119
209.1411913
419.3463445
435.8235738
445.5311841
413.8892194
425.2970896
408.7294401
460.7393902
442.621351
431.3208709
371.6965618
388.2885579
401.5606917
359.0426189
374.0856815
357.533941
411.5006418
391.9995455
377.2154539
309.9367869
326.541554
343.192674
290.8570717
309.1333916
292.6999919
347.356745
327.3317849
308.8137013
233.1685485
248.6876494
270.9224744
207.1040862
226.6068799
211.8605549
261.4513606
243.120946
222.465166
150.4171017
161.86711
186.3098252
134.5673882
123.3949973
161.2246372
147.2347326
359.9789125
373.8910089
383.852619
351.8842335
363.246318
349.3890479
392.8832248
377.7341146
366.3066531
313.4943608
326.9360384
339.7850934
298.9940016
313.3340342
300.1299388
341.9713973
327.2649559
312.6420415
256.1704974
268.3073712
283.9601829
235.0676031
252.0426845
240.3332341
277.9434138
264.5379045
247.2163786
187.7075946
197.7495319
217.1559649
161.5543144
178.395793
169.203966
198.8604712
187.945411
171.0169661
116.8280852
122.8621072
144.0627062
99.60560519
94.88043771
113.8104924
105.8665636
309.7978859
321.5711357
331.2893054
300.4480377
311.2959105
299.6638071
336.1304837
323.4425893
312.4351034
266.0288928
277.025988
289.0234039
251.3938428
264.4711848
253.7668186
287.6121016
275.7396971
262.3277596
214.3532531
223.900023
237.8541082
194.3966906
209.472347
200.3770857
229.3728291
219.1133744
203.5099826
155.334532
162.7648267
178.697658
131.8235142
147.0009613
140.2432667
161.2458556
154.0076107
138.3626586
94.47374437
99.44306636
116.1968952
80.77569596
76.65001972
90.15834391
85.31429671
267.2058136
277.2201008
286.401111
257.5137647
267.5928013
257.7654724
288.5191424
277.8360981
267.5495116
226.9396318
236.0360448
246.9895294
212.982025
224.6834231
215.8949094
243.5896211
233.9048074
221.8582038
180.9800587
188.6714511
200.9817796
162.7943129
175.9701398
168.6813127
191.7838569
183.6591058
170.0283508
129.6817317
135.5484999
149.1709301
109.1762038
122.2289557
116.8906081
133.8623753
127.8731259
114.3236149
77.68649935
81.50357317
95.73884579
65.87390573
62.71595367
72.83084639
69.24329169
230.83441
239.4075194
247.8892086
221.375747
230.5695131
222.2031519
248.3323665
239.2734112
229.8526094
194.3781955
201.989875
211.8406592
181.503873
191.862966
184.5513693
207.5119921
199.5091777
188.8230588
153.7682775
160.0868389
170.9253505
137.4279637
148.9287066
142.9694237
161.7617736
155.1852807
143.2856953
109.1429623
113.8784533
125.6082113
91.26187404
102.5342003
98.23614302
111.8404928
107.0626208
95.37595449
64.46850573
67.49972316
79.79803916
54.33624471
51.85559771
59.75253543
56.96442519
199.5780217
206.9633932
214.67954
190.6852663
198.963954
191.7876303
214.1573047
206.4163751
197.9092504
166.942416
173.3835492
182.1481294
155.2999221
164.4270304
158.2642132
177.5540632
170.8520455
161.4288334
131.1917433
136.464552
145.9908207
116.6428389
126.6833425
121.7312049
137.2868923
131.8637357
121.4759232
92.39034376
96.28249248
106.3982536
76.79533058
86.57378175
83.04697311
94.15460713
90.27274386
80.14135272
53.84201637
56.29464766
66.97545183
45.18923463
43.19372141
49.51116239
47.29234438
172.5331714
178.9416516
185.8823721
164.394178
171.7762367
165.5713218
184.8725624
178.206251
170.6031767
143.5682405
149.0794312
156.8191328
133.1781675
141.1976356
135.9390344
152.3475912
146.6631109
138.3777912
112.1954591
116.6550996
125.0054176
99.34655921
108.102491
103.9282015
116.9923254
112.4535637
103.3916328
78.47557954
81.72620595
90.46549762
64.9124418
73.39345254
70.45140038
79.68167327
76.46714052
67.67789735
45.16382857
47.17813897
56.44623001
37.77777757
36.1415165
41.29785515
39.49466148
148.9581888
154.5609928
160.7448053
141.6722173
148.2000222
142.7910864
159.5803258
153.7932328
147.0565647
123.4373755
128.2033916
134.9996942
114.2718619
121.2948821
116.7573438
130.875941
125.9978486
118.7352906
96.00625652
99.82491305
107.1211272
84.74426483
92.36580052
88.80134816
99.92048581
96.06936907
88.17765404
66.75926497
69.50977163
77.04964705
54.99940049
62.33600921
59.84424653
67.63247523
64.92968677
57.31949125
37.97713137
39.65408074
47.6654049
31.66681738
30.30514463
34.58072856
33.09062748
128.254743
133.1890078
138.6495917
121.8611056
127.5894287
122.8371135
137.5587352
132.4942027
126.5713915
105.9247517
110.0860992
116.0220173
97.93568333
104.058663
100.1045154
112.3777079
108.1473358
101.8076737
82.05120931
85.35653443
91.70643351
72.25846014
78.87416004
75.79628978
85.36950312
82.06291421
75.20652694
56.76451578
59.12289459
65.60658502
46.6136222
52.92725244
50.79125763
57.44903111
55.1449617
48.58638425
31.94706524
33.36098029
40.24674412
26.5582921
25.41121164
29.00215869
27.75425961
109.9322745
114.3123101
119.0910819
104.4371108
109.4247718
105.2141278
118.2299658
113.7613944
108.5939573
90.54284806
94.21115006
99.362885
83.67689451
88.98392971
85.50432682
96.27818678
92.57331176
87.06952254
69.89258579
72.78379211
78.28111136
61.46109681
67.17662422
64.49040391
72.82415839
69.95277242
64.02166049
48.13232643
50.1787724
55.73027948
39.42871784
44.8301985
42.97926824
48.73250868
46.74676627
41.12707632
26.82305059
28.03030072
33.90904228
22.23673063
21.25947755
24.31026403
23.25289636
93.58402177
97.50482784
101.6455539
88.97560927
93.27936955
89.51603443
101.1229176
97.14669578
92.67691934
76.90435617
80.16859696
84.60341951
71.1074033
75.67139175
72.57985451
82.12872316
78.85282584
74.10934804
59.18839651
61.74358412
66.46868998
52.02217871
56.92665631
54.55693429
61.88918553
59.36938681
54.26986982
40.58991335
42.38576282
47.10966704
33.19706362
37.78725653
36.16685267
41.19040428
39.46082698
34.67664358
22.41519288
23.45863333
28.43882549
18.54055901
17.69899818
20.31891778
19.41327742
78.86914897
82.4102483
85.95305468
75.1306783
78.80132684
75.40716426
85.85155297
82.28152285
78.45689095
64.69681913
67.62944521
71.40551047
59.91807394
63.80175889
61.02808326
69.57381103
66.64909352
62.60071887
49.66844581
51.95027316
55.97098848
43.68143402
47.85063704
45.73817893
52.2565958
50.02233833
45.67572516
33.92521606
35.51898685
39.50533901
27.73058939
31.59818035
30.16459403
34.59689832
33.07483984
29.03415331
18.5766624
19.48969194
23.66845895
15.34489394
14.61205313
16.88690626
16.10270626
65.50921685
68.73450484
71.71696178
62.61766943
65.700591
62.61207474
72.0947501
68.86032103
65.63442865
53.66282958
56.32357225
59.49124623
49.85619596
53.1133232
50.59960103
58.32444093
55.68709214
52.27796971
41.11097612
43.17055672
46.54500448
36.23003014
39.72733865
37.82355655
43.68204891