/*--------------------------------*- C++ -*----------------------------------*\
| =========                 |                                                 |
| \\      /  F ield         | OpenFOAM: The Open Source CFD Toolbox           |
|  \\    /   O peration     | Version:  v2012                                 |
|   \\  /    A nd           | Website:  www.openfoam.com                      |
|    \\/     M anipulation  |                                                 |
\*---------------------------------------------------------------------------*/
FoamFile
{
    version     2.0;
    format      ascii;
    class       volScalarField;
    location    "1.49";
    object      k;
}
// * * * * * * * * * * * * * * * * * * * * * * * * * * * * * * * * * * * * * //

dimensions      [0 2 -2 0 0 0 0];


internalField   nonuniform List<scalar> 
3259
(
37.00792456
37.00544073
36.9949559
36.98142556
36.97025534
36.96253456
36.9584008
36.95602602
36.90984808
36.90906697
36.90867683
36.90842134
37.0428659
37.03481986
36.99923825
36.93738156
36.88061692
36.84167905
36.79705536
36.78331916
36.73187986
36.7292083
36.72792819
36.72723622
37.12215547
37.10753854
37.04606589
36.94123376
36.8204504
36.73052791
36.65093436
36.61946599
36.55900007
36.55278247
36.54985401
36.54866206
37.29875819
37.27555842
37.17644683
37.01352649
36.83345134
36.66978444
36.53326853
36.47152651
36.39279014
36.38080616
36.3750325
36.3727868
37.68360968
37.64236479
37.46748201
37.19498172
36.91568625
36.6788316
36.45867756
36.34466568
36.23588853
36.21317161
36.20283761
36.1988226
38.5745102
38.46294486
38.03497166
37.54984465
37.09575601
36.73961652
36.43369728
36.24398989
36.0905614
36.04998525
36.03262645
36.02584242
40.54233079
40.40445333
39.07115881
38.12900373
37.38918436
36.85999537
36.44802008
36.17406147
35.95586487
35.89180341
35.8643053
35.85363266
43.41309937
40.72948108
38.95151116
37.78936579
37.03426799
36.48957851
36.13143802
35.8347634
35.74023752
35.69904869
35.68327552
48.48605636
42.74250695
39.92757312
38.26645606
37.24687612
36.55095549
36.11058729
35.72785521
35.59737076
35.53966897
35.5176591
51.92916117
44.56025221
40.88392902
38.74180685
37.46878175
36.62514904
36.10718807
35.63688212
35.46689933
35.39011079
35.36074643
53.59928737
45.89392184
41.65550857
39.15094532
37.67532771
36.70172464
36.11280842
35.56086957
35.35077453
35.25413875
35.21661657
54.31664239
46.73069153
42.19478341
39.46144029
37.84979411
36.77203633
36.12069538
35.50059994
35.25013995
35.13354532
35.08756933
49.09898481
43.82877897
52.88779449
49.56768163
54.60086496
53.19711861
55.28418691
54.71356433
55.32531674
40.51385198
43.31279107
40.28430928
53.71562573
45.76257688
47.92888693
43.23231682
41.36492274
56.94917866
59.74784929
51.61663665
45.49237304
43.83564535
55.09069999
54.66185135
53.46438844
47.12478941
45.9544804
56.80672188
55.76824577
40.67097781
57.9061591
57.61088035
59.70518722
54.08330457
46.83620892
52.88818414
58.25687639
54.77928357
56.68422267
51.43528386
57.95909073
56.59292951
58.44136754
58.10194183
51.17931514
55.57510968
55.18501164
54.13578511
57.10026755
57.3666054
56.52166877
57.0547746
53.94694427
57.5505509
56.92447453
43.27023348
45.04746739
57.94577521
40.27183803
68.10285154
49.70410691
56.54989628
54.274824
48.15191527
47.42103314
66.57238473
47.96814897
46.22442714
45.30292309
51.79303039
46.16317624
45.73687449
42.17109491
55.07659618
57.69800744
57.83918532
57.4035488
57.67008299
55.00748196
42.34746032
45.12462833
42.30996902
42.35663966
73.99806632
50.32994365
67.71110842
48.40019241
63.23550435
49.37037914
58.95538944
59.13936233
54.77825091
54.75292321
41.71094167
51.12031629
56.39885974
42.41743154
41.71623037
54.03131819
43.04004613
56.25922153
51.40175848
48.95850332
58.65307543
57.86135097
57.45066252
55.84910843
56.01347807
57.31043662
55.86784467
55.27157573
56.43165705
56.02750723
57.20358239
58.94245538
53.88035067
52.77491827
55.03939961
54.20129394
58.90553918
55.78607926
54.97312619
55.70542031
41.87696848
44.85451704
57.23751006
41.72773001
41.49327177
68.06912588
52.11041841
67.94166663
40.6512439
42.05077423
57.43613541
43.08825974
49.74920425
44.1689324
48.43799236
44.01027942
44.29480462
57.90269579
61.54795219
59.8186932
59.66154738
54.86907541
44.80599961
44.69499298
50.27710465
49.81321714
54.47447645
59.18324215
63.63202488
61.99751572
55.65824696
50.46476228
48.84594138
52.35683565
50.97080014
56.05316222
55.1890297
50.92729646
50.57077808
56.20777242
44.77417239
44.78974182
55.38883047
57.22146688
57.08012465
57.02144325
56.45186442
56.78894644
56.53450243
56.99327783
56.84868381
56.46032751
57.31855148
45.50985758
50.26404265
59.1919384
60.23560366
59.66038055
58.91886505
56.30726384
56.03758049
40.09558119
40.44435189
67.15854549
63.92412916
50.92679608
64.37513634
49.00445394
42.83036784
43.5077748
55.05534846
62.71531779
74.40883823
58.9578275
54.60660612
63.48664864
59.87992389
53.76750055
50.1760677
56.85115189
56.96728283
56.4620729
58.25678659
59.54489402
59.35795616
57.62352195
46.27918935
45.12190507
54.81058052
51.06883109
50.39538956
46.34950365
50.44774535
50.07809858
54.51933794
49.73625222
46.75777698
43.35665306
44.44938825
41.72596222
50.21557457
49.04766456
46.7614612
46.66818637
45.18592711
48.58295809
47.24244835
45.38124232
46.45863306
40.43884832
40.10814037
63.81623081
62.97730707
58.88448298
64.80513475
66.14065945
65.47232236
65.4698205
64.63634828
66.58836773
65.23874773
56.05429135
62.80436916
63.96129269
51.58617151
50.98797067
55.34765426
56.20965165
53.10600142
51.88528686
43.51044048
43.41136588
44.78225901
43.74649325
54.8061222
44.24834671
45.55806784
43.42129408
43.84010828
62.67971557
41.26549141
61.3814021
54.07028197
60.92076483
41.23237249
67.99072972
42.93595794
40.78816211
39.34666576
65.87092204
65.32227183
48.31621229
66.19124422
57.84994301
57.95444989
55.46527391
46.91614434
46.00876778
50.37357461
57.51436287
46.64171611
46.90106486
41.73564018
42.11186443
44.78795897
52.16583738
56.62885827
59.79861178
42.04390051
40.76327918
43.88255322
51.06316988
53.02882977
57.77602414
60.73143262
62.59264256
55.61444234
54.92528226
48.1888702
69.2320935
61.11650505
42.5274541
68.81385809
55.96538387
45.7948967
48.36644747
65.55911365
40.56337572
40.34965656
48.42119772
48.28270667
46.53689026
48.99154338
44.07742933
41.90050434
40.72039086
43.56927912
43.96709743
47.52375639
70.11168419
64.10487275
61.01639348
73.53617064
70.21268024
41.95666349
47.78403325
46.0861305
58.27862387
57.39580049
47.14124039
51.60736945
50.60980416
41.61179036
54.7152401
43.16848574
43.79658182
52.46148547
42.16795999
43.50844839
53.96856832
53.37790256
44.48952184
45.20082044
54.54041078
53.12631635
53.44684951
55.46704651
44.87096454
45.95714926
68.21554004
65.50328601
64.4657398
50.6466761
48.43725868
41.4292536
58.92629728
61.61162906
63.96873494
44.95654236
63.679156
56.17315048
64.1112132
62.46491943
47.11411077
45.5369243
46.45753736
52.30324302
54.66252006
55.10525354
53.96295427
54.27452191
61.01994516
60.5185175
60.89601008
59.6718265
60.04883054
60.41352257
50.30279328
47.12393538
47.44523062
46.63957531
46.84609897
50.50026071
62.90937943
61.94335291
62.01347798
61.32744786
61.65950499
62.43344889
50.57137396
48.4657348
48.83675504
47.77405808
48.11468179
50.55503254
53.3358444
53.32994506
52.55201318
52.65316528
70.68782613
71.09677079
68.17128932
52.371869
70.90037448
65.10535966
72.1446081
65.58222029
68.57640926
63.34984397
53.49977175
70.33455163
64.37544414
57.0188503
56.3568732
67.28888194
51.36563374
57.54997717
60.60999729
62.29526787
64.06175672
61.13727814
68.99936599
64.63286074
69.59560853
62.09664737
65.59749677
68.84410713
70.79250099
70.00249861
56.39041538
57.00731304
57.34179493
55.93790554
56.12557432
55.94395671
58.69288662
58.81410801
59.18101331
57.93980984
58.2803621
58.20019216
45.87660886
47.12840432
47.1262778
50.75097093
50.62876786
48.06674421
51.69846402
51.54245615
50.6213359
50.29502161
50.995046
48.23713203
46.69591562
46.56697958
47.06332409
46.89633215
47.26233733
57.8613768
52.05846988
42.45858651
59.91444155
59.73837262
59.29485984
45.59396068
57.8308609
57.03589145
42.53045827
42.75998162
49.99504828
63.58028107
62.01517276
61.97709725
61.96911245
62.00036997
63.28101648
65.23876291
65.60388752
65.37826292
69.20585768
68.98254728
69.31849069
69.31633257
65.21187084
66.92870553
68.40416921
70.17568196
67.09018716
51.49143953
49.99041929
50.39591343
49.20308032
49.59550179
51.09393343
52.49043335
51.55267972
51.93135786
50.80722958
51.19734945
52.29578761
53.17627905
52.90703323
54.36335776
46.3877478
49.17616348
44.59736868
52.37057767
52.90665962
51.80019221
52.1314901
45.09494957
43.44323856
48.66811248
46.2427357
51.98874764
52.25621107
43.60280882
60.0271047
45.15042634
46.62347767
42.43825225
43.74095592
61.0562137
59.59417955
58.71739514
48.49206856
53.19551332
61.6622142
66.66693267
37.09345418
37.041094
37.09599705
37.08981885
37.03935843
37.0833806
37.04645318
37.01435554
37.02903151
36.96030319
36.95497134
36.9352901
36.85213506
36.89377656
36.82914134
36.76884789
36.85018735
37.23600668
37.1191566
37.24172056
37.23467551
37.11516022
37.22300311
37.15941266
37.06583268
37.13136542
37.02638982
36.96976544
36.98693482
36.86494606
36.84954395
36.82527691
36.71070178
36.74814131
37.54904785
37.29252952
37.56295289
37.55760936
37.28926615
37.53632703
37.41785541
37.20940398
37.37205917
37.20047507
37.05760048
37.13651049
36.94651707
36.87797579
36.88667156
36.72321022
36.70839181
38.25255925
37.66633919
38.27879577
38.26837128
37.6643233
38.19219447
37.94905685
37.52730209
37.85735876
37.54739912
37.26733736
37.44080704
37.13444778
36.98254552
37.04086373
36.79296093
36.73465658
40.17727233
38.51304714
40.20854346
39.97900842
38.48235409
39.60633822
38.98242385
38.15381573
38.76225751
38.14654995
37.67278313
37.95894356
37.45193701
37.20149405
37.30489514
36.9287973
36.8199319
41.82304335
41.82983933
40.54905373
41.23255859
40.53983458
40.03981657
40.26518133
39.04603461
38.34599784
38.71916458
37.90713688
37.5540727
37.68324554
37.13213427
36.9740295
45.38239734
43.92301693
42.5152796
42.24582452
40.17386677
39.32071023
39.6611277
38.45882067
38.03685527
38.14214555
37.38701904
37.19290933
50.03027819
47.19619389
46.00145575
44.15642545
41.31975047
40.48259013
40.6259209
39.03518196
38.60986398
38.624098
37.6600202
37.4558857
52.72135355
49.52648243
48.78494874
45.62530227
42.29043027
41.6061479
41.46117094
39.54325736
39.17952741
39.05501398
37.91481383
37.72615568
53.96134872
50.8518002
50.48209201
46.59236274
42.97561908
42.50375223
42.06496588
39.94117621
39.66553384
39.39378799
38.12864246
37.97173274
54.48061296
52.01520196
51.87570692
43.11779625
40.01958058
38.17335598
48.28059591
49.87875504
51.15253287
44.15297733
45.09838972
44.57748663
52.5359944
54.80556644
55.26294738
51.54512683
52.60151543
50.33782832
54.45667221
56.22725296
56.43449693
55.38040581
55.70749286
53.47849097
55.21396917
56.24117777
56.28499404
55.98625638
56.04737354
54.82570316
56.31429834
56.35621679
55.38283256
55.76718844
55.73289592
57.55429484
41.8621439
57.96190363
55.04581784
42.67261444
42.85517607
43.57012389
40.45070629
41.75772845
41.45162268
53.08843985
53.97890112
54.66726938
46.61385359
47.5894697
46.83817157
45.64266462
44.26598561
46.00216532
42.60112476
43.67204228
44.42835587
42.15582264
42.90943404
41.98117622
57.24145721
55.08067314
54.60668043
60.55081396
60.38745162
59.74539953
48.49877513
47.52956575
50.46351025
44.97136824
46.4680281
47.04922805
45.15183963
45.83731582
44.4272994
55.00187899
52.68478609
52.90622035
51.33543903
51.16946973
54.56459833
50.29627086
49.75663235
52.93058625
46.76872134
48.44511689
48.80881824
47.5672477
48.03564345
46.39219172
56.67337404
54.33313324
54.71642004
49.83054997
50.9095789
55.93931476
39.86965852
39.9789175
41.31336657
57.80455108
53.58826459
54.94931444
56.78289952
56.93974845
57.67135905
59.60281032
60.81450737
60.73595287
55.32449274
55.99972874
54.65892482
47.96740724
49.41381086
47.69655501
53.49851879
51.80278263
51.06787408
55.50036712
54.99026755
57.46456171
54.90507273
51.72188868
51.52097524
54.20021566
53.76173061
56.45528789
53.99576046
54.63473678
51.87152689
57.617716
57.79112321
57.74274299
58.09991841
58.10368902
56.81827742
58.81612317
56.35281524
55.93597148
57.68956892
57.54712942
58.52258421
50.51217301
52.9102035
53.76092863
55.37125517
48.10729124
49.44652861
53.06219371
53.18040768
55.25321347
56.05888905
56.19764287
54.31198918
57.13985847
57.97056898
57.9890599
57.11281579
57.08710549
57.25284363
56.40439544
58.07977124
58.09251488
58.01139075
58.02616633
56.52640468
53.72314753
55.78618726
56.00917494
57.47578569
56.42869048
56.61576508
54.97198035
55.26162301
57.04212228
55.33854618
39.8033463
51.21073159
56.26846728
52.82254634
51.71862247
51.02227264
54.03802195
47.92982088
49.63654867
49.84606301
49.12151603
49.39862796
47.70361162
46.99705684
40.38110338
40.92559403
43.01160565
43.39188023
46.83750641
47.89318725
45.94236542
44.383448
50.24823953
49.50383462
51.0282715
45.29796984
45.92105348
47.44319959
45.16440302
42.05518704
42.44414538
40.89837468
40.90877772
42.48583792
56.17268762
56.21423451
55.16262373
57.77747976
57.34849225
57.07805548
57.35287595
57.3494301
57.78791226
57.52210036
57.10578548
57.11177192
57.08802412
57.102692
57.56064095
54.91157176
56.08963687
56.13763809
43.53180787
44.4688725
44.79574716
45.37246301
42.26395207
43.40693123
43.12878398
43.70486226
43.5493035
42.27106708
52.30996163
55.67896472
51.75240924
54.60128765
49.58487974
47.4619428
59.46512701
57.64067347
62.60597313
47.81725153
49.65454092
51.62988741
58.43673727
58.21904012
58.78468922
59.27500998
59.06020122
58.86406834
52.13083085
52.14354974
54.78345887
54.69731982
51.84950009
52.06007025
53.53115575
53.97147034
56.54072589
42.11925544
42.17081772
42.05292645
44.37214027
43.96072721
41.63618865
42.01633983
42.03715218
43.81695462
56.11988107
51.29193007
51.75273857
50.63381864
45.03776301
46.08023542
41.34567205
42.17258261
49.8057927
59.78677557
60.06617577
58.22149573
57.01331697
58.95183705
59.41616316
53.02674024
52.80838605
55.68004794
56.13929321
53.33663888
53.21617122
58.06618917
58.02444381
57.54074939
55.68425778
56.99503848
57.12675652
56.64175074
56.8429182
55.49120209
56.30769854
57.43309155
57.5106749
57.24210962
57.34511373
56.17877199
56.91564793
58.10391448
58.08884504
57.01812165
56.68645964
58.88610591
53.53649562
54.96955114
55.30927427
54.17230136
54.58284201
53.16694407
54.77847573
56.18732574
56.43946241
55.6405103
55.91417776
54.50413562
58.65025588
57.52036241
57.25342641
46.40938154
47.59946272
56.22656015
55.6284556
53.76551221
53.90343715
42.87081465
51.34601342
51.86506184
52.6148785
52.0479595
43.33949041
57.13787522
55.53191724
55.78371341
41.51868924
41.10291649
40.95817559
44.79013131
43.55545391
41.35076175
47.11389312
40.99732213
46.73569808
44.79289783
44.24976479
45.5758999
45.77504537
45.16101476
43.95770489
48.84221367
45.69473905
46.97709027
47.55016955
49.43842123
44.26644625
45.42845255
45.04078342
45.84462915
45.69186245
44.36035544
56.21271193
55.5743991
57.55653405
59.71585289
60.12050763
59.93383192
52.27075244
52.46242487
54.90982114
44.6277393
47.51282404
47.24232483
48.43104799
47.93845947
44.61858655
54.49198245
51.0458059
51.02465603
60.73292612
60.83071232
59.42316985
53.22546236
52.50060647
54.57449872
49.94122795
51.0131787
51.61497836
49.75196908
50.40139376
49.40278652
51.91800772
53.24439937
53.72403442
52.18724828
52.73269775
51.45409495
57.13005444
54.45223839
53.85547732
52.14168175
51.93019604
55.04587543
56.27427084
53.45251282
53.19001905
44.77904783
49.05793669
48.80580733
49.44897339
49.2601354
44.78020097
55.32726448
53.26549548
53.35825103
57.93695745
57.95124192
57.17448454
57.06475053
57.84637451
57.84299263
57.84029639
57.84693513
57.04833522
58.05204059
58.06675046
56.40650536
56.71190978
57.6822948
57.72384598
57.57691838
57.63432395
56.63334822
56.95090692
57.81149654
57.82968022
57.75897695
57.78890134
56.90820645
56.49599091
58.02937704
58.04346927
56.01471147
56.23429836
57.40469358
46.64396422
53.63751767
53.22113808
54.53029899
54.10171047
49.42263117
54.49918334
58.11713862
65.6016946
40.1685735
41.1894644
40.71206291
42.93674418
41.83627191
40.27310648
53.68584001
46.50282614
41.27780317
41.72292587
40.85072439
41.03982171
44.51061574
43.11455126
40.9694026
41.092184
57.2099993
60.37248537
62.65037844
57.19083124
59.39859283
56.3438577
63.79920219
65.59345421
61.42379265
52.17955938
54.20646085
56.13002225
51.52654415
52.97973102
51.41129371
58.87504806
55.29685082
53.97329313
58.55129066
57.61978854
56.98132253
59.61805575
59.42759732
59.43354607
47.15356313
47.13192983
45.46023988
54.80071792
52.14756465
52.18556784
51.18389899
51.50466658
54.60846766
42.59845865
42.40235599
41.90475701
49.87773189
45.85570078
46.346255
44.75928415
45.28791439
49.43009643
46.16308105
42.77207788
42.95349032
42.6696829
42.6753342
45.59737034
48.18164109
43.84850978
44.24293048
43.24216243
43.49912717
47.64850471
44.62143253
42.1728329
42.31674875
40.79685489
41.37413944
49.24357172
40.32652091
40.07313534
39.96601768
40.38857941
40.18521094
40.15277055
58.56667325
60.33366538
60.54311226
57.81741466
58.41129103
56.53284203
63.45261835
60.99333332
60.39709156
61.8581866
61.50055607
63.91642149
55.50895978
52.58670377
52.36222512
53.22670646
53.33345985
56.21040782
43.43817609
43.9472229
43.54688028
45.16359036
44.58998187
43.41676616
44.45542895
42.8616851
42.74035416
43.19989008
43.00862423
44.07311011
41.49442503
41.26087223
41.33438396
41.23983609
42.44897839
41.83790246
42.24750226
41.39016715
41.51316643
40.24901039
40.73087922
41.42775232
39.64776849
40.16268939
39.77543185
50.01770769
50.17521808
48.48076669
57.9204706
57.36492703
57.35765656
57.39818321
57.37581815
57.91173359
46.78653661
48.22711798
48.64098068
46.97171179
47.59790021
46.79521624
56.99064815
49.35281835
49.42286269
50.5858424
54.41484415
63.90336612
46.76497435
48.26053798
47.78339655
48.89142559
48.7590711
46.82314908
42.85951697
42.60649986
42.03452443
44.066632
43.16763614
43.30796763
52.69488253
53.3289537
52.76006795
57.79234221
55.3181307
54.43304826
57.03926631
56.13130871
58.73690346
41.57617958
40.01322444
40.14905222
39.93431882
39.94896487
41.09264474
42.30006668
40.11491074
40.39214155
51.75088284
55.25675583
54.90665247
55.85674367
55.56640635
52.41497745
61.57723957
58.62372727
57.81467926
59.86707502
59.21489277
62.00923295
55.0637833
56.61056098
57.23005013
40.42149734
40.42223609
40.97882025
40.81835966
41.55785139
41.35728998
40.35316954
47.21386254
44.20273816
43.9954679
47.70106534
48.4334328
49.09811828
49.83454118
48.6093599
47.89070187
41.34696629
41.63707968
44.61302547
41.32620786
40.63713025
40.73060446
40.68827298
40.64510515
40.94718833
43.65733137
44.04437021
43.95945295
44.52640076
44.40111604
43.78272594
46.2407719
45.05402311
45.74728665
51.28154827
48.01321303
48.36220959
46.92455133
47.39293122
50.91996525
41.59458096
43.36454289
43.01798536
53.46763273
53.60333706
55.5364742
45.07918927
50.03485579
49.70546763
50.83770742
50.46361069
45.48684948
45.75394093
46.74092489
46.33882269
47.32487876
47.11141655
46.13456383
50.7692339
48.22483565
49.17100525
37.02527732
37.02359159
37.00733049
37.01820792
37.00922538
37.0022249
36.99124604
36.96974294
36.98779272
36.94764955
36.92891419
36.97540832
36.91312699
36.90051751
36.96601797
36.89138687
36.88276181
36.96024803
36.87666703
36.87240919
36.95706935
37.05713745
37.05733249
37.04299876
37.04783312
37.04088997
37.03005495
37.00673973
36.99283829
36.99071703
36.93233461
36.91105163
36.92236018
36.85995295
36.84460318
36.86978564
36.75526014
36.73679775
36.80653905
36.72131934
36.70951844
36.78925632
36.70125687
36.69701221
36.77922684
37.15450846
37.15526552
37.12257236
37.13850794
37.12540704
37.09636885
37.06790547
37.04235221
37.02310226
36.95157701
36.9178692
36.91039301
36.81838516
36.78529785
36.7931868
36.67968449
36.62176877
36.67502717
36.58730875
36.56247893
36.63303339
36.54485735
36.53458164
36.60997619
37.37152455
37.37406109
37.30069073
37.34971882
37.32413067
37.25938056
37.22876719
37.18839649
37.1397518
37.04696449
36.9963941
36.9682551
36.84582393
36.79851253
36.79000666
36.67273923
36.55456142
36.5822753
36.48932168
36.44101383
36.49791376
36.40692935
36.38555833
36.45280082
37.84792493
37.85201805
37.6906631
37.80610825
37.74121001
37.62371841
37.5752916
37.50384546
37.40456233
37.26471782
37.18342237
37.12280986
36.95090086
36.88012525
36.85210191
36.72104273
36.55279386
36.54797162
36.43856601
36.35306419
36.39209706
36.2923814
36.25188766
36.31198273
38.96576182
38.9747289
38.58541205
38.75465431
38.61578343
38.39809797
38.24554426
38.10162403
37.91603153
37.67060514
37.53339259
37.42946325
37.15889662
37.04851401
36.99736181
36.82569649
36.58789357
36.56510496
36.43785545
36.30554104
36.32356768
36.20630779
36.13651933
36.18847096
40.90754482
40.92394338
40.62082164
39.43019006
39.11585655
38.8160011
38.30839513
38.07750491
37.92439872
37.48186366
37.3145298
37.23809977
36.98652878
36.6599997
36.61965511
36.46627429
36.29596862
36.29544551
36.1498671
36.04300027
36.08453824
44.04886573
43.71343919
43.16332762
41.2269217
40.60065986
40.19704509
39.17346806
38.8031424
38.61595617
37.9045132
37.66359869
37.56740468
37.19130439
36.76611454
36.70996819
36.51822668
36.30817999
36.29987219
36.1185957
35.97072655
36.00318746
49.03837619
48.04372215
47.54880735
43.24104424
42.27438537
41.86091944
40.15368999
39.62601098
39.43484721
38.38660616
38.06324175
37.96252128
37.41398075
36.89191664
36.82807571
36.58728434
36.33326329
36.31927828
36.10675392
35.91757688
35.94215387
52.22027254
51.06123925
50.76422319
44.95488033
43.74571471
43.40931564
41.06297013
40.39843039
40.24343103
38.8518266
38.45200488
38.35793322
37.62705936
37.02071718
36.95745489
36.6638891
36.36669756
36.34883228
36.10984845
35.88154577
35.89937899
53.73872839
52.65571735
52.50158156
46.16595163
44.82342649
44.59037164
41.78473655
41.02020525
40.91029543
39.24158551
38.78328513
38.70355595
37.81013928
37.14023549
37.08264125
36.73837159
36.40323784
36.38403479
36.11842857
35.85841407
35.87147714
54.38656412
53.39152167
53.34075993
46.90787092
45.51881498
45.35623923
42.2820855
41.4478081
41.37834187
39.50853356
39.01395872
38.97270008
37.19349828
36.41948476
35.85222658
40.92751565
47.04084385
46.50226195
47.2965676
50.45689334
50.11370638
51.27006924
52.36012264
52.17938641
53.29936286
57.87285822
57.52198894
57.61507816
57.15215823
56.89894765
58.03388054
57.83082546
58.24513504
58.28884029
57.55003491
57.57475975
56.65668979
58.58955109
57.55077361
57.34006551
58.35483743
58.40107235
58.24173023
57.89471667
57.90034574
57.33405085
56.472286
57.49563398
57.51163738
57.68779944
53.25827242
53.19458813
54.19382963
46.04736457
45.50566307
45.03480607
57.73644552
57.88246474
57.87027988
57.84539115
57.84596822
57.81937913
57.44220164
57.88096124
57.88499723
57.86861909
57.86769892
57.63324991
42.19964945
42.60819951
42.63264892
42.69583628
42.69569747
42.3427872
50.61129342
48.93104582
47.72066928
57.91167994
57.96426232
57.39614563
57.10845083
57.80297902
57.85377322
58.32104735
58.22714917
58.95730719
58.84061054
58.45768836
58.3947944
54.05818209
54.14256327
55.85383592
42.11450347
45.46661809
45.01121177
48.5129091
48.02918768
44.35241107
55.02944243
54.73785781
55.25508578
56.42127309
55.5986401
55.26793399
57.45950246
57.4556008
56.43709698
56.47125634
57.46691121
57.46149494
45.92857343
49.44162075
48.94690088
42.71533265
42.23140668
42.38026805
57.87321371
57.84571462
57.84509215
55.41846806
56.38714524
56.42254367
41.86010334
42.44452114
42.30188652
44.43743584
44.04176475
44.14635718
57.71796535
57.07640021
57.21302167
47.0983499
47.74511366
47.11887888
47.16192748
46.27792965
46.46304378
37.07245862
37.05530516
37.09634059
37.07475904
37.07452713
37.06900727
37.0732271
37.09460575
37.04160102
37.05594651
37.05258216
37.07334461
37.05501475
37.06361078
37.03191297
37.0456332
37.06207651
37.02253254
37.03274113
37.02133622
37.0086088
36.99836793
37.01633131
36.95497344
36.97835064
36.98635181
36.97072532
36.97325688
36.9528034
36.90683173
36.90594209
36.93269155
36.86107148
36.88406593
36.88006338
36.90681224
36.89346986
36.87503766
36.80601824
36.82321082
36.84253693
36.79243002
36.80789228
36.78698598
36.85905821
36.8321765
36.81989972
37.18902899
37.150711
37.24338173
37.19426125
37.1931571
37.18520327
37.19211971
37.24142506
37.12056849
37.15322079
37.14737774
37.20533466
37.16102791
37.17483437
37.12193575
37.14393438
37.18419433
37.08330005
37.10978086
37.09012225
37.09945885
37.06770474
37.09656035
37.00197584
37.03634467
37.06448252
36.99813977
37.01445823
36.98335759
36.94612253
36.92961962
36.96657836
36.85592279
36.89301275
36.90557015
36.88120281
36.88501088
36.85128422
36.78622863
36.78413011
36.82045785
36.7186288
36.74947756
36.74745711
36.76979803
36.75718963
36.73174639
37.44415342
37.36232745
37.56656022
37.45776912
37.45392295
37.44200624
37.45448293
37.56474803
37.29797899
37.37192114
37.36471888
37.49602242
37.40633248
37.4237122
37.33980242
37.37832638
37.45728103
37.23778708
37.29542219
37.26419218
37.31952714
37.24836316
37.29591154
37.14399082
37.19770633
37.2619331
37.10015008
37.14402095
37.09636441
37.07193582
37.03136907
37.08831929
36.91772584
36.9740595
37.00848188
36.92311357
36.94578108
36.89512347
36.82942721
36.81163
36.86347233
36.71468752
36.76232005
36.77508125
36.74888186
36.75361945
36.71023286
37.99771743
37.82803304
38.28553147
38.0417449
38.03162374
37.98888247
38.02837177
38.28449108
37.68524504
37.8498616
37.84335773
38.09311898
37.93983505
37.96932739
37.78943113
37.87197205
38.02580439
37.58289155
37.69015928
37.63793719
37.75754966
37.61944033
37.70580196
37.44026798
37.53089162
37.65355961
37.33795131
37.42609315
37.34576693
37.33574821
37.2545078
37.34684553
37.07615804
37.16431583
37.23331972
37.05210969
37.10349667
37.02540616
36.95265807
36.9134646
36.99237082
36.76935174
36.83930959
36.870013
36.79194677
36.81331425
36.75040014
39.38315536
38.92502319
40.22173197
39.47693154
39.47786503
39.25557043
39.3872202
40.10368421
38.55230174
38.97166667
38.919752
39.38663746
39.06689884
39.21386684
38.66086888
38.84861422
39.20068749
38.27763343
38.50701737
38.38296455
38.54935442
38.31033263
38.4831382
37.97247633
38.13975791
38.34301967
37.79538311
37.95592045
37.81165176
37.77957117
37.65242911
37.80885317
37.36009671
37.50271431
37.61004743
37.31354074
37.40141514
37.27640871
37.16899341
37.10471598
37.2269948
36.88769094
36.99192183
37.04365284
36.90573951
36.94593299
36.85168129
41.83214501
41.3989968
41.37459243
41.3076653
41.3624683
41.88065985
40.60636875
40.96795229
40.95566286
39.81122004
39.44728691
39.82248757
38.79926595
39.10877507
39.4075924
38.57550057
38.82557375
38.55705091
38.42277767
38.24955311
38.51413346
37.78184762
38.00538023
38.1530687
37.73257739
37.86327338
37.66484066
37.48065908
37.39353933
37.57810547
37.07658062
37.22687995
37.29713051
37.10000726
37.16176282
37.02329674
44.83608663
44.25385438
44.65744741
43.37392243
43.80459155
44.30628433
41.44219977
41.02007869
41.72868313
39.89466907
40.41733556
40.76121575
39.73212026
40.06127165
39.59013572
39.21154766
39.02165757
39.43420739
38.32170228
38.6519556
38.81367207
38.31157915
38.47162399
38.17317735
37.86003991
37.76391496
38.02672747
37.32189263
37.5298483
37.60919671
37.36962018
37.44825969
37.25574686
48.95210584
48.502933
49.54114224
46.79765641
47.58665999
48.00041594
46.71813724
47.16756731
46.44766633
43.05207886
42.67215508
43.70311943
41.06434809
41.80570798
42.11972448
41.11927546
41.4599743
40.76058431
40.02575387
39.84971288
40.42022288
38.90183818
39.34559786
39.50031472
38.99733807
39.16240331
38.75127172
38.26101074
38.16554047
38.51045562
37.59409451
37.86134721
37.94105909
37.69343035
37.77698138
37.52475914
51.57546542
51.32100442
52.47917489
49.30460289
50.25458557
50.51029196
49.71237956
50.00461818
49.04533277
44.33949507
44.05152151
45.2922243
42.08429829
42.99726347
43.239475
42.43815999
42.71897201
41.83373865
40.73467901
40.5936104
41.28982316
39.43472939
39.9783512
40.09886679
39.67696358
39.81789558
39.30431826
38.62348085
38.53916468
38.95687233
37.85403759
38.17335643
38.24509444
38.02103446
38.10055934
37.79309369
52.89897246
52.76425793
53.84164632
45.21731359
45.02741447
46.37120178
42.85640847
43.87169776
44.02015214
43.47563597
43.66458316
42.65910969
41.26913606
41.16213957
41.95750051
39.85350833
40.46515634
40.56352258
40.25031755
40.34507299
39.75706305
38.91371518
38.84607408
39.31651619
38.07714936
38.43489889
38.49414253
38.31250075
38.38156766
38.03095141
44.16835954
44.30128671
43.23078128
40.65533176
40.71808343
40.0739047
38.54512083
38.58303374
38.2115024
50.31647143
49.47688008
49.01447232
50.21416797
49.80126683
50.74594506
54.97555827
53.85317548
53.66786221
54.18231158
54.02086729
55.11596272
51.91652106
50.90610428
50.53145091
51.53974789
51.21103548
52.26942302
56.26207202
55.49582892
55.45448673
55.50568475
54.46743383
54.32963345
54.71460167
54.59603754
55.60139282
41.31311884
40.9139635
40.8662691
40.43505325
41.64104781
41.15402517
41.18946793
40.95888052
41.04413176
41.53817982
45.15165303
45.78359627
46.26276967
44.80189341
45.300749
44.79428671
46.69913057
45.96096539
45.38997692
48.19321318
49.08606554
49.41969104
48.37757966
48.75135277
47.88130917
50.89552027
49.75840041
49.36291202
50.14703072
51.11386223
51.30262945
50.71910362
50.94026371
49.94170919
53.13097685
52.00470391
51.78912498
50.18638005
53.18924142
53.0253706
53.55842152
53.39798532
50.59186815
57.31971902
57.43654984
57.83363418
54.08515357
56.35648409
56.10998582
56.76985197
56.57151296
54.55163999
48.45265625
47.86103552
47.3201851
48.68425537
48.18899296
48.94872597
57.76569514
56.67862932
56.38740924
54.22844791
53.07392293
52.83990138
53.47921257
53.26530146
54.42853744
58.13894037
58.17142921
57.70556071
57.82903675
58.11397302
58.1672813
58.05945489
58.09895498
57.77554986
56.74314958
57.62053074
57.65428058
57.87610154
57.70445397
58.70957245
57.64457524
57.95285052
58.01748007
57.75853274