/*--------------------------------*- C++ -*----------------------------------*\
| =========                 |                                                 |
| \\      /  F ield         | OpenFOAM: The Open Source CFD Toolbox           |
|  \\    /   O peration     | Version:  v2012                                 |
|   \\  /    A nd           | Website:  www.openfoam.com                      |
|    \\/     M anipulation  |                                                 |
\*---------------------------------------------------------------------------*/
FoamFile
{
    version     2.0;
    format      ascii;
    class       surfaceScalarField;
    location    "0.98";
    object      phi;
}
// * * * * * * * * * * * * * * * * * * * * * * * * * * * * * * * * * * * * * //

dimensions      [0 3 -1 0 0 0 0];
oriented        oriented;


internalField   nonuniform List<scalar> 
6430
(
-0.007342472395
0.9311318652
-0.01488330343
0.9306493299
-0.02256895891
0.9295611621
-0.007675379707
0.9278473868
-0.02308995746
-0.4587026031
0.4598462208
-0.008818997423
-0.4566157594
0.01008824381
0.4580487351
-0.01152121953
-0.4493374004
0.01298103377
0.4485359855
-0.005835753854
-0.006251467715
-0.2055309854
0.004385099893
0.2047847249
-0.003504664407
-0.1953697971
0.003438667403
0.1956334705
-0.003524084577
-0.2034490062
0.004822850169
0.2031885595
-0.004448335898
-0.2174830218
0.007613016314
0.2185658944
-0.004333793151
-0.004362095786
-0.05283297779
0.00305466657
0.05290670795
-0.003128396721
-0.003817299331
0.9349491646
-0.007753451514
0.9345854821
-0.01193366626
0.9337413768
-0.008160185099
0.9324183285
-0.008344422802
-0.4630256698
0.4642369556
-0.009371470922
-0.4612717933
0.01072732949
0.4627399367
-0.01219547291
-0.4491709815
0.01380095533
0.452300147
-0.008133911813
-0.008691068495
-0.2036870476
0.00889849316
0.2040159391
-0.009087142645
-0.1952537206
0.009012203909
0.1952730267
-0.008848930357
-0.206627153
0.008291287916
0.2065958211
-0.008150914685
-0.222399944
0.008336371934
0.2235736348
-0.004752636373
-0.004757426347
-0.05492119361
0.006992013058
0.1102728513
-0.05487627706
-0.003727560314
-0.003739833363
-0.003981002554
0.9389301671
-0.008077511181
0.9386819908
-0.01240758258
0.9380714482
-0.008490100753
0.9371078974
-0.008607050765
-0.4655337486
0.4668174787
-0.00977383089
-0.4642233765
0.01116513609
0.4657092287
-0.01265098828
-0.4570831124
0.01425693051
0.4623829106
-0.009775336143
-0.009745650137
-0.2069664235
0.01340948376
0.2086652408
-0.01499066597
-0.1961906798
0.01835150142
0.1969267745
-0.01891598286
-0.2051100682
0.01867645697
0.2044744092
-0.01791615342
-0.2235112181
0.01359625465
0.2215082625
-0.01156745494
-0.1134794698
0.01241763607
0.226584206
-0.01228995146
-0.1132324208
-0.004037124131
0.9429672913
-0.008177766081
0.9428226327
-0.01252391062
0.9424175928
-0.008580412588
0.9417721823
-0.008607782848
-0.4680975372
0.4693812581
-0.009864133527
-0.467176413
0.01123062497
0.4686168389
-0.01267105093
-0.4662703073
0.01420978169
0.4679689963
-0.008002805147
-0.007905643679
-0.2160404046
0.01421150822
0.219245396
-0.01734571967
-0.2011258872
0.02545827572
0.2033242371
-0.02751672676
-0.2037292431
0.03114958442
0.2041792712
-0.031470152
-0.2167675222
0.03015061247
0.2158910763
-0.02920561277
-0.2221322511
0.0262713508
0.2198355571
-0.02396055306
-0.003998081097
0.9469653724
-0.008083817417
0.9469083691
-0.01233934215
0.9466731175
-0.008463131278
0.9462895039
-0.008393532473
-0.4706179459
0.4718505049
-0.009695690276
-0.4700134333
0.01099218366
0.4713622354
-0.01234098578
-0.4695410803
0.01376025526
0.4710333095
-0.007671071849
-0.007581412505
-0.2307445207
0.008525958682
0.2342672249
-0.01203951538
-0.2125117801
0.02457070381
0.2163747777
-0.02835008026
-0.2083483306
0.03756963742
0.2107011112
-0.03982041496
-0.2159498392
0.04419408313
0.2168712077
-0.04504495298
-0.2137517702
0.04383868302
0.2126276564
-0.04269647214
-0.003882380711
0.9508477531
-0.007834545111
0.9508605335
-0.0119160485
0.9507546209
-0.008170660427
0.9505693566
-0.00802524082
-0.4730207464
0.4741730853
-0.009322999315
-0.4726516033
0.01052214222
0.4738824164
-0.01175295526
-0.4724386926
0.01302744754
0.4737549666
-0.007231185236
-0.007112536263
-0.2360685584
0.007919647984
0.2364182227
-0.00826931225
-0.2296215213
0.01144892161
0.2343063483
-0.01611887066
-0.220216988
0.02905119292
0.2239926599
-0.03277715873
-0.2217965561
0.0417263987
0.2239371185
-0.04382355595
-0.2132822424
0.04475367775
0.2145676898
-0.04602892061
-0.003708019048
0.9545557722
-0.007467398831
0.9546199133
-0.01131568964
0.9546029117
-0.007748198337
0.9545536052
-0.007551739872
-0.4752578903
0.476316352
-0.00880666004
-0.4750471782
0.009895946716
0.4761500212
-0.01099878968
-0.4749838823
0.01212312518
0.4761270206
-0.006698688318
-0.006567575173
-0.2373773218
0.007285598283
0.2376693814
-0.007577657805
-0.2369391446
0.008450287744
0.2372266736
-0.008737816663
-0.2357828716
0.009577441565
0.2364184197
-0.01021216433
-0.2309999441
0.01840710046
0.2334243964
-0.02082266063
-0.2193371446
0.02478274546
0.2207953223
-0.02623871566
-0.003492661067
0.9580484333
-0.007019574807
0.958146827
-0.01059887174
0.9581822087
-0.007242035573
0.9582134062
-0.007016637146
-0.4773058668
0.4782658928
-0.008202061574
-0.4771864748
0.009179103629
0.478162729
-0.01015535781
-0.4771860916
0.01113557194
0.4781658151
-0.006116439316
-0.00599885607
-0.2384678578
0.006621502668
0.2387107982
-0.00686444314
-0.2379959226
0.007573952587
0.2382245016
-0.007802531572
-0.2371291432
0.00845745502
0.2373354504
-0.008663762249
-0.2351279104
0.009158693035
0.2351758233
-0.009206605953
-0.2231597417
0.009437574244
0.2235281846
-0.009806017174
-0.003252646728
0.96130108
-0.006524825431
0.9614190057
-0.009818632419
0.9614760157
-0.006690446576
0.9615401153
-0.00645489498
-0.4791576141
0.4800226178
-0.007555450274
-0.4790763383
0.008425023359
0.479934501
-0.009283186071
-0.4790712618
0.01013346719
0.4799075376
-0.005534441717
-0.005435301258
-0.2393744447
0.005969035899
0.239576566
-0.0061711572
-0.2388384507
0.006750436626
0.2390217602
-0.006933746142
-0.2378777658
0.007450401619
0.2380364356
-0.007609071405
-0.2352788921
0.007963236999
0.2353028096
-0.007987154563
-0.224465794
0.008232522675
0.2247321646
-0.008498893278
-0.003001047086
0.9643021271
-0.006009553606
0.9644275122
-0.009015741015
0.9644822031
-0.006125657388
0.9645422676
-0.005892235945
-0.4808194723
0.4815935243
-0.006899709417
-0.480735552
0.007669376663
0.4814868297
-0.008420654357
-0.4806793742
0.00915647296
0.4813915297
-0.004976085242
-0.004892543133
-0.2401292731
0.005349815471
0.2402979197
-0.005518462025
-0.2395167522
0.005994484871
0.2396653228
-0.006143055475
-0.2384575413
0.006556440036
0.2385818477
-0.006680746374
-0.2353536122
0.006940051442
0.2353653889
-0.006951828185
-0.2254183605
0.007199882503
0.2256142248
-0.007395746846
-0.002749156196
0.9670512833
-0.005496265174
0.9671746212
-0.008223311335
0.9672092492
-0.005571773021
0.9672380165
-0.00534728716
-0.4823021816
0.4829920424
-0.006261633908
-0.4821874912
0.006941135644
0.4828443486
-0.007597993097
-0.4820508261
0.008235397115
0.4826610712
-0.004461784854
-0.004383857376
-0.2407596894
0.004778776543
0.2409008751
-0.004919962319
-0.2400687361
0.005314027256
0.2401904774
-0.005435768578
-0.2389143793
0.005771141208
0.2390132302
-0.005869992077
-0.2353912115
0.006063028678
0.2353977187
-0.00606953586
-0.2261198422
0.006316959585
0.2262643261
-0.006461443413
-0.002504711225
0.9695559945
-0.005000164745
0.9696700748
-0.007463058092
0.9696721426
-0.005043105648
0.9696505944
-0.00483253035
-0.4836204779
0.4842337422
-0.005656369986
-0.4834567123
0.006255518954
0.4840308563
-0.006829662942
-0.4832262998
0.007381796898
0.4837501561
-0.003989325757
-0.00391632747
-0.2412885172
0.004259693453
0.2414074496
-0.004378625891
-0.2405227786
0.004707562908
0.2406236264
-0.004808410688
-0.2392791765
0.005083919616
0.2393586758
-0.005163418882
-0.2354143195
0.005309518992
0.2354194557
-0.005314655239
-0.2266377032
0.005559171087
0.2267445632
-0.005666031077
-0.002273434357
0.9718294289
-0.004532359757
0.9719290001
-0.006750458473
0.9718902413
-0.004549444383
0.9718059993
-0.00435641905
-0.4847902898
0.4853348331
-0.005093987701
-0.4845662345
0.005622231735
0.4850685402
-0.006124537535
-0.484236084
0.00660366447
0.4846871306
-0.003560195992
-0.003494515078
-0.2417348048
0.003791718053
0.2418355776
-0.003892490912
-0.2409002359
0.00416923156
0.2409846285
-0.004253624106
-0.2395734983
0.004482301309
0.2396380211
-0.004546824076
-0.2354354177
0.004659350952
0.2354412225
-0.004665155753
-0.2270210806
0.004905138189
0.2271003818
-0.004984439366
-0.002058678822
0.9738881077
-0.004099193735
0.9739695151
-0.006093875016
0.9738849226
-0.004096620848
0.9737306642
-0.003921919006
-0.4858277234
0.486311293
-0.004580190466
-0.4855373177
0.00504637818
0.4859775809
-0.00548664141
-0.4851062884
0.005903571944
0.4854960532
-0.003175115085
-0.003118221677
-0.2421137781
0.003374179763
0.242199678
-0.003460079663
-0.2412172455
0.003694733868
0.241288535
-0.003766023348
-0.2398131427
0.003957487984
0.2398659567
-0.004010301895
-0.2354609415
0.004098662878
0.2354684051
-0.004106126538
-0.2273060253
0.004340743947
0.2273651257
-0.004399844402
-0.0018631515
0.9757512592
-0.003705719302
0.9758120829
-0.005499833763
0.975679037
-0.003687623946
0.9754510707
-0.003532616373
-0.4867481566
0.4871781807
-0.004117647971
-0.4863888975
0.004529932774
0.4867758623
-0.004916897546
-0.4858589793
0.005281025639
0.4861972629
-0.002834619121
-0.002784690142
-0.2424376013
0.00300659376
0.2425113213
-0.003080313741
-0.2414859485
0.003280939238
0.2415467138
-0.003341704537
-0.24000994
0.003503344816
0.2400535534
-0.003546958237
-0.2354937386
0.003617830174
0.2355031771
-0.003627268594
-0.2275188581
0.003856233649
0.2275631937
-0.00390056931
-0.001687947041
0.9774392062
-0.003353805519
0.9774779414
-0.004970257493
0.977295489
-0.00332343
0.9769926425
-0.003188399238
-0.4875662687
0.4879497251
-0.003706886393
-0.4871379961
0.004072693787
0.4874794206
-0.004414118268
-0.4865130352
0.00473356783
0.4868081624
-0.00253656404
-0.002492130969
-0.2427161932
0.002685925059
0.242779928
-0.002749659817
-0.2417156749
0.002922644233
0.2417679109
-0.002974880175
-0.2401729608
0.003112440513
0.2402092977
-0.003148777448
-0.2355344179
0.003206869349
0.2355457667
-0.003218218156
-0.2276790146
0.003441450031
0.2277126108
-0.003475046225
-0.001533549842
0.9789727561
-0.003044150346
0.9789885419
-0.004505499625
0.9787568383
-0.003003774929
0.9783795623
-0.002888644507
-0.4882956556
0.4886390471
-0.003347166449
-0.4877996642
0.003673238254
0.4881024372
-0.00397601122
-0.4870844618
0.004257810236
0.4873434905
-0.00227743578
-0.00223940312
-0.2429576754
0.002407916322
0.2430132171
-0.00246345804
-0.2419137032
0.002613878463
0.2419589722
-0.00265914751
-0.2403091894
0.00277713536
0.2403397336
-0.002807679549
-0.2355823909
0.002856377136
0.2355954048
-0.002869390994
-0.2278009871
0.003086883784
0.2278268653
-0.003112761979
-0.001400009016
0.9803727651
-0.002776646923
0.9803651798
-0.004104835968
0.9800850273
-0.002728082419
0.9796349881
-0.002632179394
-0.4889489089
0.4892582101
-0.003037383677
-0.4883872892
0.00332987135
0.4886576326
-0.003600214794
-0.487586612
0.003850640634
0.4878152666
-0.002055813744
-0.002023481492
-0.2431688311
0.002170422463
0.2432176852
-0.002219276567
-0.2420858685
0.002351310364
0.2421254513
-0.00239089319
-0.2404241188
0.00249300011
0.240450063
-0.002518944293
-0.235636614
0.002560811837
0.2356510217
-0.002575219501
-0.2278957546
0.002787080115
0.2279162316
-0.002807557097
-0.001286815468
0.9816595805
-0.0025500491
0.9816284134
-0.003765927763
0.981300906
-0.002493521106
0.9807799167
-0.002417335241
-0.4895375229
0.4898184997
-0.00277449791
-0.4889129974
0.003039053943
0.4891564986
-0.003282555175
-0.4880311348
0.003507393266
0.4882355508
-0.001870847854
-0.001840961406
-0.2433551933
0.001970498491
0.2433985356
-0.002013840775
-0.2422369452
0.00213085676
0.2422718932
-0.002165804745
-0.2405221721
0.002255069009
0.2405444837
-0.0022773806
-0.2356960198
0.002314375751
0.2357115568
-0.002329912719
-0.2279717452
0.002536157782
0.2279885999
-0.002553012459
-0.001193576257
0.9828531568
-0.002363612237
0.9827984494
-0.00348720635
0.9824245001
-0.002300325881
0.9818360621
-0.002243025915
-0.4900725041
0.4903298992
-0.002557720932
-0.4893876997
0.002799404789
0.4896094126
-0.003021117665
-0.4884299082
0.003225345313
0.4886158153
-0.001719930208
-0.001691322171
-0.2435212846
0.001806509411
0.2435601794
-0.001845404224
-0.2423709202
0.001950390059
0.2424021612
-0.001981631011
-0.2406069772
0.002060701229
0.2406264785
-0.002080202513
-0.235759588
0.002113887111
0.235776023
-0.002130322096
-0.2280354302
0.002331052529
0.2280500446
-0.002345666932
-0.001120335165
0.983973492
-0.002216709376
0.9838948236
-0.003267538239
0.9834753289
-0.002141489982
0.9828156422
-0.002105628349
-0.4905625664
0.490804597
-0.002383520579
-0.4898212333
0.002607920609
0.4900257709
-0.002812458241
-0.4887941791
0.002999883479
0.4889648169
-0.001596754651
-0.001573766706
-0.2436712729
0.001675684665
0.24370685
-0.001711261803
-0.2424913381
0.001807040926
0.2425197111
-0.001835413898
-0.2406816254
0.001906631937
0.2406990241
-0.001924030683
-0.2358264516
0.001955690127
0.235843602
-0.001972840501
-0.2280918793
0.002168060312
0.2281053571
-0.00218153806
-0.001064670935
0.9850381629
-0.002106175375
0.984936328
-0.003103069122
0.9844722227
-0.002029405015
0.9837497019
-0.002007723796
-0.4910225887
0.4912479503
-0.002254766648
-0.4902223886
0.002463851908
0.4904134339
-0.002654897235
-0.4891291441
0.002829780355
0.4892880712
-0.001502326482
-0.001486380983
-0.2438093494
0.001575812802
0.243842438
-0.001608901434
-0.2426013921
0.00169781033
0.2426276238
-0.001724042009
-0.2407488001
0.001789457468
0.240764713
-0.001805370376
-0.2358959456
0.001836101334
0.2359136767
-0.001853832402
-0.2281451423
0.00204337183
0.2281583464
-0.002056575961
-0.001033456161
0.9860716191
-0.002039314336
0.9859421862
-0.003002459611
0.9854353679
-0.001957518285
0.9846445879
-0.001939827339
-0.4914537193
0.4916602246
-0.002164023542
-0.4905989753
0.002364228274
0.4907810933
-0.002546346238
-0.4894427264
0.002712685503
0.4895934929
-0.00143588347
-0.001427568558
-0.2439386189
0.001505646414
0.2439699591
-0.001536986593
-0.2427038841
0.001621071729
0.2427286212
-0.001645808796
-0.240810898
0.00170728439
0.2408258904
-0.001722276784
-0.2359676405
0.001753078087
0.235985875
-0.001771312579
-0.2281983527
0.001955052893
0.2282119324
-0.001968632552
-0.001001244659
-0.001986342047
-0.002928342704
-0.001917801361
-0.001875504327
-0.4918659597
0.4920694184
-0.0021212601
-0.4909584347
0.002310782484
0.4911342549
-0.002486602728
-0.489742763
0.002647285403
0.489886623
-0.001399485305
-0.001391660097
-0.244061909
0.001464702214
0.2440922207
-0.001495013952
-0.2428013208
0.001576159762
0.2428251535
-0.001599992501
-0.24087018
0.001659327088
0.2408848451
-0.001673992199
-0.2360412898
0.001705930089
0.2360599349
-0.001724575137
-0.2282538362
0.001902982044
0.2282681771
-0.001917322985
0.003013048012
-0.00309445796
-0.05275156785
0.003453856116
-0.003572646987
-0.05480240274
0.007325474499
-0.2164339088
-0.004139668236
-0.004234919264
0.1060738108
-0.002992504378
-0.105733736
0.005665477612
0.02420547966
-0.2210131376
-0.02087873563
-0.004713550384
0.109980586
-0.003446354547
-0.109563915
0.006483539602
-0.003073743535
0.005812748973
0.1063894719
0.05351055957
0.003234014769
-0.003326170087
-0.05341840425
0.02631893683
-0.0003294105641
-0.02687381657
0.0008842903072
-0.02786882461
-0.0008467667293
0.00123964072
0.02747595062
0.006603440815
-0.006916790358
-0.1131661202
-0.00138310379
-0.02810317643
0.001617455605
0.02728776728
-0.0008771979293
-0.02779367314
-0.003101962096
0.0464171068
0.004217590375
-0.02530327851
-0.02222945657
-0.0002531839296
0.0006954652576
0.0258766555
0.003257881006
0.05359991577
-0.003347237202
-0.02243137109
0.02226125637
-8.306920848e-05
0.02719560808
-0.005452617576
-0.01270656346
-0.01213838914
0.02680127782
-0.0003602772695
-0.02281987885
5.909719666e-05
0.005546289908
0.02574931463
-0.02428722012
-0.001234860471
0.001664752776
0.02385732782
-0.05222428715
0.003512276523
0.05232604443
-0.003614033798
0.05259147606
0.003583900246
-0.05252688285
-0.00184753999
-0.00180095347
-0.05211201526
0.00332987765
0.05214043831
-0.003358300706
0.003459777482
-0.003502938725
-0.05218112591
-0.0007958762294
-0.02475397267
0.001262628778
-0.02509895364
-0.001153460412
0.001422954541
0.02482945951
-0.05180147845
0.003153459437
0.05185952271
-0.003211503691
0.003305976235
-0.003375489474
-0.05204250202
0.003100016322
-0.003143931125
-0.05175756365
-0.0009681510184
-0.02541839946
0.00128759684
0.02477942848
-0.0005356071745
-0.02521197232
0.02434496923
-0.0007190011594
0.003598314353
0.05263075435
-0.001832789493
-0.001804803153
0.05297482556
0.01408434174
-0.05281151391
-0.005372390064
-0.008875263321
-0.0122775504
0.02526929347
-0.02455672358
0.01156498051
0.01204211311
-0.01555760968
-0.008762053827
0.02411373803
-0.02407512094
0.005102725924
-0.0245671421
-0.005886720796
0.005878240472
0.02457562242
0.02380123411
-0.0002664323777
-0.02433067796
0.02917606385
-0.02320984964
-0.0004199243002
-0.006021439724
-0.02461546367
0.006069761296
-0.006978203207
0.01384757336
0.0223066937
0.02307404719
-0.0005076735524
0.0255446151
0.02521137424
-0.02534680361
0.01089112569
-0.009348296269
-0.2250426401
0.2267528003
0.01168297111
-0.006673538096
-0.1125687283
-0.1125900643
0.006552354161
0.1104202449
0.1117909162
0.006990641238
-0.00750888159
-0.1112726758
-0.007432245424
0.09420901967
-0.09457739712
0.007800622897
-0.003034011054
0.004279347587
0.04517177026
-0.004791030462
-0.02640924199
0.003717219125
0.02748305333
-0.02642384561
0.002043610443
0.02673769453
-0.002357459363
0.02669918555
0.001751685371
-0.001603752205
-0.02684711872
0.02937291267
-0.005211315636
0.08661786179
-0.01079437082
-0.08325573639
0.02646647633
0.000908934662
-0.0005173796722
-0.02685803132
-0.0248323863
0.004282151505
0.02672680947
-0.006176574676
-0.03165653165
0.02362432124
0.03330150389
0.02422480795
0.05426537259
-0.01907441567
-0.006440939298
0.00392410354
0.05450627552
-0.004036315932
-0.05439406313
0.001707575954
0.02650529873
-0.001513689128
0.02593204895
0.001824021738
-0.001671970677
-0.02608410001
-0.0004754275644
0.02444903806
-0.02492777528
0.0009541647851
0.02504018059
0.02150515617
-0.02178289963
-0.0001976841018
0.02244611302
-0.00431555062
-0.01722496814
-0.0009055942523
-0.008857356292
0.05051990481
-0.05017467844
0.008512129922
0.002637822017
0.0241171094
-0.01961441853
0.02551184648
0.0005165186067
-0.0001247487858
-0.0259036163
-0.03082707563
0.02598894466
4.71005087e-05
-0.02561270722
0.001826844937
0.02563278982
-0.001846927533
0.002013758365
-0.002416457848
-0.02602114613
-0.006030048634
-0.02462205187
0.004242858511
-0.0005450198366
-0.02609820323
0.0009920817358
0.02565114133
-0.02595290964
0.001683758158
0.02583810981
-0.001568958327
0.001762564287
-0.001700476169
-0.02567479534
0.0008763988673
0.02605831602
-0.0004682385563
0.003656698442
-0.004640874745
-0.02384821
-0.001242361699
0.001673973685
0.02401742608
0.002153423468
0.02587405784
-0.002095432349
0.02675118156
0.009398843318
-0.009882467274
-0.0262675576
-0.002241913542
0.02760685201
-0.02197275149
-0.003392186984
-0.00492989409
0.00951920312
0.01785680399
0.0206388774
-0.0003760829251
-0.01846663958
0.0241380676
-0.004946926313
-0.0007245017084
0.02073457868
-0.004993658063
-0.02005647123
0.02431108814
-0.005305974306
-0.02445327207
0.005448158231
0.02513149947
-0.0001646728258
0.01484688236
-0.0008383474464
-0.02419980569
-0.006514326532
0.006317584777
0.02439654744
-0.004598361928
-0.01316117496
-0.0007071026969
-0.00675744249
-0.02413500576
0.00669264256
-0.01476706477
-0.02209005949
-0.02628624497
0.001726816121
0.02618949701
-0.001630068167
0.001623187234
-0.00155322199
-0.02602287489
-0.0265517175
0.0009700328746
-0.02580548778
0.003068155549
0.02701948374
-0.02587412428
0.001805279487
0.02602181697
-0.001952972167
0.001645928785
-0.001700258261
-0.02623191549
-0.02398580585
0.02314406616
-3.545823438e-05
0.002357133726
-0.02633430953
-8.630049962e-06
-0.02785381606
0.002417276652
0.02203576594
0.000153326292
7.216413517e-05
-0.0001267552117
0.02633701459
0.0005910184349
-0.02283786645
0.02259418574
0.0001169254971
-5.407756577e-05
-0.02370271588
0.0008607231428
2.211389261e-05
-0.02562555956
0.001602023424
0.02562218151
-0.001598645382
0.001749300454
-0.001900272449
-0.02572315229
-0.02493632904
0.002787539699
-0.02641649447
0.001205481009
0.02608741233
-0.02576007826
0.001547027514
0.02571889464
-0.001505843894
0.001578382726
-0.001554401206
-0.02564954108
-0.02482659159
0.02441991964
-0.0001289352291
0.0004672074176
-9.137413334e-05
-0.02520242487
0.000893352829
-0.02563811773
-0.001194934965
0.02395114204
0.001588762149
-0.02392050088
0.02322977518
-0.0005042092628
-0.0002195823973
0.006883485814
-0.007395995495
-0.0240442139
0.02551609779
-0.02502434991
0.006391737931
0.02647175733
0.01060932097
0.0002152036585
0.005213665836
-0.005428869494
-0.01856233883
-0.00439126635
0.005312831725
0.02424159341
0.02099012271
-0.005185438122
0.02224127215
-0.002473042988
-0.0220101427
-0.02175290178
0.02147109143
1.537797362e-05
0.0002282835639
-0.02192538942
-5.579592842e-05
-0.02474432608
0.000641931688
-0.01941256114
-0.0004382279526
0.01483221243
-0.0009846390678
-0.005434502023
0.02085009592
-0.0005833814666
0.02354080486
-0.006668613181
-0.001495005604
0.02222952579
0.002339527004
-0.02090373911
0.01941164259
-2.909082155e-06
5.967876904e-05
0.02568922072
-0.02580706236
0.02265894416
0.0002140260319
-3.340950853e-05
0.02253219598
0.0001763259988
-4.957782219e-05
0.01506965017
-0.01506314006
-6.510112601e-06
-0.004831914598
0.003704908011
-0.0311626052
-3.618926755e-06
-0.0222695297
0.02004476113
0.02746100371
-0.02075458328
0.02699336949
0.00176314015
-0.001659310312
-0.02709719933
-0.0003231968878
0.02260284888
-0.02339679342
0.001117141429
0.0006751574871
-0.0001926163584
-0.02541031641
0.02564147212
-0.02612085586
0.001154541228
0.0252105545
0.001385082406
6.024995025e-05
-0.01229242066
-0.003933759047
-0.0009987884379
-0.0109122118
-0.001380208862
0.0121048565
-0.001891053173
-0.01053700021
0.01899423536
-0.004762708031
-0.01886216501
0.004630637689
0.003197238668
0.004125250677
0.02028436267
-0.02239364872
0.02224174468
2.715525471e-05
7.534364292e-05
0.0001251933823
0.0005087419341
0.002416035483
-0.0001298067007
0.0220752372
-0.02222451923
5.790789646e-05
0.02190681069
3.949127542e-05
0.02238037732
0.0001111304821
4.06881832e-05
8.040659942e-05
7.545148869e-05
-0.0223968023
-0.004513602145
0.002335099419
-0.001502126542
0.002438031465
0.01959716354
-0.02111747169
1.818161064e-05
2.042134027e-05
0.02165341507
3.381322555e-05
3.173411613e-05
0.02493483857
0.00194968962
-0.003499151309
0.003409639971
-0.00352593913
0.001001887437
-0.01864479331
-0.004329845616
0.01885706125
-0.01528441143
-0.002570762387
0.01568007793
0.01121886504
-0.001699661923
-0.002554465091
-0.001511081294
-0.003342454412
-0.00144940056
-0.005524026542
0.01874988235
-0.02174215819
-0.005773812542
0.02199194419
-0.02111487994
-0.005574204563
-0.0001928606604
0.000580034051
-0.02208841733
-2.983274777e-05
-1.134547883e-05
-0.0005096189107
-0.01966793452
0.02575177362
-0.005392361888
-0.0006914772074
-0.01397425998
-0.005010710724
-0.0006829638175
-0.01986226701
-0.005850974853
0.01204317263
-0.006153666019
-0.001118002331
-0.01298957544
-0.0009846845374
0.005878874966
-0.006473075867
0.02727121463
-0.0005422437452
0.02097428175
-0.01500102893
0.0002339641592
0.004435815804
-2.520214518e-05
0.0045752821
0.006630690049
-0.006726012961
-0.2053133762
-0.004863916332
0.1942947352
-0.1963136961
0.007057018923
-0.004515586909
-0.195545504
-0.00426837679
0.2000102026
-0.199779338
0.0041726542
-0.004605163922
-0.2030018514
0.2166027198
-0.2153859817
0.006122786907
0.02115404571
-0.02080139416
-0.2039003245
-0.01981561003
0.1954140219
-0.195498931
0.02008245934
0.00175613251
0.1961627821
-0.01965604606
-0.1952319994
-0.02020434199
0.2022499846
-0.2017274256
0.0198170386
0.004229867163
0.2007391703
-0.02083070504
-0.2058933784
0.2222122168
-0.2208681533
0.02286754409
0.00634027627
0.2178878118
0.2196791842
0.007798639254
-0.004454492467
-0.004457436553
0.1090282376
-0.005090389884
-0.1087157301
0.004777882439
-0.10781692
-0.004885721238
0.004591691316
0.1081109499
0.05315812244
0.00314027002
-0.003232585432
-0.05306580703
0.05254032222
-0.05247162664
0.0033910819
-0.05229918942
0.003271037267
0.0523580298
0.01247446787
-0.01367851835
-0.2056367039
-0.01603678202
0.1969566082
-0.1962247276
0.01547838378
0.009122773782
0.1954866096
-0.0163494342
-0.1957021827
-0.01571736827
0.2013616797
-0.2016993616
0.0161976648
0.00846566346
0.202212377
-0.01495670412
-0.205750431
0.2190478283
-0.2206731923
0.01255376374
0.007984630363
0.2225716295
-0.009509163079
0.2247306575
0.008352174693
0.2242084087
-0.005408575389
-0.1115080019
-0.1113820363
-0.005418958154
-0.1106893511
-0.00539736705
0.005059308091
0.1110274101
0.1107680298
0.007037272172
-0.00376156691
-0.00377088372
0.05530779011
-0.004132036593
-0.05510622685
0.003930473332
-0.05466998201
-0.00397839599
0.003849282763
0.05479909525
0.01457111982
-0.01732421237
-0.2132028554
-0.02418354547
0.2032095053
-0.2010771453
0.0221929141
0.01749229986
0.1979836246
-0.02580997355
-0.1993492572
-0.02818242688
0.2016376366
-0.2011412717
0.02782887093
0.01909139562
0.2010911848
-0.02809882184
-0.2036819134
-0.02559693373
0.2132444009
-0.2143109081
0.02674327663
0.01536153439
0.2173325839
-0.02426763872
-0.218035183
-0.02061440996
0.225771198
-0.2268820864
0.0217440219
0.01113896903
0.2280314674
-0.0184214524
-0.2243153664
0.01017214812
-0.01425041993
-0.2266419814
-0.02585979213
0.215877265
-0.2121125816
0.02218131928
0.02303747326
0.2057602677
-0.02924489723
-0.2090270729
-0.037108234
0.2080536016
-0.205736803
0.03490617887
0.03038427613
0.2025417846
-0.03887283555
-0.2064718135
-0.04179251164
0.2132847504
-0.2125696774
0.04116340842
0.03090896851
0.2125712911
-0.04219952378
-0.2154693037
-0.04068715768
0.2206258805
-0.222120321
0.04221410865
0.02740009801
0.2246675737
-0.03896745771
-0.215452761
0.008069939891
-0.008434529755
-0.2357039685
-0.01589096347
0.2336451125
-0.2289448686
0.01120770672
0.02053773623
0.2199797109
-0.02047394198
-0.2250064351
-0.03283184503
0.2214989043
-0.217617346
0.02901078742
0.03489354817
0.2108326872
-0.03629216083
-0.2166926976
-0.04437799379
0.2205135226
-0.2181377293
0.04206034789
0.04308858608
0.2144717414
-0.04626462719
-0.2198581994
-0.04645294492
0.2157157733
-0.2164614785
0.0472223799
0.04541756943
0.2190787912
-0.0472865887
-0.212436013
0.007449653465
-0.00775482655
-0.2370721487
-0.008674115067
0.2370892475
-0.2367829933
0.008367860847
0.008980792647
0.2361174554
-0.008978929688
-0.23663433
-0.01200353469
0.2363675314
-0.2340808696
0.009721115665
0.02499607262
0.2255990965
-0.01583727786
-0.2319413348
-0.02588585194
0.2319391284
-0.228950097
0.02291424634
0.03912888829
0.2231592897
-0.02828336992
-0.2285852545
-0.03162493841
0.2174232332
-0.216421573
0.03063174835
0.04501513181
0.2154742564
-0.03321289203
-0.2177453908
0.006786626385
-0.00704035437
-0.2382141298
-0.00778725277
0.238158851
-0.2379129917
0.007541393435
0.008160473148
0.2373790621
-0.008029105688
-0.2377540697
-0.00872531941
0.2373698552
-0.2371429889
0.008498453061
0.009302033745
0.2366429392
-0.008946222813
-0.2369082398
-0.009488889216
0.2362823627
-0.2361410091
0.009347535599
0.01546154738
0.2348924159
-0.009546385773
-0.2350704139
-0.009761493468
0.2206295031
-0.2203894531
0.009521443484
0.02359665029
0.2186144301
-0.01016752246
-0.2227537127
0.006128803887
-0.006339656865
-0.2391635917
-0.006948623673
0.2390203062
-0.2388218167
0.006750134154
0.007340997707
0.2383918059
-0.007142093861
-0.2386449805
-0.007689433308
0.2381468412
-0.2379702531
0.00751284517
0.008244598111
0.2375827121
-0.007858510808
-0.2377086883
-0.00824243818
0.2367142158
-0.2366224141
0.00815063643
0.009033015482
0.2364080402
-0.008271000968
-0.2352503293
-0.00851460116
0.2215510497
-0.2213284723
0.008292023726
0.009199885289
0.2208671921
-0.008802585311
-0.2241778099
0.005502122046
-0.005677869903
-0.2399535252
-0.006177641497
0.2397192605
-0.2395576367
0.00601601766
0.00656200756
0.2392087353
-0.006334091375
-0.2393603023
-0.006770673543
0.238757469
-0.2386177837
0.006630988279
0.007284086134
0.2383131567
-0.006902617023
-0.2383255978
-0.007182543649
0.2370020307
-0.2369403583
0.007120871213
0.007880228053
0.2367972248
-0.007196570021
-0.2353395858
-0.007444401804
0.2223851001
-0.222185319
0.007244620644
0.008015375818
0.2217681966
-0.007655859768
-0.2252069025
0.00491856744
-0.005065513676
-0.2406127431
-0.005478477978
0.2402913562
-0.2401585942
0.005345715928
0.005840778087
0.2398729673
-0.005606335418
-0.2399408787
-0.005959362934
0.2392449358
-0.2391327588
0.005847185926
0.006424418215
0.2388894908
-0.006063946101
-0.2388097961
-0.006271498064
0.2371969488
-0.2371549227
0.006229471984
0.006884120696
0.2370579615
-0.006278864178
-0.2353838454
-0.00652674775
0.2231250421
-0.2229488276
0.006350533241
0.007006076476
0.2225789061
-0.006682656737
-0.2259639333
0.00438432478
-0.004507832919
-0.241165009
-0.004851689427
0.2407639382
-0.2406538958
0.004741647037
0.005187480989
0.2404179025
-0.004957273789
-0.2404171942
-0.005246306638
0.2396395959
-0.2395483561
0.005155066793
0.005664746513
0.2393513305
-0.005330164501
-0.2391953187
-0.005486527252
0.2373314049
-0.2373021509
0.005457273318
0.006024737051
0.2372352404
-0.005491760104
-0.2354090866
-0.005737140205
0.2237737381
-0.223619731
0.00558313312
0.006146515742
0.223295486
-0.005852317214
-0.2265225262
0.003903385749
-0.004007849009
-0.2416303415
-0.004296559843
0.2411579769
-0.2410658916
0.004204474549
0.004602378175
0.2408691229
-0.00438469153
-0.2408121042
-0.004624002582
0.2399627487
-0.2398877538
0.004549007676
0.004997100162