/*--------------------------------*- C++ -*----------------------------------*\
| =========                 |                                                 |
| \\      /  F ield         | OpenFOAM: The Open Source CFD Toolbox           |
|  \\    /   O peration     | Version:  v2012                                 |
|   \\  /    A nd           | Website:  www.openfoam.com                      |
|    \\/     M anipulation  |                                                 |
\*---------------------------------------------------------------------------*/
FoamFile
{
    version     2.0;
    format      ascii;
    class       surfaceScalarField;
    location    "0.51";
    object      phi;
}
// * * * * * * * * * * * * * * * * * * * * * * * * * * * * * * * * * * * * * //

dimensions      [0 3 -1 0 0 0 0];
oriented        oriented;


internalField   nonuniform List<scalar> 
5999
(
0.0004507997509
0.9161992002
0.000571823474
0.9165789763
0.0006885900107
0.9165332335
0.000335509401
0.916552318
0.0004507625832
0.4583383983
0.0003471110484
0.4583004471
0.0004320705724
-0.0004325177126
-0.0005439869891
0.4582737196
0.0006202674204
-0.0006937872198
0.4582209597
0.0008078275051
-0.0009311843756
0.4581978122
0.001063372187
-0.00121185193
0.458178899
0.001367952957
-0.001521098006
0.4581881595
0.001667938523
-0.001804955343
0.4582296601
0.001906795222
0.001241317989
0.9149578822
0.001991440555
0.9158288537
0.002318058829
0.9162066152
0.0007328164546
0.9169645856
0.001172974741
0.4580278584
0.0008774170966
-0.458172459
-0.4581495997
-0.001075104166
0.4579031449
0.001321559018
-0.4579926213
-0.001624444108
0.457630676
0.0009322673834
0.001054121997
-0.2289314994
-0.001125194135
0.2288374903
0.001219203243
-0.001615718661
-0.2288696642
0.22874689
0.001738492927
-0.002223809215
-0.2288269904
0.2286726687
0.002378130908
-0.00290580798
-0.2288402054
0.2286767473
0.003069266069
-0.003529795652
-0.2289264132
0.228788785
0.003667418859
0.001583243503
0.9133746387
0.004205564043
0.9132065331
0.007112849843
0.9132993294
0.002995490059
0.9146105849
0.006471360495
-0.4579528055
0.4577329895
0.003215306105
-0.4576686948
-0.00325301536
0.4582530251
0.002668685069
-0.4571360975
-0.002826979101
0.4568171187
0.001521115351
0.00162484251
-0.2283794779
-0.001874701692
0.2281797996
0.002074380038
-0.2281359248
-0.002784842422
0.227862923
0.003057844243
-0.2279429471
-0.003977528073
0.2276261242
0.00429617679
-0.2280019996
-0.005393031996
0.2276255075
0.005778656596
-0.2282695532
-0.00689413812
0.227959889
0.007210559751
0.0005955366686
0.9127791021
0.001302199314
0.9124998705
0.002641356405
0.9119601723
0.003387309428
0.9114974477
0.002367184197
-0.4569207275
0.4564315714
0.003876465535
-0.4597236314
-0.005153189689
0.4565966776
0.008280143462
-0.4581847081
-0.009631024037
0.4596317535
0.002409328854
0.005774649785
-0.2274439355
-0.002456443114
0.2272047138
0.002695664801
-0.2268120209
-0.003751780424
0.2262606461
0.004308172027
-0.2260267735
-0.006365257156
0.225268851
0.007145468728
-0.2258478534
-0.009637581225
0.2250262427
0.01048255336
-0.2265177595
-0.01285628878
0.2258509257
0.01353563197
0.0002075763417
0.9125715257
0.0004851107152
0.9122223361
0.000958668876
0.9114866141
0.001528772717
0.910241657
0.0006856868241
-0.4560976111
0.4552537283
0.002372655549
-0.4550834407
-0.002868352858
0.4543641973
0.003587596219
-0.4534147231
-0.00456203901
0.4525072565
0.002874219605
0.002595285967
-0.2277180466
-0.004799328541
0.2257735702
0.006744302668
-0.2247836083
-0.01107945088
0.2260649972
0.009825077712
-0.2223852219
-0.009395710258
0.2213272428
0.01049280597
-0.2219227003
-0.01416301742
0.220692024
0.01542448369
-0.2231778265
-0.01915879698
0.2220234753
0.02032642456
-8.872019905e-05
0.9126602459
-6.252995158e-05
0.9121961459
0.0002383150628
0.9111857691
0.0004299944069
0.9096468507
0.0004031270212
-0.4543164388
0.4539398133
0.0008066199669
-0.4537639447
-0.001842835799
0.452909815
0.002696965532
-0.451544395
-0.003358667864
0.4503821174
0.002241765254
0.002279180219
-0.2235065088
-0.003131638003
0.2227904653
0.003862460247
-0.2196100713
-0.006756743064
0.218500074
0.007912583727
-0.2194480504
-0.01377476952
0.2165626458
0.01671042828
-0.2183004529
-0.02184367886
0.2185270911
0.02164552225
-0.2179381699
-0.02544618689
0.217547838
0.02584291068
-0.0005335249797
0.9131937709
-0.0009231162057
0.9125857371
-0.001133066392
0.9113957193
2.52863621e-05
0.9092416956
-0.0007531976852
-0.4537652542
0.4534122155
0.0003783251598
-0.45178203
-0.0006687044417
0.4513445453
0.001106189172
-0.44987225
-0.002163070424
0.4493205002
0.001307327271
0.001407945974
-0.220591659
-0.002465799491
0.2198751058
0.003211295708
-0.2151817438
-0.006064040529
0.2145434324
0.006759974801
-0.2122972674
-0.01000670239
0.2113038955
0.01104954241
-0.2111808692
-0.0152704885
0.2089006424
0.01756732741
-0.2109906578
-0.03169076116
0.1072589819
0.1015890384
0.01479015139
0.01904324735
-0.001007650069
0.914201421
-0.001952526657
0.9135306137
-0.002685358611
0.9121285513
-0.001354659711
0.9098765638
-0.001965567081
-0.4533641386
0.4533449022
-0.001335423234
-0.4511293984
0.001365686723
0.4510024278
-0.00123871613
-0.447837077
0.001034385745
0.4473232857
-0.0002381664777
-0.0002779315964
-0.2180851842
-0.0007902184177
0.2176623021
0.001248783804
-0.2119942322
-0.002925252601
0.2115626828
0.003419373046
-0.2090339844
-0.005321496808
0.2084094748
0.005995731823
-0.2058673932
-0.00768103918
0.2055339809
0.008020348177
-0.09530949034
-0.005360064926
0.0953393368
0.005330218464
-0.001480546824
0.9156819678
-0.002886121471
0.9149361883
-0.004358011892
0.9136004417
-0.002531947885
0.9111903177
-0.00313981792
-0.4535591791
0.4537645656
-0.002737334359
-0.4510755982
0.002980901636
0.4513044123
-0.003209715731
-0.4470786243
0.003420144757
0.4471268242
-0.001597405078
-0.001862072972
-0.2167806851
0.00137827712
0.2165083969
-0.001058733818
-0.2101173291
-0.0001694105621
0.2097638644
0.0005994174638
-0.2075758192
-0.001579916311
0.2074987864
0.001713838841
-0.2064120114
-0.001150773863
0.2070192662
0.0005465805718
-0.09892026844
0.001306110142
0.09942016332
-0.001806005037
-0.001916072991
0.9175980408
-0.003945686507
0.9169658019
-0.005919683861
0.915574439
-0.003705231459
0.913296671
-0.004320805643
-0.4542077106
0.4546474945
-0.004145015295
-0.4516395884
0.004656016203
0.4522250544
-0.005241482185
-0.4473768413
0.005812125547
0.4478629654
-0.002946887733
-0.003336222044
-0.215932629
0.002936314462
0.2157802726
-0.002725824917
-0.2090263733
0.001925186985
0.2088711781
-0.001679180388
-0.2076713158
0.001349097617
0.2078510897
-0.001463411434
-0.2090673768
0.002730588109
0.209771645
-0.0034328216
-0.101682549
0.002855847901
0.1019037139
-0.001525198162
-0.001551814614
-0.002429997055
0.9200280379
-0.004857219236
0.9193930241
-0.007442204388
0.9181594242
-0.004830106485
0.9161087164
-0.005424143289
-0.4553071337
0.4559646929
-0.005487665747
-0.4529036018
0.006291122409
0.4536647853
-0.007052305927
-0.4486934081
0.007939737033
0.4497321528
-0.004366580158
-0.004587003703
-0.2154730676
0.004249770834
0.2154074756
-0.00411381257
-0.2086080834
0.003590585191
0.2085779324
-0.003454910094
-0.2086161534
0.003526854397
0.2089391649
-0.003776594278
-0.2118569405
0.005367167905
0.2125480579
-0.006057397033
-0.1032084188
0.003935046604
0.1033551495
-0.002027838395
-0.002053938872
-0.002891333428
-0.00581143893
-0.008880626082
-0.005834420662
-0.4567981375
-0.00665750099
-0.4546433929
0.00761494199
-0.008650267224
-0.4506807125
0.009789029716
-0.005295974214
-0.005771046293
-0.2152825862
0.005197988058
0.2152530727
-0.005084449336
-0.2086364016
0.004691617976
0.2087031314
-0.004637793056
-0.2101094831
0.00502533376
0.210575944
-0.005411707753
-0.2147007278
0.007467858945
0.215468177
-0.008235208298
-0.1043352
0.005131193255
0.1044871394
-0.00262310583
-0.002660026749
0.0009619879636
-0.001516333033
-0.09836592336
0.002710183931
-0.1014497257
-0.001460077441
-0.001482929841
0.003805625204
-0.1030504336
-0.001971876397
-0.001991733985
0.004965306615
-0.1041889672
-0.002538926625
-0.002572612892
-0.006894065167
0.007220092518
-0.0956355177
0.001936615872
-0.002634688345
-0.2083670113
0.1020371641
-0.1017991484
0.002472168166
-0.09946794269
0.0008752382369
0.09989881461
0.004775307722
-0.005461093172
-0.211170005
0.1035649838
-0.1033991675
0.003639808941
0.002635602772
0.1022574092
0.102516487
0.003281700208
-0.1023259713
-0.001726740779
-0.001745475136
0.05092566076
-0.001113860851
-0.05069687092
0.002074349497
-0.001189278475
-0.05029149
-0.0009101538869
0.001783381927
0.05031512354
-0.0008968615773
0.006950318728
-0.007718968789
-0.2139317959
0.1047768462
-0.1046197601
0.004808220465
0.003779773113
0.1037202573
0.1037779682
0.004345825136
-0.1036382795
-0.002228587955
-0.002256925862
0.02575521804
-0.001067084007
-0.02582557841
0.001137444381
-0.05081391978
-0.001050081649
0.002183998956
0.05081151921
-0.001131516734
0.004964836421
0.1049432031
0.0525635297
0.002845515874
-0.002897878849
-0.05251116672
0.02740521802
-0.002078204558
-0.02715961854
0.001832605075
-0.02665491115
-0.001061458196
0.001227666597
0.02648870275
-0.046195365
0.001747070215
0.04674063586
-0.001155015423
-0.001137325643
0.04925048027
0.001946356395
-0.04892211645
-0.001212857374
-0.001061862844
-0.003020123631
-0.04261467573
0.04272550089
0.002909298474
0.001551187633
-0.002114807279
-0.04563174536
-0.0008761382648
-0.05026232825
0.001748819782
-0.0009018432667
-0.001661777128
-0.0497620627
0.001608588841
0.04981525099
-0.1006022661
0.002211439535
0.1009161782
-0.002525351669
-0.04959269808
0.04959721827
-0.0007997854198
-0.0008665119019
0.02522951977
-0.0008773202427
-0.02522833779
0.001865199251
0.04940910299
-0.001097014602
-0.0009268073641
0.00164465874
-0.04958996276
-0.0008065938459
-0.0008408002141
-0.00105657374
-0.05086130043
0.002133523327
-0.001029568937
-0.00117261724
0.002056165589
0.05104682568
-0.001004713272
0.003414191406
0.1027079913
-0.001792359456
-0.001813336184
-0.02581207518
0.02587108253
-0.001231624589
0.02521415173
-0.0009921260651
-0.0252785994
0.02520660557
-0.0008872396858
-0.001322445461
-0.02560349057
-0.001102859031
-0.02679124076
0.001239188643
-0.00107593456
0.001154879027
0.02567627357
0.004492377037
0.1039149301
-0.002298201845
-0.002331137088
-0.02595017972
0.02579989847
-0.0009256533114
0.02726857645
-0.0008593284837
-0.027512107
0.02518476305
-0.001020692971
-0.0009182271164
-0.02609903661
-0.001509441649
0.001566870268
0.02734778941
-0.002943392876
-0.02792338088
0.02772421825
-0.001310279022
0.02699369412
-0.0007865758597
-0.002319233892
-0.02768235154
-0.002495564851
0.002000886904
-0.2059138607
-0.09900904728
0.0005030925515
-0.09687705774
-0.005273690543
0.09679068335
0.09652383404
-0.001527980246
0.000940922632
-0.09593677642
0.04640812618
-0.04593291759
0.001075979044
-0.04344616069
-0.003119881232
0.0435459183
0.002027365848
-0.002375589876
-0.100254042
-0.04972044109
0.001603037135
-0.04904532172
0.001680135834
0.04923038514
-0.04879826368
0.001699298351
0.001306723591
0.04684847281
-0.0006207730251
0.09713955067
5.056396761e-06
-0.02149008531
4.046820817e-05
0.02135544101
9.417610064e-05
-0.001877798874
-0.01793172033
0.01785883814
0.001950681064
0.002134226205
0.02054366034
-0.002312363736
-0.02036552281
-0.02381004745
-0.09731396893
0.04774381832
0.04636402279
0.01353674073
0.01347943454
-0.003912283147
0.004544376332
-0.04324676891
-0.001182062508
-0.025248482
0.001336374325
0.02509417018
-0.05177890804
0.002873692479
0.05180310897
-0.002897893408
0.051921427
0.003021740362
-0.003059754615
-0.05188341275
0.005534814215
-0.02098163162
0.02961291297
-0.01416609556
-2.873734781e-05
-0.02160531654
0.0001439685732
0.04789857693
0.001927753366
-0.04757744987
-0.001133048162
-0.001115832259
0.02373730223
-0.02409617582
0.0003301362406
-0.02297829171
0.003809359945
0.02470374598
0.02388444329
-0.02606720027
0.002221857627
-3.910064468e-05
0.0004026087174
0.02337516172
0.001945943553
0.0481916479
-0.00111492602
-0.001124088505
0.04381290193
-0.0003297712767
-0.0002566696329
-0.04322646101
0.02098199353
-0.02055522556
0.001707458233
-0.01901191031
-0.001491541939
0.01862565338
-0.003908664808
-0.02221724398
0.003147617084
-0.002769836877
0.002113691923
0.02163813848
0.0003963430919
0.04443929093
-0.0010227321
0.02112195524
-0.003348131778
-0.00380837486
-0.02108192157
0.02519281589
0.0008749524757
-0.000966386368
-0.02510138199
-0.02176989766
0.0001118689766
0.0216904292
-3.240051728e-05
0.0009079028137
0.02522854319
-0.0009436301179
0.04955152223
0.001711918735
-0.04952109228
-0.0009014497651
-0.0008408989194
0.02234083447
-0.02239120388
0.0001159373111
-6.556790645e-05
0.0007477691275
0.0231236561
1.301806071e-05
-0.02184139973
0.0001138183356
-4.231626873e-05
0.0001200256566
0.0222672759
-4.646708904e-05
0.001684422663
0.04957525392
-0.0008731419991
-0.0008350123587
0.02569496377
0.0009652687444
-0.0009400493237
-0.02572018319
0.001034535648
0.02561095506
-0.0009505269331
0.02511602615
0.000960351831
-0.0009474166478
-0.02512896133
0.0009650829283
0.02510930893
-0.0009583657096
0.02503475998
0.001386796115
-0.001444890706
-0.02497666539
0.001641040989
0.02534891248
-0.00195519349
0.02679381833
0.001308309073
-0.001522777521
-0.02657934988
0.00119837094
0.02684324751
-0.001247800125
0.003063971851
-0.003093808358
0.02497320923
0.001127774417
-0.000841484767
-0.02525949888
0.02470682729
-0.0009156805708
-0.04474988284
-0.01430485812
0.04101323489
-0.002961860815
0.003017949275
-0.01798780878
-0.02615162364
0.001167153663
0.02618284092
-0.05139964246
0.002212865591
0.05142780527
-0.002241028396
0.05149517157
0.002314861855
-0.002336900089
-0.05147313334
-0.0512745306
0.002096983264
0.05130759361
-0.002130046277
0.00218828301
-0.002217793612
-0.05137013185
-0.02603687127
0.001193556698
-0.05171422126
0.00267975376
0.0517318449
-0.002697377401
0.002818552647
-0.002833236224
-0.05176422446
-0.02541874094
0.001298033355
-0.0509896964
-0.000985790589
0.002062421313
0.05094760132
-0.05113298115
0.001983569177
0.05117182511
-0.00202241314
0.002065557725
-0.002099778244
-0.05124031008
0.02435219185
-0.0003589831928
-0.02463619154
0.0006429828802
-0.000348018952
-0.02544938556
0.000616278431
0.02518112608
-0.02545220113
0.001030206211
0.02538887565
-0.0009668807245
-0.02534884924
0.001444424034
0.02554546619
-0.05158617462
0.002533079882
0.05160596854
-0.002552873804
0.002637322843
-0.002659202944
-0.05169234116
0.002351839507
0.05151712587
-0.002373793798
0.002471750624
-0.002495670604
-0.05156225464
-0.0252913604
0.001329307278
0.02533932028
0.001099014087
-0.0009433074232
-0.02549502694
0.02477166124
-9.587555371e-05
-0.02505192767
0.0003761419811
-0.0257939924
-0.0001466470108
0.0003958044031
0.02554483501
0.02306528878
-0.02322075582
0.0001737116533
-1.82446116e-05
-0.02663555369
0.002288014036
0.02433121545
1.632421234e-05
-0.02740470119
0.00167920624
0.02769417684
-0.001968681892
0.02541629247
0.001315456821
-0.001501546386
-0.0252302029
0.02355877317
-0.002220629385
-0.02351523542
0.00217709163
-0.0004177201856
0.000710321978
0.02405959006
-0.0001389543572
-0.0260448072
0.0003897691575
-0.0001234217297
-0.02680282006
0.0003794499893
0.0265467918
-0.02653884257
0.001049562215
0.02639417552
-0.0009048951603
0.02613042408
0.001060371504
-0.0007709194169
-0.02641987617
0.02255702177
-0.02267824212
0.000109022078
1.219827217e-05
0.0001066249042
0.02291949668
3.916719757e-05
-0.0196240156
0.004476751862
0.01510132109
4.594265242e-05
-0.02466357493
0.002623108714
0.02555483488
-0.003514368667
0.01930138489
0.001379079229
-0.02075292534
7.24612153e-05
0.004345738325
0.01488518026
7.046631073e-05
0.01864776411
0.0003483118282
-0.0007121016839
-0.01828397426
0.0009417061133
0.01918028655
-0.001474228552
0.02209120965
0.0006398159992
-0.02284886297
0.0001178373188
0.0001805907611
0.02183681357
7.38053186e-05
-0.02528928308
0.0006334376063
0.02483643624
-0.02441901777
0.001257117197
0.02436219673
-0.001200296155
0.02398874931
0.00115039504
-0.001017470108
-0.02412167424
-0.02337368853
0.001593687768
0.02380376404
-0.002023763283
0.00134939358
-0.001396100497
-0.02437231085
-0.02577208574
0.001122618663
-0.02165666715
0.004351183517
0.02165122196
-0.02419238443
0.001744875745
0.0248069766
-0.002359467921
0.02655997761
0.001459883954
-0.001784545071
-0.02623531649
0.001158406838
0.02387599913
-0.001045656655
0.001530337119
-0.001838982041
-0.0238837395
-0.02239144708
0.002113859163
-0.001011972709
-0.02323034046
0.001381536563
0.02286077662
-0.02241689643
0.001267351646
0.02254231146
-0.001392766666
0.001516944897
-0.001922519306
-0.02296811412
0.02336599284
0.001748347423
-0.001560220966
-0.02355411929
0.02270263925
-0.0003486191186
-0.02091314072
0.001485562791
0.01944129788
-1.371994535e-05
-0.02355752312
0.001627685713
0.02395625524
-0.002026417837
0.02740694764
0.002237261183
-0.003276707411
-0.02636750141
-0.02393946683
0.0006946665948
0.02377256886
-0.0005277686306
0.001131964367
-0.001173371166
-0.02351611632
-0.02139659692
0.0004553504555
2.8105742e-05
-0.02737345976
0.0005565552205
0.02715261368
-0.0003357091444
0.02648348394
0.0005284795265
-0.0003015283699
-0.0267104351
0.001665656465
0.02780363945
-0.002062348272
0.00061852975
-0.0004017261127
-0.0275902634
-0.02263984508
0.0001050001315
0.02257845441
-4.360946793e-05
-0.02612316279
0.0007560467551
0.02592890329
-0.0005617872544
0.02535716633
0.0007197371151
-0.0005355689415
-0.02554133451
0.001167583684
0.02659931464
-0.001206920713
0.0007841672932
-0.0005941323046
-0.02631319778
-0.02272180455
0.0001092376003
-2.727812287e-05
-0.02205589958
6.499327946e-05
0.02196369294
2.721335846e-05
-0.02463903724
0.0006815475708
0.02445817108
-0.0005006814133
0.0006826890607
-0.0005124953368
-0.02410966055
0.0007137706394
0.02517694586
-0.000533550163
0.0006873116466
-0.000506281104
-0.02482006778
-0.02214196125
7.332557782e-05
1.273609597e-05
-0.02705394372
0.000367572614
0.02681343026
-0.0001270591544
0.02611019263
0.0003153177985
-7.957512458e-05
-0.0263459353
-0.02795477981
0.002129807792
0.02804504064
-0.002220068626
0.0004416404726
-0.0001649903579
-0.02733059383
-0.02518374348
0.02495639407
-0.0001206695387
0.02423429258
-0.0001016544722
-0.0244916213
0.0003158860389
0.02587393799
-7.963139826e-05
0.0003441589581
-0.0001177453596
-0.02541015708
-0.02547834613
0.000531758872
0.02522056701
-0.0002739797518
0.02443634615
0.0005568135745
-0.0002923678658
-0.02470079186
0.0005189965736
0.0262373563
-0.0002728689309
0.0005255820128
-0.0002703316013
-0.02573359654
-0.02337448715
0.002113749354
0.02343012952
-0.002169391718
0.003379717394
-0.004670879904
-0.0266636173
0.0005824988627
0.0241682652
-0.0003144179163
0.001260072492
-0.001024819073
-0.02360974057
-0.0005072068074
0.02312278885
-0.02373368293
0.001118100881
-9.303596586e-05
0.0003862495906
0.02447844762
0.00111466126
0.02518835047
-0.0009636914497
-0.02225038415
0.02212827869
2.906950125e-05
0.02125049732
-0.02176147228
3.768158019e-06
-0.02266802656
0.02256235961
-4.098006265e-05
-0.02237979265
3.353294039e-05
0.001525689003
0.01973500053
-1.019221105e-05
0.001943177191
-0.002579265363
-0.02676861302
-0.03139497381
0.004780077406
-2.065729149e-05
0.002277952558
0.0223705253
-0.002266447637
0.02813574532
-0.0280573826
0.002188084918
-0.004561983313
0.003394313179
0.02472644331
0.001451614414
0.02571953016
-0.001754852105
-0.02227168404
0.02227232921
-0.004562628485
0.02442607998
-0.02668992867
-2.598943162e-06
0.02394293199
-0.0001263595939
-0.001505438012
-0.02298687541
-0.02308691137
0.02298026509
-1.677544359e-05
-0.02277287302
-3.410789761e-05
0.0007947379069
0.02363876457
-7.422505683e-06
0.0001300705507
-0.02320182233
-1.515959401e-05
0.001051200085
-0.0009161559351
-0.02667388672
-0.02707175769
0.000399008186
0.001180554617
0.02774992861
0.02204623383
-0.02218240895
0.0001596570087
-2.348188198e-05
0.0001201838104
0.02243764386
-8.058981505e-07
0.001071488741
0.02583961623
-0.0007806808882
0.002071042616
-0.002326043926
-0.02440857362
-0.02116279419
0.001468850928
6.992766457e-05
0.0001982605166
0.02188863135
-4.065803731e-05
-0.05040280068
-0.0009928868923
0.001918455554
0.05044231495
-0.05075210069
0.001764624518
0.05080320521
-0.001815729039
0.0509642521
0.001851183975
-0.001903552315
-0.05091188376
0.001629036322
-0.0505359455
0.05059217633
-0.001685267158
0.001728953512
-0.001785013976
-0.05069604022
-0.0009539935435
-0.05037229405
0.001883838745
0.00187935057
0.05101481921
-0.001929917681
0.001961572417
-0.001997667975
-0.05109688559
-0.001040128268
-0.05102611098
0.002041811592
0.02591910908
0.0009476339379
-0.0009648887851
-0.02590185423
0.02761702898
-0.02787659716
0.0007012086553
-0.02782797685
0.001776799826
0.02818098481
-0.02681810317
0.002369843714
-0.02410823194
0.001751964806
0.02447001648
-0.02515631718
0.001084519898
0.02526406153
-0.00119226425
0.0002121902999
0.0212250183
-8.176759796e-05
0.02505087384
0.004432665091
0.0001293740405
-0.0144737236
0.0003076280345
-3.209353233e-05
-0.02173709135
0.0001638683457
0.000338156859
-0.02446642621
0.02428361999
-0.02469175214
0.0007462890132
0.02388415704
0.0007295991915
0.004629512877
-0.03066461223
-3.210091348e-05
0.02713564848
-0.02586555153
0.00335941592
0.02723364304
0.002123863068
0.02350285365
0.000783912111
-0.0006013166574
0.02314995875
0.0009542115507
0.02298603536
-0.02134653377
0.0008863100184
0.02161459113
-0.001154367387
0.001127800468
-0.001374329335
-0.02217036756
-0.0231980369
0.00171604386
-0.004716879866
0.02257383903
0.003264996081
-0.01951852205
0.02745367711
-0.01265203492
-0.003149051961
-0.01971760186
-0.01851193626
0.0002298378023
0.001054973849
-0.01981706214
0.0002501520313
-0.02192384557
0.001896897849
0.01503489596
-0.01495277158
-8.212437808e-05
0.03090631026
-0.02179055454
0.005919140243
0.02632291201
0.004601938526
-1.854028094e-05
0.02345378365
-0.02365092499
0.0003090103183
-0.0001267907717
0.02322338369
0.0003571907357
0.02159866791
-3.502947887e-05
0.02277529353
-0.02284466799
0.0001280834173
-5.870895972e-05
0.02272533546
0.0001177037224
-6.774565339e-05
0.02414359308
0.002204766468
-2.544753371e-05
0.02340189836
0.0007727603394
-3.106562558e-05
6.57784008e-05
-0.0224938228
3.684052595e-05
0.02534931954
-0.02557043945
0.000286898308
0.02516035803
0.0003048988178
0.02686374107
0.001117671096
-0.000249181206
0.0265052795
0.0006076427803
0.02285391951
2.055538293e-05
0.0001180763458
-0.02190133329
-5.814278083e-05
0.02383421007
-0.02401102417
0.0002948904473
0.0002971034092
0.02497188079
0.0003085029003
-0.0001220271071
0.02478771304
0.0003061948571
0.02220194638
-5.669758086e-05
0.02653654286
-0.02681152724
0.0005903021777
0.0006324492886
0.0273521523
0.001053389717
0.02582332355
-0.0009576041834
0.001009178554
-0.0009603487549
-0.02550103093
-0.02571704119
0.000611814589
0.0005913703721
0.02626105853
0.02463752631
-0.02484729264
0.0007665799039
-0.02547305713
0.0007389997153
0.02526581629
-0.02517418123
0.000941454636
0.02515444955
-0.0009217229588
0.02215906302
-0.0222373768
6.449514227e-05
1.381863859e-05
0.02207506557
6.682072673e-05
1.717672825e-05
0.02261787908
5.212381901e-05
5.533256343e-05
0.02253978
5.201279296e-05
2.608629132e-05
-0.01516797988
0.01514369203
2.42878472e-05
0.02198613368
7.685925587e-05
1.207263148e-05
0.0001040479192
0.02187473358
7.352179062e-06
0.001045937379
-0.001087637739
-0.02511461682
-0.02410143377
0.001253274323
0.0007884675023
0.02443155767
0.0003950005442
-0.0001491366794
-0.02529779153
0.02532451006
0.0006933980517
-0.02562290757
0.0250097535
0.0006908985376
0.0003110046295
-0.02352122871
-1.053173618e-05
0.02727046044
-0.02768743292
0.0007279771082
0.02692647675
0.0005176953402
0.02812123102
-0.02809696301
0.002263746028
-0.0008079129408
0.001241711042
2.073794142e-06
0.02324647999
-0.02408148108
0.0008322164474
2.784641011e-06
0.0003459880536
-2.017972634e-05
0.0001016145053
-0.02279725172
1.739509472e-05
0.02598585838
-0.02629124213
0.0004069982574
0.02568145963
0.0004134208207
0.0266014698
0.0004316318607
-9.838895132e-05
0.0004086166221
2.385601182e-05
0.0263990028
-0.03117400737
0.004767114027
7.890540689e-06
0.002308039086
9.482638159e-06
0.02215273803
-0.02222783818
0.004551852013
-0.01507124356
0.006049974227
3.007752375e-05
0.000442530335
2.95626353e-05
0.01488727354
-2.093281992e-06
0.01686659912
0.0004388273277
-0.0162082372
0.01715544574
0.00111799621
0.02015924466
-0.02409926155
0.002903969179
0.01750532936
0.001914537145
0.0007393781625
0.01719795291
0.002004431628
-0.0101089573
0.003207648662
0.002065378733
0.0001366321444
6.085858011e-05
3.886364514e-05
0.02389381751
-0.02282704309
0.003284409093
-0.005873883265
0.003902149249
0.001037118617
0.02284609471
0.001340982663
0.002132910783
-0.02324334242
0.02109352941
0.0005895920493
0.003831888202
0.0003784464821
0.002851607942
0.01361237234
0.0007439050518
0.0009603374216
-0.0002537432377
0.001032536924
-0.02032238124
0.0002515758639
0.0004225290564
0.0217091434
-0.02235646897
0.002132888363
-0.00454622918
0.004464818042
-5.770288686e-05
0.0001756348051
2.64361868e-05
0.02288382329
0.0005151952003
0.0009827047808
0.02292513027
-0.02301523781
0.0001286985913
-3.859105039e-05
0.0001250362176
-4.457393924e-05
0.02314240906
0.0002846726671
-2.518336615e-05
0.0001585542243
-3.138296861e-05
0.02578788062
-0.02599630486
0.000313424367
-7.526740615e-05
0.0002927085793
9.364205191e-06
0.0001268542535
5.260705847e-06
0.02622592987
0.0004062038806
0.0003388626186
0.02419523568
-0.02440060107
0.0002703586659
-9.993440136e-05
0.0002841459188
-3.757474805e-05
0.0001107590308
-5.077390504e-05
0.02460306578
0.0002954062888
0.0002757902911
-0.0001077962196
0.02658343998
0.0003377865012
-0.02311822722
0.02303238136
-2.195035742e-05
-0.0232172903
-2.799607754e-05
-0.02293386513
0.02284316492
1.112508751e-05
8.252614624e-05
1.599008287e-05
0.0003200308261
-0.0007664191393
0.02767604481
0.001135414971
-0.02439400541
0.02361588128
1.170499639e-05
-0.02664185136
2.777732283e-05
-0.02335487732
-2.740333087e-05
0.0002957346882
-3.473072973e-05
0.0006411856679
-0.0001212573297
0.02472776272
0.0003498886763
-0.02239148672
0.02230398824
-3.375885199e-05
-0.02248299374
-2.916251223e-05
-0.02221145342
0.02209973933
1.005962342e-05
0.000112771722
-2.023690326e-05
0.0003489131378
-8.486234161e-05
0.02563650999
0.0003222903353
-0.02275324497
0.02265465962
1.372300902e-05
1.028855318e-05
-0.0225722207
-2.851839791e-05
0.0001097161699
-2.727725412e-05
0.0003360690873
0.02231245554
5.75800448e-05
-0.02239018912
2.015354463e-05
6.337187157e-05
1.170686452e-05
-0.0002795844932
0.02496189342
0.0005382580822
-0.02496990584
0.02475369321
-0.02518630554
-0.02453376669
0.02430821955
0.0002844216683
0.0005455232318
0.02246940763
5.771421986e-05
1.265815447e-05
5.365565426e-05
2.556284828e-05
0.01970452387
0.00147258113
-0.02119113864
1.403364721e-05
0.004520083654
1.646033585e-05
-0.004499718738
0.02460490603
0.003324942226
-0.02217450492
0.02219486983
-0.0228713155
-0.03133180664
1.907537422e-05
0.00600675522
0.00394804395
-0.000376051172
0.02389197051
0.0006523458677
-0.02407066089
0.02379865764
-0.02342977459
-0.0004663599791
0.0005515161535
-0.000182633109
0.0008337460939
0.02167359065
1.850982118e-05
1.609203453e-05
0.0006328412756
-0.02415279627
-0.0002137279357
0.02401346597
-0.02435073094
0.0009701062476
0.02372410671
0.001407460146
0.02468448856
0.0007115145339
-0.0004488860245
0.0007826436401
-0.0001232346712
0.02198813712
1.690689594e-05
1.293690575e-05
0.02246212719
0.0001520845069
-5.185208414e-05
-6.680213461e-05
0.01516079443
0.004582757335
-8.55123332e-06
0.0152109359
-5.014147244e-05
0.006145277511
-0.02232931542
0.02686204048
-0.02484780721
0.004131044235
0.003545154879
0.02372625315
0.00227580612
-0.004623967216
0.003502413154
-0.01520397648
0.03141183873
0.006064466959
-0.01519120808
-1.27683959e-05
-0.01976102109
7.184519996e-06
0.004725901087
-3.991025034e-06
-0.0002129653268
0.02356054004
0.0005953572794
-0.02197222039
0.02176113114
-1.876076004e-06
1.159343394e-06
-0.02126741285
9.537501304e-07
0.0004984086542
-4.690361635e-06
0.001072073291
0.02287659064
0.000125925222
-2.225077538e-05
0.000133521716
-2.980409457e-05
0.02335378806
0.0002970857575
-1.210924205e-05
0.0001653555644
-1.338983212e-05
0.0001375973399
-0.02231314821
-6.858077909e-06
0.02475983718
-0.02507145879
0.0004492189516
0.02443981562
0.0004796785671
0.0253776627
0.0004239807454
-0.0001278217331
0.0004340256382
-3.326084634e-06
0.000554736716
-0.02165370452
-6.382638021e-05
0.02302702905
-0.02365070123
0.001178408892
0.0022680418
0.02408856711
0.0005495090351
-0.0002868428659
0.0007247087462
-5.191604119e-05
-0.001696529564
0.00187704775
-0.2285599961
0.00251133131
0.2282109269
-0.2284412821
-0.002280976193
-0.2289621148
-0.001461814197
0.2288082104
0.002749573249
-0.2283741668
0.003557760277
0.2279972578
-0.2282893017
-0.003265716377
-0.22891173
-0.002050869878
0.2287387907
0.003840316271
-0.228225486
0.004668400144
0.227988182
-0.2282739283
-0.004378677079
-0.2288993839
-0.002724277613
0.2287178536
0.004939918445
-0.2282682952
0.005783307159
0.2282061007
-0.2284726377
-0.00551114304
-0.2289418899
-0.003388863377
0.2288009576
0.006020618488
-0.2285020124
-0.002292123973
0.002556658697
-0.2277084702
0.003511890712
0.2270100764
-0.2273517131
-0.003170254041
-0.002531084859
0.2279571694
0.003926081718
-0.2272250163
0.00564330996
0.2261803387
-0.2267919813
-0.005017615576
-0.003653630011
0.2276736195
0.006301807667
-0.2266680795
0.00844436844
0.2258299946
-0.2265442162
-0.007709325002
-0.00501257068
0.2276159898
0.009168540495
-0.2265517909
0.01121330598
0.226259219
-0.2268906166
-0.0105675246
-0.006535772445
0.2278558134
0.01179845208
-0.2270914522
-0.00963068742
0.010896439
-0.2289837981
0.006015407343
0.2271833939
-0.225730632
-0.007453122658
-0.00333607397
0.2265953438
0.006160164961
-0.224906764
0.008630719572
0.2227218365
-0.2237108526
-0.007607589238
-0.005626077074
0.2254606164
0.00972196029
-0.2234408602
0.01315942952
0.2219127623
-0.2230433908
-0.01199608306
-0.008795210947
0.2250121281
0.01432280903
-0.2230562645
0.01771530009
0.2226577754