/*--------------------------------*- C++ -*----------------------------------*\
| =========                 |                                                 |
| \\      /  F ield         | OpenFOAM: The Open Source CFD Toolbox           |
|  \\    /   O peration     | Version:  v2012                                 |
|   \\  /    A nd           | Website:  www.openfoam.com                      |
|    \\/     M anipulation  |                                                 |
\*---------------------------------------------------------------------------*/
FoamFile
{
    version     2.0;
    format      ascii;
    class       pointVectorField;
    location    "1.97";
    object      pointDisplacement;
}
// * * * * * * * * * * * * * * * * * * * * * * * * * * * * * * * * * * * * * //

dimensions      [0 1 0 0 0 0 0];


internalField   nonuniform List<vector> 
6962
(
(0 0 0)
(0 0 0)
(0 0 0)
(0 0 0)
(0 0 0)
(0 0 0)
(0 0 0)
(0 0 0)
(0 0 0)
(0 0 0)
(-0.0009737362836 -0.00155048633 5.606626274e-15)
(0 0 0)
(0 0 0)
(0 0 0)
(0 0 0)
(0 0 0)
(0 0 0)
(0 0 0)
(0 0 0)
(0 0 0)
(0 0 0)
(0 0 0)
(0 0 0)
(0 0 0)
(0 0 0)
(-0.001731416221 -0.003047840648 9.964251646e-15)
(-0.001578463717 -0.002712075469 9.089951014e-15)
(-0.001350852134 -0.00226439542 7.771561172e-15)
(-0.006723655073 -0.01233913441 4.24521529e-14)
(-0.007224847764 -0.01358640672 4.560241074e-14)
(-0.01096358961 -0.02162451075 7.265021917e-14)
(-0.01034942338 -0.01992479672 6.861178292e-14)
(-0.02205873315 -0.04973758858 1.71876402e-13)
(-0.02247559697 -0.05190025503 1.749433931e-13)
(-0.02557343265 -0.06263720879 2.113031972e-13)
(-0.02522511929 -0.06033892069 2.086941731e-13)
(-0.03008657693 -0.08833650783 3.059635878e-13)
(-0.03021116968 -0.09077216228 3.066297216e-13)
(-0.03009279877 -0.09794041734 3.308187058e-13)
(-0.02989490706 -0.09511706542 3.29430927e-13)
(-0.02432643246 -0.103978929 0)
(-0.02440406322 -0.1066113437 0)
(-0.02160883961 -0.106695549 0)
(-0.02157028289 -0.1053797928 0)
(-0.02153208936 -0.1040639032 0)
(-0.01317791372 -0.1043155551 0)
(-0.01319601141 -0.1049728572 0)
(-0.01250388801 -0.1049932449 0)
(-0.0124858571 -0.1043361244 0)
(0 0 0)
(0 0 0)
(0 0 0)
(0 0 0)
(0 0 0)
(0 0 0)
(0 0 0)
(0 0 0)
(0 0 0)
(0 0 0)
(0 0 0)
(0 0 0)
(0 0 0)
(0 0 0)
(-0.001642023245 -0.00318216145 9.492406861e-15)
(-0.001855663239 -0.003517164934 1.072752998e-14)
(-0.001982896979 -0.003674147424 1.146305273e-14)
(-0.008004216612 -0.01622964428 5.072331444e-14)
(-0.007747183192 -0.01606807362 4.909961326e-14)
(-0.01156423005 -0.02515144969 7.692457782e-14)
(-0.01187186746 -0.02524397814 7.89923682e-14)
(-0.02351348431 -0.05849332683 1.835753771e-13)
(-0.02313991298 -0.05885740501 1.805500194e-13)
(-0.02620858254 -0.07067397105 2.169653346e-13)
(-0.02657081949 -0.0700900179 2.20143348e-13)
(-0.03087096459 -0.09982972513 3.139016824e-13)
(-0.03064191832 -0.1012114742 3.110567359e-13)
(-0.03029956023 -0.1083852171 3.330669074e-13)
(-0.0304559549 -0.1066989367 3.354538869e-13)
(-0.02432848101 -0.1145438608 0)
(-0.02440906035 -0.1171766137 0)
(-0.02160604999 -0.117262404 0)
(-0.02156576968 -0.1159463334 0)
(-0.02152547065 -0.1146296511 0)
(-0.01311656188 -0.1148870184 0)
(-0.01315686091 -0.1162037006 0)
(-0.01175541689 -0.1162465939 0)
(-0.01173525801 -0.115587947 0)
(-0.01171511786 -0.1149299116 0)
(-0.01241583987 -0.114908465 0)
(0 0 0)
(0 0 0)
(0 0 0)
(0 0 0)
(0 0 0)
(0 0 0)
(0 0 0)
(0 0 0)
(0 0 0)
(0 0 0)
(0 0 0)
(0 0 0)
(0 0 0)
(0 0 0)
(-0.0003834753474 -0.0008087989251 2.220446049e-15)
(-0.0006958456936 -0.001437816117 4.024558464e-15)
(-0.001033845099 -0.002091918497 5.981326545e-15)
(-0.005935798673 -0.013149522 3.763656053e-14)
(-0.005070973979 -0.01147572434 3.216871214e-14)
(-0.008265048842 -0.01961923469 5.502542866e-14)
(-0.009350465289 -0.02172434866 6.222800053e-14)
(-0.02027996513 -0.05508672708 1.581929032e-13)
(-0.01879913462 -0.05218433209 1.467159727e-13)
(-0.0218476839 -0.06427030569 1.808275751e-13)
(-0.02335428564 -0.06722944652 1.932065619e-13)
(-0.02849006021 -0.100237449 2.884081862e-13)
(-0.0272378853 -0.09788288553 2.75737766e-13)
(-0.02751486792 -0.1069200317 3.012173844e-13)
(-0.02858449939 -0.1087867437 3.13013504e-13)
(-0.02436565027 -0.123733274 3.556460682e-13)
(-0.02401153725 -0.1242646869 3.497757639e-13)
(-0.02172710194 -0.1267184994 3.564787354e-13)
(-0.02183377382 -0.1250878336 3.593098041e-13)
(-0.01343891667 -0.125419253 0)
(-0.01351951472 -0.1280526175 0)
(-0.01071656552 -0.1281384059 0)
(-0.01063596746 -0.1255050415 0)
(-0.01203747264 -0.1254621463 0)
(0 0 0)
(0 0 0)
(0 0 0)
(0 0 0)
(0 0 0)
(0 0 0)
(0 0 0)
(0 0 0)
(0 0 0)
(0 0 0)
(0 0 0)
(0 0 0)
(0 0 0)
(0 0 0)
(0 0 0)
(0 0 0)
(-9.418720511e-06 -2.06695916e-05 5.551115123e-17)
(-0.002255177688 -0.005429343891 1.432187702e-14)
(-0.001415456371 -0.003476048746 8.992806499e-15)
(-0.003293672531 -0.008494349878 2.198241589e-14)
(-0.004525118996 -0.01143646056 3.018418848e-14)
(-0.01320984773 -0.03911524674 1.034450303e-13)
(-0.01112480432 -0.0336502906 8.726352974e-14)
(-0.01378002712 -0.04420127256 1.146860384e-13)
(-0.01601587528 -0.05027595852 1.330324739e-13)
(-0.02186286953 -0.08383077761 2.221278717e-13)
(-0.0196077315 -0.07686799753 1.996874888e-13)
(-0.02051169997 -0.08691065099 2.258193632e-13)
(-0.02264259019 -0.09383141204 2.486622019e-13)
(-0.02125796204 -0.1168858183 3.096412016e-13)
(-0.01974863845 -0.1109984927 2.883526751e-13)
(-0.01845856305 -0.1166405982 3.029243523e-13)
(-0.01972643349 -0.1219716466 3.229916334e-13)
(-0.01311396634 -0.1303922763 3.447658825e-13)
(-0.0124764197 -0.1266734228 3.285427486e-13)
(-0.01003539582 -0.128041153 3.319011732e-13)
(-0.01051883612 -0.1314485871 3.473610288e-13)
(0 0 0)
(0 0 0)
(0 0 0)
(0 0 0)
(0 0 0)
(0 0 0)
(0 0 0)
(0 0 0)
(0 0 0)
(0 0 0)
(0 0 0)
(0 0 0)
(0 0 0)
(0 0 0)
(0 0 0)
(0 0 0)
(0 0 0)
(-8.268911596e-06 -2.148893758e-05 5.551115123e-17)
(0 0 0)
(-8.515254981e-05 -0.0002370015326 5.828670879e-16)
(-0.0005032928054 -0.001375510135 3.372302437e-15)
(-0.005089373351 -0.0163854174 4.014844013e-14)
(-0.003390923305 -0.01113771501 2.679800826e-14)
(-0.005054847517 -0.01764247238 4.246603069e-14)
(-0.007057369929 -0.02412884735 5.914713164e-14)
(-0.01215521983 -0.05098341646 1.251082571e-13)
(-0.009679254825 -0.04152372921 1.000310945e-13)
(-0.01074256045 -0.04989581255 1.202371536e-13)
(-0.01323288443 -0.06005381916 1.473821065e-13)
(-0.01389321105 -0.08387846276 2.058769821e-13)
(-0.01170729316 -0.0724957076 1.747213485e-13)
(-0.0112593177 -0.07854021591 1.892652701e-13)
(-0.01325867425 -0.09009005371 2.211009154e-13)
(-0.009309064736 -0.1022515582 2.507299923e-13)
(-0.007995243024 -0.09058591282 2.181588243e-13)
(-0.006436239778 -0.09239812066 2.224470608e-13)
(-0.007501576422 -0.1040583389 2.550737399e-13)
(0 0 0)
(0 0 0)
(0 0 0)
(0 0 0)
(0 0 0)
(0 0 0)
(0 0 0)
(0 0 0)
(0 0 0)
(0 0 0)
(0 0 0)
(0 0 0)
(0 0 0)
(0 0 0)
(0 0 0)
(0 0 0)
(0 0 0)
(0 0 0)
(0 0 0)
(0 0 0)
(0 0 0)
(-0.0002185079694 -0.0007590515605 1.734723476e-15)
(0 0 0)
(-0.000158836057 -0.000598052968 1.346145417e-15)
(-0.0007876789647 -0.002913834911 6.661338148e-15)
(-0.003366187488 -0.01541484106 3.522182546e-14)
(-0.001875325263 -0.008763324084 1.96925809e-14)
(-0.002528669949 -0.01283940934 2.885192085e-14)
(-0.004172468776 -0.02074079884 4.740652315e-14)
(-0.005491820027 -0.03673324471 8.397449403e-14)
(-0.003773038109 -0.02587175808 5.814793091e-14)
(-0.003836498404 -0.02980056605 6.698808175e-14)
(-0.005468612768 -0.04137003741 9.456324612e-14)
(-0.004070888135 -0.05104947131 1.166705621e-13)
(-0.002940248807 -0.03816046667 8.576472865e-14)
(-0.00235479207 -0.03947234478 8.870681967e-14)
(-0.003261925199 -0.0525501923 1.200844979e-13)
(0 0 0)
(0 0 0)
(0 0 0)
(0 0 0)
(0 0 0)
(0 0 0)
(0 0 0)
(0 0 0)
(0 0 0)
(0 0 0)
(0 0 0)
(0 0 0)
(0 0 0)
(0 0 0)
(0 0 0)
(0 0 0)
(0 0 0)
(0 0 0)
(0 0 0)
(0 0 0)
(0 0 0)
(0 0 0)
(0 0 0)
(0 0 0)
(0 0 0)
(0 0 0)
(0 0 0)
(0 0 0)
(-2.456247925e-05 -0.0001318841086 2.775557562e-16)
(-0.0004403728404 -0.003226221077 6.911138328e-15)
(-4.955200908e-05 -0.0003695907379 7.771561172e-16)
(-0.0001082227922 -0.0009195317836 1.942890293e-15)
(-0.0005577530227 -0.004649609965 9.950373858e-15)
(-0.0005732649356 -0.008161191944 1.747213485e-14)
(-0.0001851466374 -0.002700221324 5.689893001e-15)
(-0.0001586971583 -0.003042287491 6.411537967e-15)
(-0.0004696831921 -0.008761443849 1.876276912e-14)
(0 0 0)
(0 0 0)
(0 0 0)
(0 0 0)
(0 0 0)
(0 0 0)
(0 0 0)
(0 0 0)
(0 0 0)
(0 0 0)
(0 0 0)
(0 0 0)
(0 0 0)
(0 0 0)
(0 0 0)
(0 0 0)
(0 0 0)
(0 0 0)
(0 0 0)
(0 0 0)
(0 0 0)
(0 0 0)
(0 0 0)
(0 0 0)
(0 0 0)
(0 0 0)
(0 0 0)
(0 0 0)
(0 0 0)
(0 0 0)
(0 0 0)
(0 0 0)
(0 0 0)
(0 0 0)
(0 0 0)
(0 0 0)
(0 0 0)
(0 0 0)
(0 0 0)
(0 0 0)
(0 0 0)
(0 0 0)
(0 0 0)
(0 0 0)
(0 0 0)
(0 0 0)
(0 0 0)
(0 0 0)
(0 0 0)
(0 0 0)
(0 0 0)
(0 0 0)
(0 0 0)
(0 0 0)
(0 0 0)
(0 0 0)
(0 0 0)
(0 0 0)
(0 0 0)
(0 0 0)
(0 0 0)
(0 0 0)
(0 0 0)
(0 0 0)
(0 0 0)
(0 0 0)
(0 0 0)
(0 0 0)
(0 0 0)
(0 0 0)
(0 0 0)
(0 0 0)
(0 0 0)
(0 0 0)
(0 0 0)
(0 0 0)
(0 0 0)
(0 0 0)
(0 0 0)
(0 0 0)
(0 0 0)
(0 0 0)
(0 0 0)
(0 0 0)
(0 0 0)
(0 0 0)
(0 0 0)
(0 0 0)
(0 0 0)
(0 0 0)
(0 0 0)
(0 0 0)
(0 0 0)
(0 0 0)
(0 0 0)
(0 0 0)
(0 0 0)
(0 0 0)
(0 0 0)
(0 0 0)
(0 0 0)
(0 0 0)
(0 0 0)
(0 0 0)
(0 0 0)
(0 0 0)
(0 0 0)
(0 0 0)
(0 0 0)
(0 0 0)
(0 0 0)
(0 0 0)
(0 0 0)
(0 0 0)
(0 0 0)
(0 0 0)
(0 0 0)
(0 0 0)
(0 0 0)
(0 0 0)
(0 0 0)
(0 0 0)
(0 0 0)
(0 0 0)
(0 0 0)
(0 0 0)
(0 0 0)
(0 0 0)
(0 0 0)
(0 0 0)
(0 0 0)
(0 0 0)
(0 0 0)
(0 0 0)
(0 0 0)
(0 0 0)
(0 0 0)
(0 0 0)
(0 0 0)
(0 0 0)
(0 0 0)
(0 0 0)
(0 0 0)
(0 0 0)
(0 0 0)
(0 0 0)
(0 0 0)
(0 0 0)
(0 0 0)
(0 0 0)
(0 0 0)
(0 0 0)
(0 0 0)
(0 0 0)
(0 0 0)
(0 0 0)
(0 0 0)
(0 0 0)
(0 0 0)
(0 0 0)
(0 0 0)
(0 0 0)
(0 0 0)
(0 0 0)
(0 0 0)
(0 0 0)
(0 0 0)
(0 0 0)
(0 0 0)
(0 0 0)
(0 0 0)
(0 0 0)
(0 0 0)
(0 0 0)
(0 0 0)
(0 0 0)
(0 0 0)
(0 0 0)
(0 0 0)
(0 0 0)
(0 0 0)
(0 0 0)
(0 0 0)
(0 0 0)
(0 0 0)
(0 0 0)
(0 0 0)
(0 0 0)
(0 0 0)
(0 0 0)
(0 0 0)
(0 0 0)
(0 0 0)
(0 0 0)
(0 0 0)
(0 0 0)
(0 0 0)
(0 0 0)
(0 0 0)
(0 0 0)
(0 0 0)
(0 0 0)
(0 0 0)
(0 0 0)
(0 0 0)
(0 0 0)
(0 0 0)
(0 0 0)
(0 0 0)
(0 0 0)
(0 0 0)
(0 0 0)
(0 0 0)
(0 0 0)
(0 0 0)
(0 0 0)
(0 0 0)
(0 0 0)
(0 0 0)
(0 0 0)
(0 0 0)
(0 0 0)
(0 0 0)
(0 0 0)
(0 0 0)
(0 0 0)
(0 0 0)
(0 0 0)
(0 0 0)
(0 0 0)
(0 0 0)
(0 0 0)
(0 0 0)
(0 0 0)
(0 0 0)
(0 0 0)
(0 0 0)
(0 0 0)
(0 0 0)
(0 0 0)
(0 0 0)
(0 0 0)
(0 0 0)
(0 0 0)
(0 0 0)
(0 0 0)
(0 0 0)
(0 0 0)
(0 0 0)
(0 0 0)
(0 0 0)
(0 0 0)
(0 0 0)
(0 0 0)
(0 0 0)
(0 0 0)
(0 0 0)
(0 0 0)
(0 0 0)
(0 0 0)
(0 0 0)
(0 0 0)
(0 0 0)
(0 0 0)
(0 0 0)
(0 0 0)
(0 0 0)
(0 0 0)
(0 0 0)
(0 0 0)
(0 0 0)
(0 0 0)
(0 0 0)
(0 0 0)
(0 0 0)
(0 0 0)
(0 0 0)
(0 0 0)
(0 0 0)
(0 0 0)
(0 0 0)
(0 0 0)
(0 0 0)
(0 0 0)
(0 0 0)
(0 0 0)
(0 0 0)
(0 0 0)
(0 0 0)
(0 0 0)
(0 0 0)
(0 0 0)
(0 0 0)
(0 0 0)
(0 0 0)
(0 0 0)
(0 0 0)
(0 0 0)
(0 0 0)
(0 0 0)
(0 0 0)
(0 0 0)
(0 0 0)
(0 0 0)
(0 0 0)
(0 0 0)
(0 0 0)
(0 0 0)
(0 0 0)
(0 0 0)
(0 0 0)
(0 0 0)
(0 0 0)
(0 0 0)
(0 0 0)
(0 0 0)
(0 0 0)
(0 0 0)
(0 0 0)
(0 0 0)
(0 0 0)
(0 0 0)
(0 0 0)
(0 0 0)
(0 0 0)
(0 0 0)
(0 0 0)
(0 0 0)
(0 0 0)
(0 0 0)
(0 0 0)
(0 0 0)
(0 0 0)
(0 0 0)
(0 0 0)
(0 0 0)
(0 0 0)
(0 0 0)
(0 0 0)
(0 0 0)
(0 0 0)
(0 0 0)
(0 0 0)
(0 0 0)
(0 0 0)
(0 0 0)
(0 0 0)
(0 0 0)
(0 0 0)
(0 0 0)
(0 0 0)
(0 0 0)
(0 0 0)
(0 0 0)
(0 0 0)
(0 0 0)
(0 0 0)
(0 0 0)
(0 0 0)
(0 0 0)
(0 0 0)
(0 0 0)
(0 0 0)
(0 0 0)
(0 0 0)
(0 0 0)
(0 0 0)
(0 0 0)
(0 0 0)
(0 0 0)
(0 0 0)
(0 0 0)
(0 0 0)
(0 0 0)
(0 0 0)
(0 0 0)
(0 0 0)
(0 0 0)
(0 0 0)
(0 0 0)
(0 0 0)
(0 0 0)
(0 0 0)
(0 0 0)
(0 0 0)
(0 0 0)
(0 0 0)
(0 0 0)
(0 0 0)
(0 0 0)
(0 0 0)
(0 0 0)
(0 0 0)
(0 0 0)
(0 0 0)
(0 0 0)
(0 0 0)
(0 0 0)
(0 0 0)
(0 0 0)
(0 0 0)
(0 0 0)
(0 0 0)
(0 0 0)
(0 0 0)
(0 0 0)
(0 0 0)
(0 0 0)
(0 0 0)
(0 0 0)
(0 0 0)
(0 0 0)
(0 0 0)
(0 0 0)
(0 0 0)
(0 0 0)
(0 0 0)
(0 0 0)
(0 0 0)
(0 0 0)
(0 0 0)
(0 0 0)
(0 0 0)
(0 0 0)
(0 0 0)
(0 0 0)
(0 0 0)
(0 0 0)
(0 0 0)
(0 0 0)
(0 0 0)
(0 0 0)
(0 0 0)
(0 0 0)
(0 0 0)
(0 0 0)
(0 0 0)
(0 0 0)
(0 0 0)
(0 0 0)
(0 0 0)
(0 0 0)
(0 0 0)
(0 0 0)
(0 0 0)
(0 0 0)
(0 0 0)
(0 0 0)
(0 0 0)
(0 0 0)
(0 0 0)
(0 0 0)
(0 0 0)
(0 0 0)
(0 0 0)
(0 0 0)
(0 0 0)
(0 0 0)
(0 0 0)
(0 0 0)
(0 0 0)
(0 0 0)
(0 0 0)
(0 0 0)
(0 0 0)
(0 0 0)
(0 0 0)
(0 0 0)
(0 0 0)
(0 0 0)
(0 0 0)
(0 0 0)
(0 0 0)
(0 0 0)
(0 0 0)
(0 0 0)
(0 0 0)
(0 0 0)
(0 0 0)
(0 0 0)
(0 0 0)
(0 0 0)
(0 0 0)
(0 0 0)
(0 0 0)
(0 0 0)
(0 0 0)
(0 0 0)
(0 0 0)
(0 0 0)
(0 0 0)
(0 0 0)
(0 0 0)
(0 0 0)
(0 0 0)
(0 0 0)
(0 0 0)
(0 0 0)
(0 0 0)
(0 0 0)
(0 0 0)
(0 0 0)
(0 0 0)
(0 0 0)
(0 0 0)
(0 0 0)
(0 0 0)
(0 0 0)
(0 0 0)
(0 0 0)
(0 0 0)
(0 0 0)
(0 0 0)
(0 0 0)
(0 0 0)
(0 0 0)
(0 0 0)
(0 0 0)
(0 0 0)
(0 0 0)
(0 0 0)
(0 0 0)
(0 0 0)
(0 0 0)
(0 0 0)
(0 0 0)
(0 0 0)
(0 0 0)
(0 0 0)
(0 0 0)
(0 0 0)
(0 0 0)
(0 0 0)
(0 0 0)
(0 0 0)
(0 0 0)
(0 0 0)
(0 0 0)
(0 0 0)
(0 0 0)
(0 0 0)
(0 0 0)
(0 0 0)
(0 0 0)
(0 0 0)
(0 0 0)
(0 0 0)
(0 0 0)
(0 0 0)
(0 0 0)
(0 0 0)
(0 0 0)
(0 0 0)
(0 0 0)
(0 0 0)
(0 0 0)
(0 0 0)
(0 0 0)
(0 0 0)
(0 0 0)
(0 0 0)
(0 0 0)
(0 0 0)
(0 0 0)
(0 0 0)
(0 0 0)
(0 0 0)
(0 0 0)
(0 0 0)
(0 0 0)
(0 0 0)
(0 0 0)
(0 0 0)
(0 0 0)
(0 0 0)
(0 0 0)
(0 0 0)
(0 0 0)
(0 0 0)
(0 0 0)
(0 0 0)
(0 0 0)
(0 0 0)
(0 0 0)
(0 0 0)
(0 0 0)
(0 0 0)
(0 0 0)
(0 0 0)
(0 0 0)
(0 0 0)
(0 0 0)
(0 0 0)
(0 0 0)
(0 0 0)
(0 0 0)
(0 0 0)
(0 0 0)
(0 0 0)
(0 0 0)
(0 0 0)
(0 0 0)
(0 0 0)
(0 0 0)
(0 0 0)
(0 0 0)
(0 0 0)
(0 0 0)
(0 0 0)
(0 0 0)
(0 0 0)
(0 0 0)
(0 0 0)
(0 0 0)
(0 0 0)
(0 0 0)
(0 0 0)
(0 0 0)
(0 0 0)
(0 0 0)
(0 0 0)
(0 0 0)
(0 0 0)
(0 0 0)
(0 0 0)
(0 0 0)
(0 0 0)
(0 0 0)
(0 0 0)
(-0.01246786301 -0.1036782071 0)
(-0.01315985848 -0.1036576396 0)
(-0.012395681 -0.1142498181 0)
(-0.01309640301 -0.1142283715 0)
(-0.02149436636 -0.1027473869 0)
(-0.02145639874 -0.1014308782 0)
(-0.0242497727 -0.1013462398 0)
(-0.0131419087 -0.10299917 0)
(-0.01452821793 -0.1029577805 0)
(-0.01456496244 -0.1042743267 0)
(-0.01303347863 -0.0990504557 0)
(-0.02148517162 -0.1133129689 0)
(-0.02165305636 -0.1120282342 0)
(-0.02445180145 -0.1119390853 0)
(-0.01307626286 -0.1135703361 0)
(-0.01447776804 -0.113527441 0)
(-0.01451806706 -0.1148441232 0)
(-0.01460168636 -0.1055902001 0)
(-0.01321439302 -0.1056314361 0)
(-0.01332704096 -0.10957996 0)
(-0.01263455625 -0.1096005424 0)
(-0.01261533904 -0.1089426625 0)
(-0.01330782188 -0.1089220189 0)
(-0.007779059645 -0.1097450509 0)
(-0.007748103136 -0.109418815 0)
(-0.008106526464 -0.1094071103 0)
(-0.008130009617 -0.1097343708 0)
(-0.007600294469 -0.1044844913 0)
(-0.007972912165 -0.1044715565 0)
(-0.007989047274 -0.1047987358 0)
(-0.007621812281 -0.1048111386 0)
(-0.01199717362 -0.1241454641 0)
(-0.01339861764 -0.1241025708 0)
(-0.007586019122 -0.1041562757 0)
(-0.007961876698 -0.1041429969 0)
(-0.01305154698 -0.0997087993 0)
(-0.01235955339 -0.09972942788 0)
(-0.007232435687 -0.1044969132 0)
(-0.007211362569 -0.1041693954 0)
(-0.007511743706 -0.1150548894 0)
(-0.007492706761 -0.114390699 0)
(-0.007839919361 -0.1143819084 0)
(-0.008189444388 -0.1143742714 0)
(-0.008211084712 -0.1150353214 0)
(-0.00815617239 -0.1100611819 0)
(-0.007811288192 -0.1100712479 0)
(-0.01334649717 -0.110237649 0)
(-0.01265394756 -0.110258111 0)
(-0.007509790349 -0.1100790678 0)
(-0.007475129176 -0.1097531901 0)
(-0.006812715707 -0.1150762842 0)
(-0.006798026932 -0.1144119607 0)
(-0.007147286022 -0.1143994347 0)
(-0.007260567803 -0.1048228684 0)
(-0.007438813927 -0.1094276691 0)
(-0.00406725131 -0.1073922626 0)
(-0.003709409331 -0.1074045616 0)
(-0.003687478274 -0.1070792125 0)
(-0.004042492987 -0.1070669388 0)
(-0.007800643311 -0.1071030499 0)
(-0.008124463356 -0.1070951589 0)
(-0.00813635313 -0.1074236312 0)
(-0.007818329775 -0.1074309162 0)
(-0.01049138549 -0.1070291431 0)
(-0.01050980018 -0.1076868027 0)
(-0.009824880058 -0.1077065415 0)
(-0.009806773015 -0.1070489336 0)
(-0.01056673851 -0.1096611377 0)
(-0.009881696079 -0.1096808802 0)
(-0.009871511178 -0.1093521109 0)
(-0.009862062016 -0.1090233803 0)
(-0.01054740087 -0.1090033227 0)
(-0.01041737601 -0.1043970461 0)
(-0.01043564781 -0.1050540368 0)
(-0.009749200664 -0.1050738835 0)
(-0.009730384085 -0.1044170931 0)
(-0.00978787282 -0.1063914112 0)
(-0.01047291151 -0.1063715464 0)
(-0.007777419755 -0.1067762712 0)
(-0.008107521991 -0.106767637 0)
(-0.007617325037 -0.1018415278 0)
(-0.007953833648 -0.1018322079 0)
(-0.007966474136 -0.1021612081 0)
(-0.007633749692 -0.1021701674 0)
(-0.01034478936 -0.1017634364 0)
(-0.01036311168 -0.1024220783 0)
(-0.009676729442 -0.1024420455 0)
(-0.009658286673 -0.1017834685 0)
(-0.009712330711 -0.1037592387 0)
(-0.01039932264 -0.1037391917 0)
(-0.01028979739 -0.09979069461 0)
(-0.009602199517 -0.0998109438 0)
(-0.009639612383 -0.1011253271 0)
(-0.01032642272 -0.1011053468 0)
(-0.007598571722 -0.1015132044 0)
(-0.00793954757 -0.1015034417 0)
(-0.007283593396 -0.1018505791 0)
(-0.00725883359 -0.1015228068 0)
(-0.007306010438 -0.1021786068 0)
(-0.01058643186 -0.1103185746 0)
(-0.009902054652 -0.1103380519 0)
(-0.009891630743 -0.1100094735 0)
(-0.01050104859 -0.1123728636 0)
(-0.009812905457 -0.1123672976 0)
(-0.009889312877 -0.1119977423 0)
(-0.00992340164 -0.1116575178 0)
(-0.0106086824 -0.1116475621 0)
(-0.007742448168 -0.1124278513 0)
(-0.007860072547 -0.1120547696 0)
(-0.008186571565 -0.1120504082 0)
(-0.00807727667 -0.1124314375 0)
(-0.007570881095 -0.1123458738 0)
(-0.007648999849 -0.1120462326 0)
(-0.004310737632 -0.1126388436 0)
(-0.004295385815 -0.1123114567 0)
(-0.004626038918 -0.1123086209 0)
(-0.004641599164 -0.1126358178 0)
(-0.004157177592 -0.1100276065 0)
(-0.004498233927 -0.1100204734 0)
(-0.004512709216 -0.1103486217 0)
(-0.004172857278 -0.1103551057 0)
(-0.007480591458 -0.1071104582 0)
(-0.00745023939 -0.1067845711 0)
(-0.004389123746 -0.1070345378 0)
(-0.004486136095 -0.1073028034 0)
(-0.004142262353 -0.1097000838 0)
(-0.004485787636 -0.1096920182 0)
(-0.004405781855 -0.107721205 0)
(-0.00407314955 -0.1077247747 0)
(-0.007508046488 -0.107437291 0)
(-0.003721351515 -0.1077347462 0)
(-0.003819633225 -0.1100332853 0)
(-0.00380253647 -0.1097066864 0)
(-0.0217672461 -0.1225291329 0)
(-0.02450331371 -0.1221331002 3.58602037e-13)
(-0.01335833733 -0.1227865001 0)
(-0.01475984251 -0.122743605 0)
(-0.01616134769 -0.1227007098 0)
(-0.01624192703 -0.1253334627 0)
(-0.01455836609 -0.1161608054 0)
(-0.01327773928 -0.1201531357 0)
(-0.01187629525 -0.120196029 0)
(-0.01183599622 -0.1188793468 0)
(-0.01323744025 -0.1188364535 0)
(-0.007671822521 -0.1203247132 0)
(-0.007631523493 -0.1190080309 0)
(-0.009032985864 -0.1189651371 0)
(-0.009073284892 -0.1202818193 0)
(-0.008231506925 -0.1156945724 0)
(-0.007531206517 -0.115715394 0)
(-0.007749895328 -0.1084271709 0)
(-0.008102087762 -0.1084160855 0)
(-0.008087839072 -0.1087485408 0)
(-0.007721266932 -0.1087608009 0)
(-0.009156161794 -0.1083836403 0)
(-0.009163333833 -0.1087139709 0)
(-0.008812116647 -0.1087247205 0)
(-0.00880878993 -0.1083940273 0)
(-0.009193297571 -0.1097009703 0)
(-0.008843362783 -0.1097116193 0)
(-0.00882976252 -0.1093832606 0)
(-0.009181893298 -0.1093723607 0)
(-0.006830912594 -0.1157368275 0)
(-0.006270335688 -0.1203676078 0)
(-0.00623003666 -0.1190509255 0)
(-0.007540024163 -0.1005306915 0)
(-0.007182863515 -0.1005420514 0)
(-0.007158751329 -0.1002152387 0)
(-0.007521313027 -0.1002033462 0)
(-0.007627516725 -0.1031615188 0)
(-0.007602704575 -0.1034942363 0)
(-0.007242719904 -0.1035059275 0)
(-0.007293369225 -0.1031705829 0)
(-0.007805117746 -0.1128018421 0)
(-0.007352404551 -0.1128830324 0)
(-0.01025256194 -0.112998108 0)
(-0.009550616815 -0.113019592 0)
(-0.009601994329 -0.1127162395 0)
(-0.01031355152 -0.1149728087 0)
(-0.009612627327 -0.1149936494 0)
(-0.009592120238 -0.1143356253 0)
(-0.01029320918 -0.1143141674 0)
(-0.009205428224 -0.1100293127 0)
(-0.008858299111 -0.1100396311 0)
(-0.009241559329 -0.1110158172 0)
(-0.008902854729 -0.111025388 0)
(-0.00888935806 -0.110696414 0)
(-0.009230384705 -0.110686711 0)
(-0.007908928604 -0.111051034 0)
(-0.007878742787 -0.1107239787 0)
(-0.008210536663 -0.1107154152 0)
(-0.008234099689 -0.1110432853 0)
(-0.003837547595 -0.110359798 0)
(-0.004263052398 -0.1119908332 0)
(-0.007618344811 -0.1110578465 0)
(-0.007584199847 -0.1107310348 0)
(-0.00558999123 -0.1113116464 0)
(-0.00556650706 -0.1109877527 0)
(-0.005892231117 -0.1109670711 0)
(-0.00599610693 -0.1112269853 0)
(-0.004708105297 -0.1151437596 0)
(-0.004688570213 -0.1144850936 0)
(-0.005391071114 -0.1144623683 0)
(-0.005409511882 -0.1151216799 0)
(-0.004686785656 -0.1129529872 0)
(-0.0043551407 -0.1129570163 0)
(-0.007700124361 -0.1057934139 0)
(-0.007356883379 -0.1058033684 0)
(-0.007324768914 -0.1054756987 0)
(-0.007673488576 -0.1054651481 0)
(-0.007371754869 -0.1087928616 0)
(-0.007341036575 -0.1085176088 0)
(-0.00401868297 -0.1060215988 0)
(-0.003923517134 -0.105755664 0)
(-0.003945216751 -0.1064368514 0)
(-0.009126124434 -0.1070682356 0)
(-0.009135328973 -0.1073969736 0)
(-0.00879759912 -0.1074063922 0)
(-0.008788453866 -0.1070775911 0)
(-0.008806538423 -0.1080644643 0)
(-0.009148908622 -0.1080546589 0)
(-0.007795442763 -0.1080925334 0)
(-0.008123573413 -0.108084082 0)
(-0.008048428163 -0.1057828759 0)
(-0.00806865383 -0.1061117052 0)
(-0.007726440264 -0.1061216282 0)
(-0.009084684038 -0.1057522616 0)
(-0.009095204666 -0.106082 0)
(-0.008753937142 -0.1060918329 0)
(-0.008741706026 -0.105762208 0)
(-0.008777613097 -0.1067493928 0)
(-0.009116317697 -0.106739822 0)
(-0.007559343613 -0.1008577121 0)
(-0.007207834752 -0.1008685318 0)
(-0.007323143976 -0.1028374075 0)
(-0.007644046893 -0.1028296058 0)
(-0.008248450666 -0.111372172 0)
(-0.007929244763 -0.1113788199 0)
(-0.009248579108 -0.1113451731 0)
(-0.008910977182 -0.1113547714 0)
(-0.009121352444 -0.1123863212 0)
(-0.008773225476 -0.1124000368 0)
(-0.008862304616 -0.1120285021 0)
(-0.009204383398 -0.1120171753 0)
(-0.00571226366 -0.1125950296 0)
(-0.005660067449 -0.112283033 0)
(-0.006052353646 -0.1122557232 0)
(-0.006204821821 -0.1125290861 0)
(-0.005932408924 -0.1116375928 0)
(-0.00560231571 -0.1116399217 0)
(-0.007650412982 -0.1113838036 0)
(-0.005504823077 -0.109985564 0)
(-0.005606020124 -0.1102493553 0)
(-0.005200542815 -0.1103338745 0)
(-0.005179981904 -0.1100068918 0)
(-0.005244652367 -0.1113202572 0)
(-0.005226668353 -0.1109938691 0)
(-0.004226921123 -0.1113381232 0)
(-0.004207488849 -0.1110106163 0)
(-0.004544109507 -0.1110065572 0)
(-0.004561070089 -0.111334507 0)
(-0.007388429096 -0.1061310554 0)
(-0.004186463852 -0.1064780708 0)
(-0.004104433993 -0.1087133251 0)
(-0.004450541046 -0.1087048133 0)
(-0.004461228667 -0.1090346078 0)
(-0.004115708708 -0.1090431017 0)
(-0.005154110289 -0.1096831936 0)
(-0.005403121939 -0.1097205026 0)
(-0.004095824795 -0.1083830385 0)
(-0.004445274952 -0.1083729552 0)
(-0.007497674434 -0.1080976069 0)
(-0.009043279205 -0.1044374496 0)
(-0.009052398255 -0.1047653946 0)
(-0.008705637949 -0.1047757628 0)
(-0.008695054905 -0.1044479851 0)
(-0.00872941001 -0.1054324627 0)
(-0.009073548109 -0.1054224196 0)
(-0.008028015285 -0.10545393 0)
(-0.007972843617 -0.1031513169 0)
(-0.007964183816 -0.1034823769 0)
(-0.009009340371 -0.1031205727 0)
(-0.009016914295 -0.1034500341 0)
(-0.008671558697 -0.1034602981 0)
(-0.008665754545 -0.1031306602 0)
(-0.008685483432 -0.1041192583 0)
(-0.009033220358 -0.1041087989 0)
(-0.006915632185 -0.1045068543 0)
(-0.006883407123 -0.1041823712 0)
(-0.006852432923 -0.1038723572 0)
(-0.007210308843 -0.1038393672 0)
(-0.007585679046 -0.1038261645 0)
(-0.007845084697 -0.1103972745 0)
(-0.007546800901 -0.1104045063 0)
(-0.007646948639 -0.1051376139 0)
(-0.007292146728 -0.1051488404 0)
(-0.006983066449 -0.1051573209 0)
(-0.006947907043 -0.1048317645 0)
(-0.007724358014 -0.1090911952 0)
(-0.007403544682 -0.1091035239 0)
(-0.003827252885 -0.105486641 0)
(-0.003666017035 -0.1050302136 0)
(-0.008973916953 -0.1018031904 0)
(-0.008983566428 -0.1021324658 0)
(-0.008642663966 -0.1021422262 0)
(-0.008632769869 -0.1018129583 0)
(-0.008659399991 -0.1028010391 0)
(-0.009001217917 -0.1027911894 0)
(-0.007977900846 -0.1028205507 0)
(-0.007894925795 -0.1005195231 0)
(-0.007909661811 -0.1008469901 0)
(-0.008934841653 -0.1004884907 0)
(-0.00894445182 -0.1008164818 0)
(-0.008601414524 -0.1008264913 0)
(-0.00859107236 -0.1004985838 0)
(-0.008622449553 -0.1014837647 0)
(-0.008964145167 -0.1014739187 0)
(-0.006952222865 -0.1018593745 0)
(-0.006921745872 -0.1015322057 0)
(-0.006890897201 -0.1012052931 0)
(-0.007233324812 -0.1011953635 0)
(-0.007578994176 -0.1011851511 0)
(-0.007644498098 -0.1024993479 0)
(-0.007322159893 -0.1025072547 0)
(-0.007007106833 -0.1025143877 0)
(-0.006981553874 -0.1021867009 0)
(-0.007919959044 -0.1117114294 0)
(-0.008239430159 -0.1117054467 0)
(-0.008568435336 -0.1116969686 0)
(-0.008521949424 -0.1120401435 0)
(-0.008423876006 -0.1124158098 0)
(-0.006564983972 -0.1125165937 0)
(-0.006448360999 -0.1121815941 0)
(-0.006761509203 -0.1125512242 0)
(-0.007669004032 -0.1117148254 0)
(-0.004578097701 -0.1116610469 0)
(-0.004245193939 -0.1116647473 0)
(-0.005258742004 -0.1116478052 0)
(-0.005356211042 -0.112608192 0)
(-0.005307714509 -0.1122946742 0)
(-0.00718766353 -0.1071172813 0)
(-0.007153481114 -0.1067922459 0)
(-0.007120463158 -0.1064662567 0)
(-0.007419548223 -0.1064582046 0)
(-0.007752311232 -0.1064493053 0)
(-0.003989453086 -0.1067533765 0)
(-0.004286987005 -0.1067520441 0)
(-0.004657501961 -0.1077572068 0)
(-0.004757505212 -0.1080229935 0)
(-0.004428580953 -0.1080459154 0)
(-0.004083288642 -0.1080546472 0)
(-0.007821620928 -0.1077604474 0)
(-0.007522555598 -0.1077657444 0)
(-0.00725725672 -0.1077668859 0)
(-0.007222905181 -0.1074433249 0)
(-0.003757493721 -0.1087224134 0)
(-0.003745609191 -0.1083935125 0)
(-0.006773194854 -0.09989942732 0)
(-0.006801376636 -0.1002266052 0)
(-0.00648873085 -0.1002359905 0)
(-0.006458037441 -0.09990895076 0)
(-0.006830206798 -0.1005529674 0)
(-0.006519325169 -0.1005619927 0)
(-0.006990639168 -0.1031765429 0)
(-0.006824952008 -0.1035976786 0)
(-0.006779731341 -0.1031463926 0)
(-0.008897616689 -0.1127402466 0)
(-0.008539704809 -0.1127542617 0)
(-0.00886763617 -0.1136966989 0)
(-0.00851469291 -0.1137050528 0)
(-0.008499467036 -0.1133755808 0)
(-0.008854324841 -0.1133677805 0)
(-0.007470579037 -0.1137125242 0)
(-0.007446416271 -0.1133698589 0)
(-0.007788385982 -0.1133783684 0)
(-0.007811601757 -0.1137124929 0)
(-0.008183556405 -0.1103878945 0)
(-0.008528304189 -0.1103777715 0)
(-0.008548696478 -0.1107060447 0)
(-0.008566283091 -0.1110346487 0)
(-0.005535971378 -0.1106656663 0)
(-0.005785061901 -0.1107039523 0)
(-0.007145756832 -0.1137126718 0)
(-0.007159118453 -0.1133474335 0)
(-0.006088097179 -0.1137713647 0)
(-0.006090749522 -0.1134352242 0)
(-0.006457680937 -0.1134093026 0)
(-0.006447271273 -0.1137511897 0)
(-0.006223989762 -0.1128765565 0)
(-0.005846453198 -0.1128813781 0)
(-0.007053333948 -0.1058115571 0)
(-0.007018840526 -0.1054839603 0)
(-0.006617915125 -0.1015404031 0)
(-0.006584683253 -0.1012136246 0)
(-0.00665097526 -0.1018673704 0)
(-0.006860177328 -0.1008789887 0)
(-0.006551530755 -0.1008876395 0)
(-0.007019253832 -0.1028434642 0)
(-0.006749489587 -0.1028451097 0)
(-0.006716979335 -0.1025213086 0)
(-0.006683980355 -0.1021943394 0)
(-0.008576668306 -0.1113639628 0)
(-0.005639149075 -0.111958571 0)
(-0.005979402769 -0.1119520135 0)
(-0.006301266512 -0.1119342047 0)
(-0.006181772775 -0.1116758092 0)
(-0.005211621573 -0.1106652486 0)
(-0.00486916216 -0.1106711391 0)
(-0.004856602804 -0.1103407897 0)
(-0.004840873323 -0.1100128634 0)
(-0.007087087385 -0.1061391766 0)
(-0.004821612568 -0.1093537606 0)
(-0.004802571933 -0.1090276496 0)
(-0.005129144311 -0.1090060851 0)
(-0.005229634583 -0.1092681841 0)
(-0.004777765928 -0.1087033679 0)
(-0.005027393878 -0.1087404131 0)
(-0.004828988293 -0.1096841462 0)
(-0.004855603667 -0.1082861451 0)
(-0.007288761413 -0.1080662326 0)
(-0.01035618875 -0.01943979406 6.868117186e-14)
(-0.006682718853 -0.01195700705 4.220235272e-14)
(-0.02188865718 -0.04814923595 1.7069679e-13)
(-0.01823032725 -0.03792730758 1.343092304e-13)
(-0.01808198084 -0.0385765401 1.331434962e-13)
(-0.02504593951 -0.05846076995 2.074451722e-13)
(-0.0299127105 -0.08577024895 3.047978536e-13)
(-0.02916549269 -0.07766445849 2.759181772e-13)
(-0.0293472104 -0.08004448013 2.771810559e-13)
(-0.02973571309 -0.09242347554 3.284178485e-13)
(-0.02679550077 -0.1003659514 3.563260798e-13)
(-0.02690395459 -0.1030946092 3.567424134e-13)
(-0.02417423059 -0.09871406731 0)
(-0.02138165165 -0.09879868138 0)
(-0.01859255859 -0.09888318876 0)
(-0.01998655472 -0.09884095192 0)
(-0.01167744089 -0.0241965613 7.745193376e-14)
(-0.007822689518 -0.0154573316 4.943268017e-14)
(-0.02336019474 -0.0566208647 1.818267759e-13)
(-0.01971412709 -0.04522289118 1.450783937e-13)
(-0.01989240314 -0.04683135794 1.46826995e-13)
(-0.01885507066 -0.04119354581 1.387084891e-13)
(-0.02645083499 -0.06797926673 2.184780135e-13)
(-0.03087423985 -0.09723906392 3.128886039e-13)
(-0.03030628701 -0.08871635201 2.854105841e-13)
(-0.03034535327 -0.09119248778 2.867012183e-13)
(-0.02954063064 -0.08247005302 2.785272013e-13)
(-0.03049948203 -0.1040435382 3.347322419e-13)
(-0.02714756651 -0.1114497926 3.582134589e-13)
(-0.02703889831 -0.1140901016 3.583522368e-13)
(-0.0270150398 -0.1058337028 3.571726248e-13)
(-0.02448377198 -0.1092516524 0)
(-0.0216874083 -0.1093286083 0)
(-0.02164788558 -0.1080112902 0)
(-0.01889451235 -0.1094128648 0)
(-0.01885530476 -0.1080958431 0)
(-0.02025113557 -0.1080535501 0)
(-0.02029052662 -0.1093705662 0)
(-0.01874091888 -0.1041485353 0)
(-0.02013595465 -0.1041062667 0)
(-0.02017396284 -0.1054221008 0)
(-0.01877862129 -0.1054643788 0)
(-0.01325125797 -0.1069479173 0)
(-0.01255895673 -0.1069684941 0)
(-0.01254060132 -0.1063107714 0)
(-0.01323277838 -0.1062901372 0)
(-0.01116033153 -0.1063514863 0)
(-0.01117868506 -0.1070091479 0)
(-0.01110546687 -0.1043769042 0)
(-0.0111235552 -0.1050339005 0)
(-0.01028239569 -0.02337610773 6.84036161e-14)
(-0.006690938401 -0.01450518305 4.241051954e-14)
(-0.02151065486 -0.05717083672 1.67754699e-13)
(-0.01794937572 -0.0451632977 1.324079735e-13)
(-0.01677453118 -0.04313774186 1.237621117e-13)
(-0.01952474758 -0.04700602408 1.440514374e-13)
(-0.02459288652 -0.06927537951 2.034344915e-13)
(-0.02946652665 -0.1015131601 2.984418268e-13)
(-0.02867100362 -0.09187765314 2.700617507e-13)