/*--------------------------------*- C++ -*----------------------------------*\
| =========                 |                                                 |
| \\      /  F ield         | OpenFOAM: The Open Source CFD Toolbox           |
|  \\    /   O peration     | Version:  v2012                                 |
|   \\  /    A nd           | Website:  www.openfoam.com                      |
|    \\/     M anipulation  |                                                 |
\*---------------------------------------------------------------------------*/
FoamFile
{
    version     2.0;
    format      ascii;
    class       pointVectorField;
    location    "2.76";
    object      pointDisplacement;
}
// * * * * * * * * * * * * * * * * * * * * * * * * * * * * * * * * * * * * * //

dimensions      [0 1 0 0 0 0 0];


internalField   nonuniform List<vector> 
6506
(
(0 0 0)
(0 0 0)
(0 0 0)
(0 0 0)
(0 0 0)
(0 0 0)
(0 0 0)
(0 0 0)
(0 0 0)
(0 0 0)
(0 0 0)
(0 0 0)
(0 0 0)
(0 0 0)
(0 0 0)
(0 0 0)
(0 0 0)
(0 0 0)
(0 0 0)
(0 0 0)
(0 0 0)
(0 0 0)
(0 0 0)
(0 0 0)
(0 0 0)
(0 0 0)
(0 0 0)
(0 0 0)
(0 0 0)
(0 0 0)
(0 0 0)
(0 0 0)
(0 0 0)
(0 0 0)
(0 0 0)
(0 0 0)
(0 0 0)
(0 0 0)
(0 0 0)
(0 0 0)
(0 0 0)
(0 0 0)
(0 0 0)
(0 0 0)
(0 0 0)
(0 0 0)
(0 0 0)
(0 0 0)
(0 0 0)
(0 0 0)
(0 0 0)
(0 0 0)
(0 0 0)
(0 0 0)
(0 0 0)
(0 0 0)
(0 0 0)
(0 0 0)
(0 0 0)
(0 0 0)
(0 0 0)
(0 0 0)
(0 0 0)
(0 0 0)
(0 0 0)
(0 0 0)
(0 0 0)
(0 0 0)
(0 0 0)
(0 0 0)
(0 0 0)
(0 0 0)
(0 0 0)
(0 0 0)
(0 0 0)
(0 0 0)
(0 0 0)
(0 0 0)
(-4.160350935e-07 4.645418575e-06 2.775557562e-17)
(0 0 0)
(0 0 0)
(0 0 0)
(0 0 0)
(0 0 0)
(0 0 0)
(0 0 0)
(0 0 0)
(0 0 0)
(0 0 0)
(0 0 0)
(0 0 0)
(0 0 0)
(0 0 0)
(0 0 0)
(0 0 0)
(0 0 0)
(0 0 0)
(0 0 0)
(0 0 0)
(0 0 0)
(0 0 0)
(0 0 0)
(0 0 0)
(0 0 0)
(0 0 0)
(0 0 0)
(0 0 0)
(-2.591884757e-05 6.716243964e-05 4.996003611e-16)
(-0.000149164861 0.0004213056344 3.080868893e-15)
(-1.950494289e-06 5.670568617e-06 4.163336342e-17)
(-0.0002832283633 0.00112764372 8.021361353e-15)
(-0.0007033335809 0.002724170922 1.992850329e-14)
(-0.0008346615121 0.00369009047 2.699229729e-14)
(-0.0003892555439 0.00176795705 1.255939797e-14)
(-0.000473945549 0.003725592219 2.647881914e-14)
(-0.0008308239209 0.006375431588 4.662936703e-14)
(-0.00069334971 0.007044577732 5.152822613e-14)
(-0.000408157492 0.004239811819 3.012867733e-14)
(0 0 0)
(0 0 0)
(0 0 0)
(0 0 0)
(0 0 0)
(0 0 0)
(0 0 0)
(0 0 0)
(0 0 0)
(0 0 0)
(0 0 0)
(0 0 0)
(0 0 0)
(0 0 0)
(0 0 0)
(0 0 0)
(0 0 0)
(0 0 0)
(0 0 0)
(0 0 0)
(0 0 0)
(0 0 0)
(-7.238745334e-05 0.0001243682963 1.026956298e-15)
(-0.0003954233317 0.0007245407238 6.009082121e-15)
(-9.366855845e-05 0.0001773428763 1.429412144e-15)
(-0.001336251731 0.003162075006 2.53824739e-14)
(-0.002136920254 0.004898857831 4.06341627e-14)
(-0.00272584153 0.006821712912 5.65658631e-14)
(-0.001836889958 0.004743479541 3.808064974e-14)
(-0.002854480094 0.01015092685 8.143485886e-14)
(-0.00377516955 0.01302659582 1.079691891e-13)
(-0.003796063477 0.01498628569 1.242062009e-13)
(-0.002932354567 0.01192434591 9.565959136e-14)
(-0.002290317585 0.01631570435 1.308952946e-13)
(-0.002844222114 0.01972441926 1.63508096e-13)
(-0.002245193614 0.02079458801 1.724176357e-13)
(-0.001824921827 0.01732714007 1.390276783e-13)
(0 0 0)
(0 0 0)
(0 0 0)
(0 0 0)
(0 0 0)
(0 0 0)
(0 0 0)
(0 0 0)
(0 0 0)
(0 0 0)
(0 0 0)
(0 0 0)
(0 0 0)
(0 0 0)
(0 0 0)
(0 0 0)
(0 0 0)
(0 0 0)
(0 0 0)
(-3.114370341e-05 3.882147477e-05 3.747002708e-16)
(0 0 0)
(-0.001325513556 0.002049231346 1.892930257e-14)
(-0.001970025906 0.002927617621 2.808864252e-14)
(-0.003082607408 0.004895674482 4.692080058e-14)
(-0.002263548006 0.003736128431 3.447242491e-14)
(-0.005171087871 0.01070777304 9.865719353e-14)
(-0.006274942183 0.01252545948 1.198208199e-13)
(-0.00701528902 0.0153022184 1.463273946e-13)
(-0.005902453612 0.01335342625 1.229849556e-13)
(-0.006711627351 0.02098880492 1.931926841e-13)
(-0.007650199855 0.02307477137 2.205180483e-13)
(-0.007307788281 0.02524567484 2.412792188e-13)
(-0.006474967441 0.02318964479 2.134542543e-13)
(-0.004448906877 0.02813515 2.591399317e-13)
(-0.004910886068 0.0299705698 2.866734627e-13)
(-0.003777554564 0.03092702491 2.959577028e-13)
(-0.003440320166 0.02917464316 2.688266276e-13)
(0 0 0)
(0 0 0)
(0 0 0)
(0 0 0)
(0 0 0)
(0 0 0)
(0 0 0)
(0 0 0)
(0 0 0)
(0 0 0)
(0 0 0)
(0 0 0)
(0 0 0)
(0 0 0)
(0 0 0)
(0 0 0)
(0 0 0)
(-0.0001439437511 0.0001504274454 1.637578961e-15)
(-0.0003273493833 0.0003269076036 3.73312492e-15)
(-0.001162704763 0.001222355214 1.393329896e-14)
(-0.0007816809337 0.0008597893082 9.36750677e-15)
(-0.004594434634 0.006010154956 6.536438057e-14)
(-0.005435289946 0.006798768002 7.732703367e-14)
(-0.007007026997 0.009358147146 1.063316102e-13)
(-0.006074897608 0.008484236531 9.217626662e-14)
(-0.009594621003 0.01682606993 1.822986206e-13)
(-0.01059571423 0.01774173123 2.011446565e-13)
(-0.01116998164 0.02042735951 2.314259895e-13)
(-0.01021070431 0.01957883394 2.11899942e-13)
(-0.01010125851 0.02688741267 2.904620988e-13)
(-0.0107244542 0.0271890965 3.072542221e-13)
(-0.009905078291 0.02878429973 3.252398351e-13)
(-0.00936284012 0.0285430932 3.083783229e-13)
(-0.005911608199 0.03185030803 3.445160823e-13)
(-0.006107655003 0.03129898148 3.540501226e-13)
(-0.004597752279 0.03157798758 3.57422425e-13)
(-0.004480577047 0.03234542402 3.500810752e-13)
(0 0 0)
(0 0 0)
(0 0 0)
(0 0 0)
(0 0 0)
(0 0 0)
(0 0 0)
(0 0 0)
(0 0 0)
(0 0 0)
(0 0 0)
(0 0 0)
(0 0 0)
(0 0 0)
(-1.370065528e-05 9.546667664e-06 1.387778781e-16)
(-3.738531334e-07 2.763871558e-07 0)
(0 0 0)
(-0.001027696692 0.0008833135145 1.171285291e-14)
(-0.00129712188 0.001054815713 1.476596623e-14)
(-0.002691116436 0.002304875302 3.223810108e-14)
(-0.002295972871 0.002078184573 2.750577544e-14)
(-0.007457429095 0.00803796033 1.060401766e-13)
(-0.008116907431 0.00827957804 1.153799278e-13)
(-0.009860290927 0.01073975888 1.494776525e-13)
(-0.009342762861 0.01075572598 1.417060913e-13)
(-0.01292036155 0.01863466097 2.448874437e-13)
(-0.01345131286 0.01835136459 2.54740673e-13)
(-0.01380834503 0.0205481583 2.851191505e-13)
(-0.01332913592 0.02097251891 2.755295991e-13)
(-0.01203381958 0.02597221691 3.41199291e-13)
(-0.01227974602 0.02501894977 3.473610288e-13)
(-0.01105050581 0.02565662017 3.563677131e-13)
(-0.01090278856 0.02685920478 3.52842755e-13)
(-0.006365038877 0.02736530043 0)
(-0.006452877981 0.02585379634 0)
(-0.005666940619 0.02585396745 0)
(-0.00483819413 0.02588759053 0)
(-0.004787755632 0.02663569854 0)
(-0.004768157925 0.02736616971 0)
(0 0 0)
(0 0 0)
(0 0 0)
(0 0 0)
(0 0 0)
(0 0 0)
(0 0 0)
(0 0 0)
(0 0 0)
(0 0 0)
(0 0 0)
(0 0 0)
(0 0 0)
(0 0 0)
(-0.0001234502453 6.507078732e-05 1.276756478e-15)
(-7.035074373e-05 4.006620032e-05 7.21644966e-16)
(-5.755304031e-05 3.521145888e-05 5.967448757e-16)
(-0.001863753007 0.001254839479 2.120525977e-14)
(-0.001932880534 0.001211442942 2.199629368e-14)
(-0.003578928321 0.002363211244 4.284073096e-14)
(-0.003484485027 0.002471511575 4.171663015e-14)
(-0.009375266721 0.007922509208 1.331018629e-13)
(-0.009524076567 0.007493617607 1.351557755e-13)
(-0.01134053386 0.009526697581 1.715572129e-13)
(-0.01118234669 0.01008874969 1.692257445e-13)
(-0.01452179473 0.01638539411 2.74100187e-13)
(-0.01466791435 0.01540624419 2.766120666e-13)
(-0.01486350842 0.01701099182 3.053529651e-13)
(-0.01473321962 0.01811909796 3.030214968e-13)
(-0.01265247438 0.02123172788 3.554934125e-13)
(-0.01270913674 0.01981972076 3.563677131e-13)
(-0.01126258184 0.01996227918 0)
(-0.0112353354 0.02144067502 3.593236819e-13)
(-0.006581377029 0.02137922617 0)
(-0.006598476217 0.02062968398 0)
(-0.005823266549 0.02062099769 0)
(-0.005806255441 0.02136936021 0)
(0 0 0)
(0 0 0)
(0 0 0)
(0 0 0)
(0 0 0)
(0 0 0)
(0 0 0)
(0 0 0)
(0 0 0)
(0 0 0)
(0 0 0)
(0 0 0)
(0 0 0)
(0 0 0)
(-0.0002026505025 7.255574814e-05 2.095545959e-15)
(-0.0001830340546 7.326033654e-05 1.887379142e-15)
(-0.0001605729415 7.105516837e-05 1.665334537e-15)
(-0.002296546406 0.001118952435 2.613187444e-14)
(-0.002374693119 0.001046855266 2.702005286e-14)
(-0.00414120083 0.001924468706 4.955758026e-14)
(-0.004043486035 0.002076445534 4.839184609e-14)
(-0.01011610273 0.006195592894 1.434130592e-13)
(-0.01023738121 0.005676476869 1.450783937e-13)
(-0.01203693523 0.007126783008 1.817573869e-13)
(-0.01191851807 0.007793778243 1.800642968e-13)
(-0.01508782618 0.01232490986 2.837313717e-13)
(-0.01517580326 0.01122251769 2.851330283e-13)
(-0.01528187742 0.01230326179 3.125416592e-13)
(-0.01520826647 0.01352779001 3.113898028e-13)
(-0.01282968419 0.01550278043 3.577416141e-13)
(-0.01286031027 0.01405108017 3.579636587e-13)
(-0.01135866952 0.01407970635 0)
(-0.01133562784 0.01554670506 0)
(-0.006689296207 0.0154688848 0)
(-0.006701267719 0.01473488296 0)
(-0.005928067284 0.01472204082 0)
(-0.005915993772 0.01545604093 0)
(0 0 0)
(0 0 0)
(0 0 0)
(0 0 0)
(0 0 0)
(0 0 0)
(0 0 0)
(0 0 0)
(0 0 0)
(0 0 0)
(0 0 0)
(0 0 0)
(0 0 0)
(0 0 0)
(-0.0002989364073 5.659329355e-05 3.094746681e-15)
(-0.0002695112999 6.238941025e-05 2.789435349e-15)
(-0.0002433125067 6.658582316e-05 2.525757381e-15)
(-0.002569217131 0.0007755143032 2.922662112e-14)
(-0.002648012677 0.0006767060616 3.011479954e-14)
(-0.004479546135 0.001208554925 5.359601651e-14)
(-0.004382647818 0.001395825658 5.243028234e-14)
(-0.01053547259 0.004014381036 1.491584634e-13)
(-0.0106531763 0.003444535282 1.507682867e-13)
(-0.01244318028 0.004300506999 1.875444244e-13)
(-0.01232865909 0.005019155557 1.859068455e-13)
(-0.01539663196 0.007830275214 2.884775752e-13)
(-0.01548081908 0.006686578928 2.897820872e-13)
(-0.01553890429 0.007301576725 3.163996842e-13)
(-0.0154688295 0.008560016203 3.153172168e-13)
(-0.01294404798 0.009688242908 3.584355035e-13)
(-0.01297185232 0.00823244731 3.585881592e-13)
(-0.01144838235 0.00822401536 0)
(-0.01142618858 0.009687151364 0)
(-0.006782880641 0.009609518559 0)
(-0.006794361586 0.008878365207 0)
(-0.006022212262 0.008865710989 0)
(-0.006016403211 0.009231320509 0)
(-0.006010599364 0.009596624029 0)
(0 0 0)
(0 0 0)
(0 0 0)
(0 0 0)
(0 0 0)
(0 0 0)
(0 0 0)
(0 0 0)
(0 0 0)
(0 0 0)
(0 0 0)
(0 0 0)
(0 0 0)
(0 0 0)
(-0.0004280997428 8.814086794e-06 4.440892099e-15)
(-0.0003931107336 2.467367962e-05 4.080069615e-15)
(-0.0003592691434 3.770441114e-05 3.719247132e-15)
(-0.002894390903 0.0003375452424 3.291811268e-14)
(-0.002981196265 0.0002096324589 3.390343561e-14)
(-0.004884910046 0.0003664325313 5.841160888e-14)
(-0.004779973848 0.0005912525272 5.717648577e-14)
(-0.01101340865 0.001656343814 1.557087792e-13)
(-0.01113763631 0.00103393464 1.574018693e-13)
(-0.01291274552 0.001292241377 1.942335182e-13)
(-0.01279263557 0.00206431408 1.92540428e-13)
(-0.01573528351 0.00319009699 2.937095012e-13)
(-0.01582170492 0.002003411909 2.950417688e-13)
(-0.01582063574 0.002177594785 3.206879207e-13)
(-0.01574956522 0.003471647115 3.196054532e-13)
(-0.01305173003 0.003854034928 3.58990615e-13)
(-0.01307711821 0.002392225049 3.590738817e-13)
(-0.01153565122 0.00236804474 0)
(-0.011514089 0.003832041731 0)
(-0.006873633595 0.003754661493 0)
(-0.006884684103 0.003022820623 0)
(-0.00611386136 0.003010154954 0)
(-0.006108251106 0.003376073943 0)
(-0.006102608008 0.003741924355 0)
(0 0 0)
(0 0 0)
(0 0 0)
(0 0 0)
(0 0 0)
(0 0 0)
(0 0 0)
(0 0 0)
(0 0 0)
(0 0 0)
(0 0 0)
(0 0 0)
(0 0 0)
(0 0 0)
(-0.0005410642475 -8.013846756e-05 5.606626274e-15)
(-0.0005595493039 -5.92661006e-05 5.787037516e-15)
(-0.0005107879109 -3.25610327e-05 5.287437155e-15)
(-0.003264964495 -0.0002236596773 3.712308239e-14)
(-0.003375925403 -0.000387420066 3.838596108e-14)
(-0.005356567469 -0.0006401563184 6.401823516e-14)
(-0.005224847795 -0.0003704523962 6.245004514e-14)
(-0.01153394903 -0.0009170369993 1.628003288e-13)
(-0.01168479792 -0.001599040063 1.648542414e-13)
(-0.01343890389 -0.001939842377 2.01699768e-13)
(-0.01329441497 -0.001108065488 1.996458554e-13)
(-0.01609197294 -0.00162103252 2.991912273e-13)
(-0.01619175595 -0.002853262241 3.007316618e-13)
(-0.01612107204 -0.003087088772 3.252537129e-13)
(-0.01604090428 -0.001756409632 3.240324675e-13)
(-0.01314950339 -0.001996266752 3.592959263e-13)
(-0.01317245211 -0.003460154028 3.593236819e-13)
(-0.0116207486 -0.003486228302 0)
(-0.01159949817 -0.002022566107 0)
(-0.006959815511 -0.002099389047 0)
(-0.006970218861 -0.002831172902 0)
(-0.006200855229 -0.002843643709 0)
(-0.006195583241 -0.002477616938 0)
(-0.006190281878 -0.002111862745 0)
(-0.005903730602 0.01619119414 0)
(-0.006677135615 0.01620400575 0)
(-0.006004795517 0.009961927548 0)
(-0.005998984732 0.01032763907 0)
(-0.006771399118 0.01034070591 0)
(-0.006096966645 0.004107672766 0)
(-0.006091322391 0.004473591177 0)
(-0.006862516244 0.004486433206 0)
(-0.006184981672 -0.001746176553 0)
(-0.00617964631 -0.001380422938 0)
(-0.006949347629 -0.001367810349 0)
(-0.005787155956 0.02211853271 0)
(-0.00656247659 0.02212869351 0)
(-0.0007973644911 0.02732775905 0)
(-0.0008119640354 0.02660101199 0)
(-0.0114038905 0.01115042163 0)
(-0.01291677636 0.01114337171 3.582967256e-13)
(-0.007544326395 0.01035361143 0)
(-0.007555706496 0.00962238834 0)
(-0.007462904642 0.01548173388 0)
(-0.007474806997 0.01474779888 0)
(-0.01149235505 0.005296137832 0)
(-0.01302585633 0.005314948692 3.588657149e-13)
(-0.007634458677 0.004499253955 0)
(-0.007645474606 0.003767446507 0)
(-0.007567052019 0.008891198675 0)
(-0.00682866911 0.006682862254 0)
(-0.006056996943 0.006670148131 0)
(-0.006051179798 0.007036233652 0)
(-0.006045398966 0.007402183751 0)
(-0.006817274555 0.007414935343 0)
(-0.003743142668 0.006632059535 0)
(-0.003740726807 0.006815127679 0)
(-0.003738909925 0.006998171999 0)
(-0.004124379386 0.007004488816 0)
(-0.00412989053 0.006638398092 0)
(-0.003696300913 0.009558255801 0)
(-0.004082102418 0.009564646284 0)
(-0.004088209953 0.009199483968 0)
(-0.003702678135 0.00919323411 0)
(-0.003699402211 0.00937587951 0)
(-0.0115782852 -0.0005591073354 0)
(-0.01312498755 -0.0005328313018 3.592126596e-13)
(-0.007720374373 -0.001355141211 0)
(-0.007730740832 -0.002086755644 0)
(-0.007656389113 0.003035603324 0)
(-0.006917433985 0.0008269170742 0)
(-0.006147158711 0.0008140566557 0)
(-0.006141683879 0.001180011958 0)
(-0.006136173313 0.001546068682 0)
(-0.006906620899 0.001558795991 0)
(-0.003841122135 0.0007762370387 0)
(-0.003837137206 0.000959176471 0)
(-0.004031057093 0.0009624400579 0)
(-0.004034474799 0.0007794569701 0)
(-0.003796561741 0.003704274622 0)
(-0.004179612711 0.003710414274 0)
(-0.004185629809 0.003344570222 0)
(-0.003802885418 0.003338401774 0)
(-0.003800011713 0.003521394113 0)
(-0.007741076761 -0.002818574655 0)
(-0.007000914863 -0.00502629514 0)
(-0.006616199047 -0.005032531121 0)
(-0.006611095325 -0.004666399459 0)
(-0.006995845719 -0.004660196899 0)
(-0.003912149881 -0.0050770509 0)
(-0.0039130818 -0.004893653749 0)
(-0.004115303206 -0.004889772856 0)
(-0.004116139799 -0.005072969885 0)
(-0.003877009513 -0.002149771397 0)
(-0.004076265605 -0.002146110979 0)
(-0.00408028953 -0.002328743659 0)
(-0.003882337884 -0.002332313875 0)
(-0.003546101745 0.01836293232 0)
(-0.003552711353 0.01799424492 0)
(-0.003165826264 0.01798817611 0)
(-0.003162516817 0.01817259285 0)
(-0.003159439287 0.01835657141 0)
(-0.003597245939 0.01541732496 0)
(-0.003208880899 0.01541068682 0)
(-0.003205918656 0.01559408577 0)
(-0.003203967741 0.01577801207 0)
(-0.003591374558 0.0157845999 0)
(-0.003477406043 0.02135308122 0)
(-0.00348833474 0.02097580358 0)
(-0.003098862169 0.02097729538 0)
(-0.003087939612 0.02135381198 0)
(-0.003152490815 0.01872658624 0)
(-0.00353917173 0.01873266178 0)
(-0.00369303077 0.0097405612 0)
(-0.003689992268 0.009923244647 0)
(-0.004075994883 0.0099298086 0)
(-0.003648603815 0.01248515173 0)
(-0.004033860741 0.01249156696 0)
(-0.004039979261 0.01212575864 0)
(-0.003654823757 0.01211937915 0)
(-0.006736572342 0.01253674419 0)
(-0.006748238897 0.01180467573 0)
(-0.00597554962 0.01179177426 0)
(-0.005963781642 0.01252380699 0)
(-0.003270726742 0.01211315369 0)
(-0.003267674062 0.0122958709 0)
(-0.003264085847 0.01247868104 0)
(-0.003502411626 0.009554992734 0)
(-0.003499036083 0.009737296341 0)
(-0.003603449226 0.0150505318 0)
(-0.003215142496 0.0150440647 0)
(-0.003211405629 0.01522741647 0)
(-0.003260787141 0.01266166615 0)
(-0.003257195387 0.01284488435 0)
(-0.003642207513 0.01285129542 0)
(-0.003793215504 0.003887054866 0)
(-0.003789700423 0.004069764219 0)
(-0.004173395081 0.004076050856 0)
(-0.004135712879 0.00627200657 0)
(-0.003748491328 0.006265523919 0)
(-0.003745167019 0.006448814684 0)
(-0.006840034291 0.005950516587 0)
(-0.006068501015 0.005937634776 0)
(-0.006062750136 0.006303823454 0)
(-0.00354850904 0.006445368497 0)
(-0.003546824111 0.006628653129 0)
(-0.003606144369 0.003701240645 0)
(-0.003602241109 0.003883977407 0)
(-0.003505791147 0.009372655185 0)
(-0.003545869096 0.006811814135 0)
(-0.003872072142 -0.001967222269 0)
(-0.004072412258 -0.001963509408 0)
(-0.004037823349 0.0005965407261 0)
(-0.003845103086 0.0005933315486 0)
(-0.006928135819 9.558042331e-05 0)
(-0.006158026499 8.296089602e-05 0)
(-0.006152629496 0.0004483393537 0)
(-0.003651114621 0.0005901008054 0)
(-0.003645979403 0.0007728846376 0)
(-0.003672661438 -0.002153790482 0)
(-0.003665842199 -0.001971375386 0)
(-0.003609879941 0.003518364992 0)
(-0.00364084585 0.0009557705277 0)
(-0.004119049239 -0.005256063646 0)
(-0.003915540965 -0.005260068451 0)
(-0.007005982273 -0.00539229138 0)
(-0.006621266457 -0.005398527362 0)
(-0.003708347733 -0.005264373987 0)
(-0.003703438581 -0.005081484281 0)
(-0.0036801057 -0.00233616094 0)
(-0.003706153769 -0.004897954775 0)
(-0.01131211178 0.01701560026 0)
(-0.01279520448 0.01694957027 3.57422425e-13)
(-0.007450847207 0.01621678857 0)
(-0.007356562171 0.02138935474 0)
(-0.007373303331 0.02064086689 0)
(-0.006639892194 0.01841015829 0)
(-0.005865996611 0.01839819539 0)
(-0.005852530149 0.01913810993 0)
(-0.006626492807 0.01915012839 0)
(-0.003925687883 0.01873882635 0)
(-0.003932620431 0.01836914795 0)
(-0.003864939153 0.02135724221 0)
(-0.003876134482 0.02097888487 0)
(-0.005951936992 0.01325634856 0)
(-0.006724864848 0.01326922008 0)
(-0.004027702439 0.0128577147 0)
(-0.003984101446 0.01542373336 0)
(-0.003990304733 0.0150569402 0)
(-0.003977958064 0.01579100368 0)
(-0.003939196328 0.01800044296 0)
(-0.006652363759 0.01767475014 0)
(-0.005878680386 0.01766230791 0)
(-0.002032225006 0.01686402012 0)
(-0.002048233855 0.01668019684 0)
(-0.001876968714 0.01667748854 0)
(-0.001859266524 0.01686169115 0)
(-0.001915153195 0.02136279525 0)
(-0.001924606715 0.02116786747 0)
(-0.001728843289 0.02116961586 0)
(-0.001718014605 0.02136721213 0)
(-0.00195975791 0.01982835124 0)
(-0.001765336354 0.01982758905 0)
(-0.0017603796 0.02001567806 0)
(-0.001957625369 0.02001615838 0)
(-0.003314864139 0.02440759032 0)
(-0.003386513128 0.02362696905 0)
(-0.002990207141 0.02363110965 0)
(-0.002581510594 0.02364569485 0)
(-0.002545087137 0.02403262832 0)
(-0.00250960864 0.02441359212 0)
(-0.003073588667 0.02173553978 0)
(-0.003467104433 0.02172708213 0)
(-0.003921010774 -0.003612128447 0)
(-0.004109343434 -0.00360929997 0)
(-0.004113202562 -0.003792241541 0)
(-0.003926058748 -0.003794981783 0)
(-0.005444178733 -0.003588199635 0)
(-0.005449479517 -0.003953919828 0)
(-0.005066937392 -0.003959982807 0)
(-0.005061501185 -0.003594298927 0)
(-0.005465311557 -0.005050945562 0)
(-0.005082905432 -0.005057006228 0)
(-0.005077598288 -0.004690912035 0)
(-0.005460072991 -0.004684884213 0)
(-0.001985224673 0.01833834186 0)
(-0.00196094441 0.01814917751 0)
(-0.001720139174 0.01810007395 0)
(-0.001809135957 0.01833769077 0)
(-0.001840569124 0.01704461847 0)
(-0.002015120475 0.01704707655 0)
(-0.003572769098 0.01688872055 0)
(-0.003186654724 0.01688252881 0)
(-0.00318308809 0.01706686976 0)
(-0.003179615708 0.01725066815 0)
(-0.003566098371 0.0172570022 0)
(-0.00220950334 0.017050314 0)
(-0.002223052692 0.01686692503 0)
(-0.002177935557 0.01834130261 0)
(-0.002166286398 0.01815394811 0)
(-0.001979793249 0.01538434467 0)
(-0.001967724176 0.01555728377 0)
(-0.002173417982 0.01557336524 0)
(-0.002168810795 0.01538949747 0)
(-0.002235569226 0.01668287232 0)
(-0.003579309029 0.01652013059 0)
(-0.003193470193 0.01651353541 0)
(-0.003190176716 0.01669781299 0)
(-0.003516323467 0.01984908648 0)
(-0.003129396204 0.01984389781 0)
(-0.003120038969 0.0202211634 0)
(-0.003506946884 0.02022608987 0)
(-0.002154056239 0.02001856 0)
(-0.002156478081 0.01983054012 0)
(-0.002114174063 0.02135428837 0)
(-0.002120577182 0.02116534378 0)
(-0.001995866633 0.01852552619 0)
(-0.002184045285 0.01852781129 0)
(-0.002156786474 0.01964300465 0)
(-0.001957480796 0.01964086023 0)
(-0.003524447178 0.01947516009 0)
(-0.003137479993 0.01946971907 0)
(-0.001761875353 0.01963891817 0)
(-0.00181742916 0.01852459708 0)
(-0.003671667817 0.01102084018 0)
(-0.003477282707 0.01101753467 0)
(-0.003475009138 0.01120043518 0)
(-0.003668796424 0.01120369651 0)
(-0.002157947355 0.0124615377 0)
(-0.002328750096 0.01246423814 0)
(-0.002338124474 0.01228176446 0)
(-0.002167981334 0.01227907524 0)
(-0.003674336365 0.01083791237 0)
(-0.003479764256 0.01083460368 0)
(-0.003622910246 0.01395009876 0)
(-0.00323631263 0.01394352469 0)
(-0.003232575695 0.01412708052 0)
(-0.003229227516 0.01431057494 0)
(-0.003616399224 0.01431698872 0)
(-0.002075066454 0.01392326762 0)
(-0.002064398133 0.0141064335 0)
(-0.002240580192 0.01410939545 0)
(-0.002250758334 0.01392625525 0)
(-0.002175557684 0.01520653698 0)
(-0.001992642596 0.01520312043 0)
(-0.002147997221 0.01264406961 0)
(-0.002319370006 0.01264684775 0)
(-0.002260698985 0.01374328105 0)
(-0.002085615128 0.01374033777 0)
(-0.003629379174 0.01358368423 0)
(-0.003243297781 0.01357715294 0)
(-0.003239698718 0.01376020097 0)
(-0.003768812161 0.005167928329 0)
(-0.003574174873 0.005164652542 0)
(-0.0035701163 0.005347522703 0)
(-0.00376503521 0.005350837288 0)
(-0.003772108045 0.004984909159 0)
(-0.003578188158 0.004981645572 0)
(-0.003721950541 0.00809589277 0)
(-0.003529919323 0.00809276333 0)
(-0.003526472751 0.008275643897 0)
(-0.003718737992 0.008278811327 0)
(-0.003725197669 0.007912940792 0)
(-0.003533343251 0.007909814358 0)
(-0.003870261766 -0.0006857605553 0)
(-0.003682306507 -0.0006885826152 0)
(-0.00368050149 -0.0005054360641 0)
(-0.003868065749 -0.0005026206532 0)
(-0.003870629736 -0.000868999563 0)
(-0.003680361386 -0.0008719969964 0)
(-0.003811619818 0.002239962969 0)
(-0.003609811478 0.002236191131 0)
(-0.003609580086 0.002419398451 0)
(-0.00380982898 0.002423075752 0)
(-0.003814279901 0.002056932988 0)
(-0.00361215196 0.002053155715 0)
(-0.005470582967 -0.005416938334 0)
(-0.005088312842 -0.005422996687 0)
(-0.003734192782 -0.003614829138 0)
(-0.00372665376 -0.003432086183 0)
(-0.003915635243 -0.003429212662 0)
(-0.003741251247 -0.003797512246 0)
(-0.001802347169 0.02292011496 0)
(-0.001841444292 0.02252815268 0)
(-0.001432816264 0.02254170854 0)
(-0.001380455899 0.02293643475 0)
(-0.001705237909 0.02156536399 0)
(-0.001903024287 0.02156085302 0)
(-0.004008321996 0.002243409909 0)
(-0.004011162279 0.002060382992 0)
(-0.005355417439 0.002265534963 0)
(-0.005361132005 0.001899481708 0)
(-0.004976790768 0.001893218086 0)
(-0.004971008779 0.002259236185 0)
(-0.005378103971 0.0008014210516 0)
(-0.004994068734 0.000795162633 0)
(-0.004988321324 0.00116114731 0)
(-0.005372458561 0.001167407463 0)
(-0.005332533266 0.003729271406 0)
(-0.005338278364 0.003363422729 0)
(-0.004953665704 0.003357120481 0)
(-0.004947852606 0.003722968002 0)
(-0.004965260791 0.002625254862 0)
(-0.00534973745 0.002631554797 0)
(-0.004005719713 0.002426440872 0)
(-0.005422345093 -0.002124241269 0)
(-0.005427816455 -0.002489992571 0)
(-0.005044561485 -0.002496135692 0)
(-0.0050389207 -0.002130421281 0)
(-0.005055888041 -0.003228209937 0)
(-0.005438769588 -0.003222107176 0)
(-0.004105279148 -0.003426293867 0)
(-0.0041544488 0.005174213979 0)
(-0.004160777102 0.004808069131 0)
(-0.003775804042 0.004801760754 0)
(-0.005309339624 0.005193206645 0)
(-0.005315191925 0.004827053702 0)
(-0.004930273844 0.004820712251 0)
(-0.004924353542 0.005186864037 0)
(-0.004942008399 0.004088644944 0)
(-0.005326756481 0.004094983504 0)
(-0.003045518797 0.003692829565 0)
(-0.003036655577 0.003875243914 0)
(-0.003223961435 0.00387805493 0)
(-0.003230619208 0.003695535058 0)
(-0.003010073224 0.004422657134 0)
(-0.003203673511 0.004425915286 0)
(-0.003210440731 0.004243159206 0)
(-0.003018915536 0.00424007238 0)
(-0.00378276648 0.00443552466 0)
(-0.003786217608 0.00425257615 0)
(-0.00359427479 0.004249448213 0)
(-0.003590280239 0.004432353472 0)
(-0.004060190115 -0.0006827689036 0)
(-0.004061978131 -0.0008659157437 0)
(-0.005400390485 -0.0006611692177 0)
(-0.005405762738 -0.001027092254 0)
(-0.005022272081 -0.001033375422 0)
(-0.005016763249 -0.0006674206982 0)
(-0.00503331565 -0.001764808292 0)
(-0.005416876042 -0.001758625968 0)
(-0.005383710756 0.0004357060623 0)
(-0.004999777519 0.0004294493783 0)
(-0.005011117838 -0.0003014342867 0)
(-0.005394847653 -0.0002952150717 0)
(-0.004057621254 -0.0004997033615 0)
(-0.003857051167 4.590754292e-05 0)
(-0.003666626995 4.287344989e-05 0)
(-0.00366142565 0.0002251460093 0)
(-0.003853059646 0.0002282346852 0)
(-0.003099198081 3.414262004e-05 0)
(-0.003087522685 0.0002159309798 0)
(-0.003278157658 0.0002189686575 0)
(-0.003287686563 3.700775721e-05 0)
(-0.003054346842 0.0007624838603 0)
(-0.003250553199 0.0007658883581 0)
(-0.003259694132 0.0005833426924 0)
(-0.003065353223 0.0005800379361 0)
(-0.003084385028 -0.002165154485 0)
(-0.003071082626 -0.001983087703 0)
(-0.003249360175 -0.001979954074 0)
(-0.003261439154 -0.00216207567 0)
(-0.003032069879 -0.001447687292 0)
(-0.003235495371 -0.001431814445 0)
(-0.003231286356 -0.001615097274 0)
(-0.003044624945 -0.001620005945 0)
(-0.003865000989 -0.001418593005 0)
(-0.003865381334 -0.001601559724 0)
(-0.003657676945 -0.001605805933 0)
(-0.003659426669 -0.001422700963 0)
(-0.003807055226 0.00297239027 0)
(-0.00361537703 0.002969300843 0)
(-0.003615143973 0.003152406105 0)
(-0.003805486545 0.003155438811 0)
(-0.003059663819 0.002961211366 0)
(-0.003064747144 0.003144679113 0)
(-0.003243366127 0.003146934291 0)
(-0.003238595023 0.002963505864 0)
(-0.003236821449 0.003512803381 0)
(-0.003053989929 0.003510272509 0)
(-0.003043339884 0.0009449637846 0)
(-0.003241424709 0.0009485022553 0)
(-0.003010270253 0.001492470748 0)
(-0.003214082861 0.001496378698 0)
(-0.003223167151 0.00131376405 0)
(-0.003021297611 0.001309991171 0)
(-0.003825218664 0.001508063404 0)
(-0.003829173571 0.001325089451 0)
(-0.003630599145 0.001321542655 0)
(-0.003625519993 0.00150442947 0)
(-0.00389899134 -0.002880644153 0)
(-0.003703390185 -0.002884038359 0)
(-0.003695586541 -0.002701333913 0)
(-0.003893406165 -0.002697799952 0)
(-0.003139873219 -0.002893416874 0)
(-0.003126003525 -0.00271118969 0)
(-0.00329985947 -0.002708437339 0)
(-0.003312740341 -0.002890715348 0)
(-0.00327411762 -0.002344051032 0)
(-0.003098239828 -0.002346905784 0)
(-0.003250321054 -0.0043470598 0)
(-0.003401152758 -0.004348133973 0)
(-0.003381695064 -0.004532696402 0)
(-0.003264025401 -0.004514563515 0)
(-0.003931045931 -0.004342660198 0)
(-0.003925764827 -0.004526097297 0)
(-0.003734728076 -0.004529107797 0)
(-0.003746628852 -0.004345150012 0)
(-0.002077455371 0.01613058384 0)
(-0.001923360309 0.01613136445 0)
(-0.001907901052 0.01631206817 0)
(-0.002073726392 0.01631407179 0)
(-0.002057390068 0.01594475272 0)
(-0.001937453248 0.01596260898 0)
(-0.001945423135 0.02059072815 0)
(-0.001751181061 0.02058941125 0)
(-0.001744020038 0.02078312543 0)
(-0.001938750417 0.02078392687 0)
(-0.00135188287 0.02078511267 0)
(-0.001365107402 0.02059402514 0)
(-0.001320287248 0.02138313839 0)
(-0.001334845247 0.02118023446 0)
(-0.001377537641 0.0204032472 0)
(-0.001236607692 0.02042483447 0)
(-0.001950980165 0.02039693909 0)
(-0.001755810006 0.0203965995 0)
(-0.0019628385 0.01759439285 0)
(-0.001782245616 0.01759101579 0)
(-0.001761165434 0.01777206605 0)
(-0.001948668173 0.01777749918 0)
(-0.00198003245 0.01741167804 0)
(-0.00180229948 0.01740851966 0)
(-0.002169289306 0.01759895784 0)
(-0.002181904742 0.01741568903 0)
(-0.002781683205 0.01761205835 0)
(-0.002786176883 0.01742780118 0)
(-0.002587663149 0.01742408537 0)
(-0.002581676359 0.01760814709 0)
(-0.002800599305 0.01687627004 0)
(-0.002607656886 0.01687312511 0)
(-0.002601000295 0.01705717545 0)
(-0.002795775827 0.0170605216 0)
(-0.002770684022 0.018350481 0)
(-0.002772608395 0.01816611553 0)
(-0.002573980888 0.01816269026 0)
(-0.002574157096 0.0183479281 0)
(-0.002577031856 0.01779267377 0)
(-0.002777782146 0.01779666569 0)
(-0.002160089002 0.01778279487 0)
(-0.002249887707 0.01613205362 0)
(-0.002229452381 0.01594618219 0)
(-0.00281262822 0.01614009255 0)
(-0.002811582711 0.0159557752 0)
(-0.002614825554 0.01595236133 0)
(-0.002620310245 0.01613702625 0)
(-0.002808577491 0.01540330152 0)
(-0.002599068855 0.01539895661 0)
(-0.002600794572 0.01558267335 0)
(-0.002808075117 0.01558684433 0)
(-0.0028051787 0.01669157221 0)
(-0.002613822926 0.01668852227 0)
(-0.002621455648 0.01632086916 0)
(-0.002811779555 0.01632379952 0)
(-0.002252371556 0.01631598731 0)
(-0.001960092634 0.01907986736 0)
(-0.002163797056 0.01908413738 0)
(-0.002173018381 0.01889846417 0)
(-0.001975089367 0.01889516302 0)
(-0.002757545919 0.01909248594 0)
(-0.002761470463 0.01890629753 0)
(-0.002566963231 0.0189031736 0)
(-0.002562347503 0.01908940807 0)
(-0.002573505101 0.01853286958 0)
(-0.002768173774 0.01853549971 0)
(-0.00175542387 0.01907470689 0)
(-0.001741671445 0.01925903788 0)
(-0.001951220954 0.01926517921 0)
(-0.001778856563 0.01889171386 0)
(-0.002199127581 0.01173187567 0)
(-0.002362975205 0.01173398169 0)
(-0.002361639979 0.01155010155 0)
(-0.002209231596 0.0115500946 0)
(-0.00289778539 0.01174110354 0)
(-0.002895170028 0.01155730365 0)
(-0.00270912955 0.01155448014 0)
(-0.002714769182 0.01173843349 0)
(-0.002871816241 0.01100645652 0)
(-0.002659120066 0.01100215943 0)
(-0.002674501939 0.01118600637 0)
(-0.002879158905 0.01118986065 0)
(-0.002884404282 0.01247259869 0)
(-0.002889015321 0.01228983995 0)
(-0.002704068489 0.01228710306 0)