/*--------------------------------*- C++ -*----------------------------------*\
| =========                 |                                                 |
| \\      /  F ield         | OpenFOAM: The Open Source CFD Toolbox           |
|  \\    /   O peration     | Version:  v2012                                 |
|   \\  /    A nd           | Website:  www.openfoam.com                      |
|    \\/     M anipulation  |                                                 |
\*---------------------------------------------------------------------------*/
FoamFile
{
    version     2.0;
    format      ascii;
    class       volScalarField;
    location    "2.34";
    object      nut;
}
// * * * * * * * * * * * * * * * * * * * * * * * * * * * * * * * * * * * * * //

dimensions      [0 2 -1 0 0 0 0];


internalField   nonuniform List<scalar> 
3019
(
0.05773840816
0.2039619691
0.2733812933
0.3600150766
0.4725324465
0.6253660634
0.8473775903
1.095545705
1.15505584
1.150602798
1.148770795
1.148421339
0.114917693
0.3015590485
0.3822659792
0.4663087167
0.57219801
0.711403238
0.9109990995
1.133308856
1.15610536
1.15123715
1.149138833
1.148708591
0.1615483572
0.4271384212
0.5793194963
0.6289502586
0.7103489925
0.8336752354
1.010959485
1.166022074
1.157130423
1.151941876
1.149663992
1.149166328
0.1852530031
0.46012212
0.7477096897
0.8611837876
0.8980979893
0.9915944605
1.152358288
1.167135782
1.158076281
1.152675601
1.1502668
1.149725739
0.2335601047
0.5080228534
0.7851374381
0.9856483192
1.094725116
1.146115609
1.167876065
1.167954883
1.15887115
1.153353561
1.150859662
1.150290371
0.2883766343
0.5589237368
0.8162224383
0.9949043141
1.096882874
1.147448928
1.168537095
1.168445972
1.159485556
1.153944172
1.151431127
1.150846635
0.3259050057
0.5888155672
0.8278057924
0.9971689092
1.097787351
1.147902213
1.168709875
1.168634582
1.15988565
1.154377657
1.151875964
1.151284308
0.3351732944
0.5910800055
0.8300464868
0.9981130374
1.097822482
1.147720369
1.168496853
1.168565096
1.160152892
1.154741524
1.15226787
1.151667768
0.3391777215
0.5913971718
0.82987371
0.9979920873
1.097225475
1.147085946
1.167986317
1.168290434
1.160238557
1.154941073
1.152501981
1.151894905
0.341791641
0.5908271244
0.827710698
0.9967940387
1.09611218
1.146120356
1.167250995
1.167860846
1.16025178
1.155102576
1.152697395
1.152077196
0.3433151012
0.5895612713
0.8243379858
0.9945218586
1.094512528
1.144889065
1.166347019
1.167317528
1.160121665
1.155108524
1.152731839
1.152097675
0.3440095263
0.5877472149
0.8203118451
0.9913466621
1.092439307
1.143421837
1.165312799
1.166690388
1.159974225
1.155120318
1.152766769
1.152111662
0.3440511129
0.5854985485
0.8158995468
0.9875110901
1.089936436
1.141740311
1.164175069
1.16600056
1.159702231
1.154981863
1.152644461
1.151967905
0.343580191
0.5828792591
0.8112179576
0.9832199792
1.087073858
1.139870196
1.162954645
1.165262821
1.159458263
1.154895085
1.152569461
1.151865243
0.3426878174
0.5799481425
0.8063374374
0.9786164178
1.083924043
1.13784062
1.161669267
1.164488719
1.159091428
1.154654177
1.152335805
1.151605167
0.3414504267
0.5767730966
0.8013184114
0.9737983191
1.080549341
1.135679397
1.16033366
1.163687172
1.158793023
1.154507354
1.152193178
1.15143092
0.3399708428
0.5734266633
0.796212338
0.9688339703
1.077000563
1.133411101
1.158959741
1.162865108
1.158363362
1.154198164
1.151886869
1.151096453
0.3383397363
0.5699573067
0.7910523571
0.9637691885
1.073317452
1.131056043
1.157556621
1.162028481
1.158035028
1.154013406
1.151702303
1.150878761
0.3365879851
0.566392752
0.7858573402
0.9586367267
1.069531666
1.128631006
1.156131041
1.161180119
1.157571434
1.153670449
1.151361584
1.150510834
0.334731504
0.5627571833
0.780647512
0.9534668292
1.065670499
1.126149337
1.154687537
1.160324895
1.15721323
1.153445048
1.151135987
1.15025185
0.3327950372
0.5590994978
0.7754564537
0.948293045
1.061758855
1.123621751
1.153229105
1.1594597
1.15676093
1.153117816
1.150812514
1.149904933
0.3308231059
0.5554603451
0.7703333671
0.9431536965
1.057821034
1.121058818
1.151760653
1.158594367
1.15632274
1.152810721
1.150508931
1.14956774
0.3288831381
0.5518987447
0.765333083
0.9380863254
1.053878771
1.1184677
1.150298987
1.157728425
1.155987408
1.152579955
1.150284157
1.149326211
0.3270578196
0.5485074708
0.7605336741
0.9331397815
1.049957441
1.115854696
1.1489138
1.156931668
1.155371936
1.152148808
1.149867874
1.14887306
0.04308165806
0.05407750275
0.1796264185
0.08516640821
0.04427848186
0.1091263043
0.2440700595
0.1827169443
0.1170730433
0.08716236901
0.1415632277
0.06907058321
0.0661880722
0.08233807111
0.1578076221
0.1453504465
0.02978760195
0.05231809228
0.02709204756
0.03570585454
0.09301311056
0.05602356315
0.15590825
0.3533843215
0.274257065
0.1095918867
0.09754404863
0.03832290123
0.1953849076
0.1640262387
0.08566234462
0.09453802244
0.007688993644
0.01828854945
0.03150560788
0.07794427128
0.01131367548
0.01276624602
0.03549934744
0.01155503381
0.01145739871
0.01297903099
0.01140602056
0.01204911542
0.01861942684
0.0140453277
0.02689121787
0.02088451796
0.01198039483
0.008041448083
0.0205746029
0.01118104973
0.01143558693
0.1864180457
0.2375412799
0.0373568428
0.01372655413
0.01828428109
0.01102003535
0.01468553649
0.0276074041
0.05433683147
0.01173549361
0.008397156523
0.008492228489
0.01193097261
0.01188518301
0.03461645447
0.02918577975
0.01131765565
0.01109101069
0.01138893918
0.01144105284
0.007960692887
0.01141082123
0.01170266706
0.01210570932
0.01183046535
0.01156464536
0.01184688897
0.01174970778
0.01172878639
0.01190449945
0.01191201679
0.01186236279
0.01209706419
0.01259049766
0.01222397868
0.01154213004
0.01112837356
0.01123620662
0.01217785779
0.01153190354
0.01147109094
0.2549472747
0.3159040912
0.3395347304
0.4219584754
0.4535535289
0.5601847787
0.06891359946
0.1197634899
0.1140926575
0.2685506792
0.330152823
0.2551035799
0.3492026225
0.4127870132
0.3364033153
0.435940516
0.5134878446
0.4413785196
0.5425513752
0.6381141151
0.578409973
0.1275346
0.2416521178
0.209868084
0.4205008654
0.5081504956
0.3647479773
0.5201523677
0.5639126131
0.4442830067
0.581927743
0.6470707659
0.5435392096
0.6727902067
0.7544965487
0.6644640631
0.1059122932
0.09152888119
0.1770213453
0.3793063232
0.3589707713
0.4504869299
0.6679998767
0.5727717937
0.7387671283
0.7914320664
0.6134453901
0.7961035019
0.8295111627
0.6860913868
0.8463699082
0.9143511177
0.792311318
0.1477917832
0.1135945368
0.219787834
0.4209908893
0.3880640681
0.4949736049
0.7091633773
0.6776899097
0.7758424953
0.9398091891
0.8644745266
0.9818891516
1.073225632
0.8841638508
1.078559548
1.118899503
0.9625237778
0.2106901144
0.1625724049
0.2755205456
0.4737140988
0.4337997142
0.5471788092
0.7494430488
0.7199093562
0.8097937311
0.9562581434
0.9447867221
0.9936648562
1.076596901
1.074445848
1.096480049
1.138104919
1.136906063
0.2621251755
0.2259824305
0.3192414937
0.5147526436
0.4862371068
0.5843771693
0.7725644324
0.757498296
0.8268573016
0.9611919043
0.9585542159
0.996745597
1.078038196
1.077077175
1.097654852
1.138838664
1.138370248
0.2771039016
0.269292363
0.3339132985
0.5242553585
0.5204242457
0.5908183693
0.7758382204
0.7738210228
0.8297120806
0.9628249733
0.961728251
0.9979805208
1.078431797
1.078220286
1.097879973
1.138835449
1.13889732
0.2804697059
0.2780595245
0.3383197068
0.5261572157
0.5248599068
0.5914112602
0.7760180877
0.776132814
0.8301318866
0.9631714728
0.9630296015
0.9981205376
1.078069856
1.078403817
1.097425708
1.138299092
1.138744501
0.2827962712
0.2811362538
0.3412507167
0.5269009791
0.5264372403
0.5910406452
0.7741248113
0.7756962066
0.8283939606
0.9621918138
0.9630537778
0.9971971633
1.077091884
1.077880341
1.096436348
1.137369499
1.138099474
0.2842819604
0.2832389586
0.3430211434
0.5267540341
0.5269381344
0.5899344293
0.7710883199
0.7734440224
0.825258149
0.9599052422
0.961734967
0.9951835508
1.075525242
1.076755175
1.094957654
1.136125785
1.137086312
0.2850947854
0.2845392148
0.3439012775
0.5259111083
0.5266000332
0.5882446211
0.7674398511
0.7702196279
0.8213611964
0.9565792063
0.9591569126
0.9922116423
1.073377864
1.075041293
1.093000191
1.13460161
1.135770447
0.2853869054
0.28521169
0.3440926001
0.5245271878
0.5256100338
0.586097302
0.7634152191
0.7664626456
0.8170309674
0.9525432863
0.9556246845
0.9885194832
1.07070502
1.072755247
1.090598764
1.132818219
1.134179377
0.2852038968
0.285382089
0.3437400887
0.5226918123
0.5241065713
0.5835655654
0.7591116639
0.7623619321
0.8124093195
0.9480429112
0.9514537055
0.9843266077
1.067600173
1.069965015
1.087819075
1.130803336
1.132335153
0.2846190094
0.2850895838
0.3429465573
0.520475348
0.5221692376
0.5807063425
0.7545878703
0.7579980854
0.8075726923
0.9432337042
0.9468642326
0.9797905751
1.064159106
1.066767609
1.084734766
1.128591089
1.130267598
0.2837463376
0.2844221894
0.3417863215
0.517944417
0.5198672491
0.5775855146
0.7499015065
0.7534281004
0.8025830511
0.938216917
0.9419950545
0.97501881
1.060461876
1.063255669
1.081411151
1.126215355
1.128011371
0.2826640014
0.2834907336
0.3403572513
0.5151935533
0.517272421
0.5742756533
0.7451083563
0.7487100952
0.7974947475
0.9330623498
0.9369381641
0.9700858791
1.056571276
1.059504746
1.077901694
1.123706272
1.12559956
0.2814384888
0.2823662306
0.3387593561
0.5123030571
0.5144793795
0.5708345713
0.7402488564
0.743897538
0.7923461121
0.9278168303
0.931757372
0.9650427842
1.052535413
1.055573928
1.074248927
1.121089454
1.123061365
0.2801084632
0.281112252
0.3370371623
0.5093247093
0.5115658841
0.5672913168
0.7353438917
0.7390252605
0.7871582767
0.9225111902
0.9264942988
0.9599244405
1.048390822
1.051507785
1.070486117
1.118385894
1.120421021
0.2786861849
0.2797565817
0.3352059613
0.50625219
0.5085638439
0.5636697341
0.7304099952
0.7341112446
0.7819496811
0.9171727225
0.921177785
0.9547609747
1.044168314
1.047340942
1.06664142
1.115612928
1.117698577
0.2771892127
0.2783117998
0.3332884561
0.5030929723
0.5054676585
0.5600142676
0.7254757251
0.7291738459
0.7767497992
0.9118333745
0.9158357821
0.9495846634
1.03989622
1.0431034
1.062740057
1.112784847
1.114910565
0.275647177
0.2767966987
0.3313223656
0.4998999655
0.5022932811
0.5563660816
0.7205886957
0.7242462153
0.7716046926
0.9065331272
0.9105022286
0.9444331085
1.035602942
1.038823362
1.05880665
1.109915532
1.112070913
0.2741108934
0.2752485731
0.3293657982
0.4967405564
0.4991008066
0.5527781111
0.7158062538
0.7193798735
0.7665677308
0.9013136056
0.9052183564
0.9393441107
1.031314744
1.034528999
1.054863553
1.107016141
1.109193108
0.2726238953
0.2737279669
0.3274668317
0.4936676383
0.4959639559
0.5492912761
0.7111672611
0.7146342494
0.76167622
0.896205895
0.9000258077
0.9343465381
1.027053097
1.030245963
1.050929477
1.104096828
1.106287638
0.2711534806
0.2723067331
0.3255673936
0.4905506657
0.4929817117
0.5457419575
0.7064231141
0.7100949227
0.7566611761
0.890924972
0.8949802657
0.9291636787
1.02259262
1.02600501
1.046800597
1.101018993
1.10336503
0.04086325691
0.03363775154
0.03532747279
0.07103748579
0.06720121515
0.05012807789
0.1634803584
0.1440324445
0.153034181
0.07958442298
0.03130325411
0.02038372038
0.027481955
0.04533016406
0.145499747
0.1388859783
0.09674093099
0.2119944039
0.1794658973
0.2152923538
0.1570486342
0.1721319298
0.2050458059
0.09866541757
0.08536807096
0.1384963616
0.1189212619
0.1244142009
0.114486939
0.1370842761
0.02303188878
0.03209038258
0.05367321772
0.05664640003
0.07238855868
0.06283374528
0.04719150527
0.0505285344
0.1254702607
0.1230355283
0.07265218122
0.1530986273
0.1373703042
0.1415627111
0.1296872604
0.1327761111
0.1491123871
0.0203229842
0.02274250989
0.03164621244
0.01378192821
0.01322318106
0.01202693655
0.04918258935
0.02961776168
0.03444583179
0.02507713799
0.01592032444
0.0178279429
0.05536447237
0.05131432769
0.02976861055
0.08898451202
0.06941524149
0.07339347439
0.06521306338
0.08453212534
0.04094503645
0.04452825829
0.05941158774
0.01575177433
0.01482101103
0.03623084838
0.03587105086
0.227417643
0.2211189799
0.1335058257
0.3475524483
0.2883359299
0.2941046007
0.2372556967
0.2815756664
0.3182750223
0.1059778162
0.08579965765
0.08967100929
0.07761639909
0.08157882194
0.1013917051
0.04635885995
0.0631202169
0.05916075684
0.1822406218
0.1618672368
0.1725584429
0.1467360005
0.1536046715
0.1716625561
0.09304898037
0.1328869793
0.1271077029
0.09036435395
0.05687440092
0.05977212739
0.01624091218
0.01141706571
0.01212797371
0.04176417183
0.0398540087
0.04644250467
0.04489103085
0.02941528668
0.07461563915
0.0599466455
0.06209602728
0.01146360296
0.01466129151
0.0132649196
0.01831839103
0.01637412535
0.01203637988
0.03382413045
0.02521993028
0.02750960009
0.01697038413
0.01278775585
0.01358304961
0.01181164188
0.01205583257
0.0153009623
0.02515475287
0.01701517045
0.01846093068
0.01463988142
0.01575462045
0.0225938271
0.01323310302
0.01432225915
0.02264584615
0.2062049413
0.1932073133
0.1738610809
0.2220067567
0.2056565933
0.2197159491
0.02956000856
0.03157085647
0.03929467874
0.01476347997
0.02253316299
0.0203913599
0.02709760841
0.02505697602
0.01639504306
0.0362126398
0.03450919585
0.02528449992
0.05039008603
0.04318374708
0.04319657458
0.04029358873
0.04904689662
0.01835138948
0.01723663907
0.03275818639
0.0243089843
0.02648845305
0.02026434795
0.02230276004
0.03060667178
0.5973335654
0.7090385397
0.8244224144
0.9432412001
1.072668596
1.159623258
0.06153783132
0.07876790962
0.07503472853
0.2207363607
0.240394325
0.2214693525
0.2947757582
0.3149448777
0.2933755792
0.3826730098
0.4083044283
0.3851567072
0.4941695766
0.5270535442
0.5059648895
0.6757921461
0.7803357746
0.7389022104
0.8752774584
0.9838128552
0.9616002038
1.091218209
1.160962826
1.160275262
0.1191891051
0.1560323943
0.1509462721
0.3435420235
0.3625380366
0.3207436251
0.4223343034
0.4411319488
0.4021618177
0.5007347849
0.5242763538
0.4905918667
0.6017855468
0.6320116717
0.6024752507
0.7838352464
0.8776743483
0.8268359626
0.9564555502
1.054540225
1.01662437
1.141796125
1.162205563
1.161604537
0.1658630387
0.2368433913
0.2327225517
0.4341655357
0.5061978717
0.4985856658
0.6480677959
0.6506265439
0.5891283422
0.6800928411
0.6948067512
0.6463252657
0.7526204233
0.7759113347
0.7364494535
0.9297340308
1.001751941
0.9356386955
1.075623256
1.157532759
1.102726864
1.166499251
1.163333088
1.162824688
0.1952697484
0.2643082471
0.2553391018
0.470819158
0.5440641343
0.5333132137
0.756953741
0.8203294011
0.8121882407
0.9354051135
0.9310022809
0.8645728711
0.9528756388
0.9677034826
0.9145350501
1.114049226
1.161513466
1.078321918
1.167261822
1.168933721
1.168372655
1.167583989
1.164271526
1.163852628
0.2477217118
0.3113883947
0.2984495363
0.5213297087
0.5928697096
0.5802589385
0.7940433795
0.8517398615
0.8443825422
0.9889263036
1.022824022
1.020546543
1.095411066
1.112195941
1.111602115
1.147212147
1.162826365
1.162288165
1.168274656
1.169713233
1.169383398
1.168255601
1.164955226
1.1646726
0.3001384408
0.3622895448
0.3504710481
0.5692529066
0.6370380903
0.6276170632
0.8212768509
0.8729476532
0.869198045
0.9956320914
1.026997221
1.026412504
1.097208309
1.11372873
1.113456918
1.147858434
1.163329877
1.163156463
1.168678166
1.17005243
1.169929006
1.168588395
1.165371865
1.165218453
0.3307347425
0.3925942995
0.3883244451
0.5899746841
0.6545219584
0.653617146
0.8285868119
0.8777675333
0.8770814652
0.9975118234
1.028476139
1.028221113
1.097865911
1.11423174
1.114183793
1.147815121
1.163284385
1.163366364
1.168645935
1.170032491
1.170079755
1.168639345
1.165550482
1.165514968
0.3363224748
0.3972430686
0.3962687303
0.5912584571
0.6557245903
0.6556489768
0.8302251155
0.8793224037
0.8791176999
0.9981798966
1.028870878
1.028858987
1.0977258
1.114009028
1.114120619
1.147279026
1.162829627
1.163100541
1.168274111
1.16973061
1.169909848
1.168458829
1.165530172
1.165590115
0.3399475407
0.4002662951
0.3996327098
0.5913275182
0.6550949694
0.6553640268
0.8294883228
0.8788701451
0.8791707376
0.9977955907
1.028379007
1.028582895
1.096993136
1.113251874
1.113484569
1.146387158
1.162074941
1.162484302
1.1676429
1.169217705
1.169494787
1.168099482
1.165349028
1.165486026
0.3422627363
0.40209294
0.4017356206
0.5905689551
0.6534937717
0.6539626596
0.8269526033
0.8766080159
0.8773128853
0.9963222645
1.0270096
1.027435894
1.095757421
1.112057918
1.11239497
1.145218058
1.161094664
1.161609661
1.166817405
1.168549872
1.168898915
1.167607234
1.165049093
1.165240597
0.3435561073
0.4029560873
0.4028193728
0.5891528285
0.6512579396
0.6518655082
0.8233776949
0.8731270399
0.8740791587
0.993802967
1.024763859
1.025403232
1.094037372
1.110459653
1.110896411
1.14380755
1.159933994
1.160534818
1.165844362
1.167766503
1.168169562
1.167017722
1.164657115
1.164892016
0.344073479
0.4030827218
0.4031039974
0.5872218231
0.648562965
0.6492733316
0.8192382662
0.8689433623
0.8700363127
0.9904401996
1.021752618
1.022567847
1.091851184
1.108474726
1.109005624
1.142177374
1.158622439
1.159295532
1.16475549
1.166894989
1.167339556
1.166355782
1.164200088
1.164463321
0.3439762648
0.4026932619
0.4028366373
0.5848754987
0.6455066087
0.6463015596
0.8147507267
0.8643411595
0.8655218825
0.9864741152
1.018151706
1.019097655
1.089251392
1.106140111
1.106753787
1.140351796
1.157183911
1.15791764
1.163574022
1.165955095
1.166431922
1.165639496
1.163688845
1.163977797
0.3433924957
0.4018328254
0.4020895425
0.5821722612
0.6421430604
0.6430099669
0.8100134227
0.8594607754
0.8607018525
0.9820935738
1.014124102
1.015163595
1.086310496
1.103509216
1.10419163
1.138359488
1.155640687
1.156424031
1.162319114
1.164962265
1.165464
1.164881283
1.163141071
1.163444348
0.342405846
0.4005582897
0.4009135145
0.5791735461
0.6385288482
0.6394525163
0.8050928277
0.8543872555
0.8556699837
0.977428546
1.009792968
1.010898873
1.083099084
1.100637184
1.101375031
1.136228883
1.154013027
1.154836231
1.161006997
1.163929094
1.164449658
1.164092018
1.16255971
1.162879243
0.3410983511
0.3989496589
0.3993769608
0.5759491069
0.6347290147
0.6356928846
0.8000478193
0.8491852408
0.8504948077
0.9725684625
1.005246895
1.006399696
1.079676543
1.097572376
1.098354293
1.133985332
1.152318149
1.153172955
1.159651075
1.162865814
1.163400346
1.163278746
1.161958416
1.162283947
0.3395744233
0.3971106764
0.3975888147
0.5725694616
0.6308040826
0.6317945948
0.7949258942
0.843903138
0.8452293088
0.9675753756
1.000549182
1.00173517
1.076090814
1.094355187
1.095171892
1.131650332
1.15057
1.151449781
1.158261913
1.161780456
1.162324888
1.162449157
1.161337438
1.161672916
0.3379121797
0.3950974594
0.39561501
0.5690731729
0.6267906827
0.6278014691
0.7897555214
0.8385705242
0.8399074077
0.9624907551
0.9957438042
0.9969533914
1.072379212
1.091017959
1.091862049
1.129241479
1.148778947
1.149678792
1.15684761
1.1606793
1.161230483
1.161606364
1.160704825
1.161041943
0.3361332351
0.3929456258
0.3934942955
0.5654886301
0.622706637
0.6237334785
0.7845546457
0.833207848
0.8345502263
0.9573461518
0.9908647283
0.9920897222
1.068572232
1.087587539
1.088452593
1.126772895
1.146953878
1.147869106
1.155414209
1.159567004
1.160121782
1.160756931
1.160065682
1.16040566
0.3342555907
0.3906869849
0.3912592482
0.561842915
0.6185708947
0.6196085421
0.7793456989
0.8278395044
0.8291803265
0.9521719301
0.9859431326
0.9871757237
1.064696151
1.084086738
1.084967367
1.12425569
1.145102497
1.146028919
1.153965593
1.158446711
1.159002694
1.159899823
1.159412556
1.159754181
0.3323074177
0.3883518847
0.3889376529
0.5581856346
0.6144210509
0.6154562821
0.7741666049
0.8225029784
0.8238315474
0.9470030724
0.9810124136
0.9822439674
1.060775735
1.080536546
1.081427566
1.121700778
1.143227342
1.144164439
1.152503061
1.157318914
1.157873932
1.15904187
1.158773656
1.159102654
0.3303385285
0.3859959925
0.3865784024
0.5545609418
0.6103212111
0.611337802
0.7690690194
0.8172468171
0.8185505892
0.9418782907
0.9761078385
0.9773296738
1.056834876
1.076956962
1.077853617
1.119115646
1.14132411
1.142279947
1.151020771
1.156178802
1.156740238
1.15817212
1.158096081
1.158437684
0.3284070128
0.3836838765
0.3842549188
0.5510207551
0.6063438977
0.6073267875
0.7641037169
0.8121179782
0.8133877417
0.9368332386
0.9712614089
0.9724663881
1.052894565
1.073365336
1.074263411
1.116506518
1.139359181
1.140392851
1.149483956
1.154995789
1.155612964
1.157273741
1.157450123
1.157781908
0.3265385302
0.3814369361
0.3820582123
0.5475641276
0.6024751052
0.6035238089
0.7592486635
0.8070967227
0.8084133406
0.9318571248
0.9664657791
0.9676964766
1.048954111
1.069762325
1.070677184
1.113757448
1.137193039
1.138589165
1.147807518
1.153717143
1.154554016
1.156306075
1.156691675
1.157172579
0.1719915882
0.1642998904
0.1689905055
0.08224775858
0.06575282774
0.06820579986
0.03783189877
0.03819023383
0.04785302259
0.1789574428
0.180481176
0.1895559218
0.1320561182
0.1376464194
0.09967599119
0.09690751956
0.07949506993
0.04394100232
0.04165841522
0.03391938218
0.02551851672
0.02404715772
0.03865247501
0.04890317784
0.0452404384
0.08811167114
0.1055162234
0.1027060495
0.02959898973
0.02778390205
0.2739211535
0.2569575496
0.238684469
0.29844276
0.2769137474
0.2942529002
0.3651604288
0.3469496355
0.3218489906
0.403456047
0.3739506071
0.3924455625
0.4874836002
0.4693795989
0.4351988408
0.5443407678
0.5056105806
0.5233454528
0.08616271648
0.08266393067
0.06536233265
0.1202264694
0.1016349927
0.1050753029
0.09384428638
0.09757933088
0.1174630762
0.2877479573
0.2620079081
0.2422410176
0.3008209679
0.2784787369
0.3070826993
0.235918585
0.2550721782
0.2760651036
0.369161256
0.3405519425
0.3200599767
0.3838653771
0.3617661976
0.3902493885
0.314248415
0.3360078954
0.3585670199
0.4603367088
0.4320395254
0.4068022883
0.4875091755
0.4591176485
0.4859984181
0.4121592346
0.4350647834
0.4634176267
0.5748104462
0.5507645965
0.5181881027
0.6168848109
0.5834589267
0.6074359308
0.5410908187
0.5613176005
0.5953287237
0.1650637487
0.160345653
0.1248239338
0.1871842584
0.1904102791
0.2270324593
0.4777044023
0.414368352
0.397403739
0.4533729726
0.4351707352
0.4944668254
0.3423556576
0.3848465674
0.4054886988
0.5338885646
0.4843427404
0.4677390649
0.5204286626
0.5018529588
0.5485911347
0.4230644135
0.4600245156
0.4793008804
0.6021052822
0.5613799572
0.5404982862
0.6076086289
0.5838960282
0.6237520549
0.5162970807
0.5488430797
0.5738014318
0.6988870071
0.6639500279
0.6347894301
0.7228683434
0.6930142628
0.7259335413
0.6333758831
0.6627899758
0.691699455
0.1000156237
0.09597921986
0.2478109819
0.2417116927
0.1706007405
0.3716426378
0.3091354223
0.3156931201
0.2988357686
0.3035983985
0.3649482988
0.5234361452
0.5144254664
0.441874767
0.658847146
0.5870103197
0.5961666793
0.5655921955
0.5785262301
0.6494674071
0.8032665055
0.7212385084
0.7284148613
0.7271933818
0.7211846963
0.7930967716
0.6004631388
0.6581035852
0.6677852531
0.8041306116
0.7473606407
0.7359405311
0.7784571902
0.7616145035
0.8153148008
0.6654627109
0.711739491
0.7308455984
0.8650314071
0.8188672068
0.7979413147
0.8718910477
0.8425466555
0.888021401
0.7622772307
0.8008555647
0.8290839485
0.1346015652
0.1231532599
0.2860898514
0.2746289502
0.206892583
0.4089833409
0.3426853671
0.3540078552
0.3234500052
0.3324505937
0.3979646817
0.5677480267
0.5555918707
0.4824863785
0.6984124978
0.6277670837
0.6393531778
0.6060412818
0.6166083236
0.6878631681
0.8365809421
0.8285059767
0.7663848308
0.934454822
0.8846704793
0.8913547062
0.870822471
0.8777852013
0.9288388007
1.017823043
1.007417305
0.9777411464
1.004421699
1.002727135
1.048063583
0.872762762
0.9341595158
0.9418463196
1.085997945
1.024093002
1.011927059
1.06428234
1.040721108
1.100371518
0.935399489
0.9868082526
1.009596709
0.1945067077
0.1782678608
0.3377565886
0.324621684
0.2618502194
0.4605647798
0.3922325657
0.4052279808
0.3662432771
0.3790751416
0.4470935694
0.6169338428
0.6051866833
0.5345195825
0.7403333565
0.6741172232
0.6847178215
0.6511291646
0.6628300121
0.730380531
0.8643470299
0.8584462976
0.8023527758
0.9531349042
0.9087767287
0.9131949698
0.8977012878
0.9035567563
0.9492676181
1.025703284
1.024561474
0.9916279687
1.076022518
1.052427198
1.053118756
1.04996178
1.051411398
1.075338409
1.11311556
1.11269774
1.095992437
1.137774624
1.126497973
1.126864215
1.125531516
1.126056079
1.137377698
0.2521079565
0.2401007691
0.3816622641
0.3728658431
0.310432271
0.5072784532
0.4393685338
0.4474462116
0.4177701856
0.429204096
0.4974487762
0.6503592192
0.6446280762
0.5779706079
0.7692824728
0.7087711484
0.713540588
0.6941964142
0.7024249923
0.7641565575
0.8762752689
0.8752405919
0.8250634917
0.9605589636
0.9202765065
0.9210585083
0.9166915623
0.9191078447
0.9598054404
1.027893887
1.027488245
0.9962360074
1.077790947
1.054573123
1.054891595
1.053694413
1.054176578
1.077473039
1.114087002
1.113936903
1.097463737
1.138733096
1.127571239
1.127694061
1.127161164
1.127395343
1.138579237
0.2760532612
0.2744916112
0.3951961848
0.3940227122
0.3325229571
0.5235452037
0.4579574275
0.4588647804
0.4536394865
0.4568826279
0.5226740548
0.6554414171
0.6550758665
0.5904614748
0.7753564919
0.7170655474
0.7174863836
0.7155545298
0.7164360494
0.7746859639
0.8787879939
0.8783368356
0.829224494
0.9625409021
0.9227600256
0.9231331246
0.9217250958
0.9222912688
0.9621768124
1.028791071
1.028664589
0.9977812389
1.07841281
1.055443288
1.055509401
1.055139031
1.055321339
1.078343862
1.11419681
1.114234882
1.097895638
1.138892826
1.127784587
1.127733845
1.127767951
1.127797072
1.13891491
0.2797367193
0.2789367781
0.3989204307
0.3981252857
0.3373706432
0.5258039926
0.4610978401
0.4616874946
0.4596888705
0.4604327476
0.5253746531
0.6555662328
0.6556909729
0.591367174
0.7762088345
0.7177009804
0.7174958603
0.7177179613
0.7177823129
0.7762529741
0.8793486764
0.8793996779
0.8302522389
0.9632048618
0.9236704988
0.9236463539
0.9234107802
0.9235911034
0.9631572199
1.028732531
1.028828467
0.9981828632
1.078220985
1.055407753
1.055280671
1.055523747
1.055489285
1.078333058
1.113689198
1.113864565
1.097593038
1.138474455
1.127380666
1.127203344
1.127647954
1.127529457
1.138623572
0.2822980769
0.2817466516
0.4013142799
0.4008255351
0.3406381831
0.5268063383
0.4630378794
0.46335638
0.4622056172
0.4626553483
0.5266536574
0.6543886797
0.6547676745
0.5912085025
0.7747350331
0.7163208144
0.7157864445
0.7171872167
0.716791429
0.7752640663
0.8779317928
0.8784541552
0.8289910076
0.9625645131
0.9229458676
0.9225079995
0.9235174745
0.9232836494
0.9628522741
1.02780613
1.028120296
0.9975311084
1.077391379
1.054633327
1.054328117
1.055109199
1.054893594
1.077654352
1.11270651
1.112992305
1.096730103
1.137633637
1.126518239
1.126242393
1.126999702
1.126770876
1.137877066
0.2839798141
0.2836346159
0.402631271
0.4023904628
0.342672331
0.5268626315
0.4639612296
0.4640543883
0.4636146312
0.463815737
0.526925661
0.6524423158
0.6529858667
0.5902712876
0.7719186997
0.71388579
0.713171141
0.7151981589
0.7145630955
0.7727066769
0.8749819553
0.8758277336
0.8261323688
0.9605875274
0.9206580424
0.9198864642
0.9219761838
0.9213572746
0.9611993379
1.025991937
1.026527877
0.9957847914
1.075972134
1.053141714
1.052655608
1.053977955
1.053582633
1.076382254
1.111308481
1.111695713
1.09537269
1.136464172
1.125284283
1.124922238
1.12594461
1.125625048
1.13678407
0.284944143
0.2847612771
0.4030951424
0.4030485012
0.3437508798
0.5261769769
0.4640542334
0.4639697968
0.4640990827
0.4640987731
0.5264081498
0.6499601025
0.6506220217
0.5887138914
0.7683927658
0.7108446687
0.7100161581
0.7124241803
0.7116482021
0.7693207583
0.8711005152
0.8721321586
0.8223842732
0.9574889959
0.9172157115
0.9162279021
0.9190509631
0.9181588042
0.9583502248
1.023343362
1.02407624
0.9930317062
1.073966968
1.050936791
1.050281153
1.052125399
1.051552166
1.074521921
1.109513766
1.109998607
1.093533132
1.135008191
1.123713669
1.123270465
1.124539793
1.124136786
1.135397442
0.2853587393
0.2853006775
0.4029493597
0.4030312758
0.3441013521
0.5249177572
0.4634886179
0.463257632
0.4638467892
0.4636858525
0.5252797165
0.6470763387
0.6478302635
0.5866721604
0.7644498249
0.7074017995
0.7064898017
0.7091654909
0.7082940468
0.7654663249
0.8666837497
0.8678248786
0.8181443675
0.9536034462
0.9130477367
0.9119274187
0.9152012299
0.9141401387
0.9546319232
1.020014795
1.020900616
0.9894968636
1.071417578
1.048094028
1.047298087
1.049587511
1.048857899
1.072101589
1.107347992
1.107921923
1.0912374
1.133287376
1.121827152
1.121309352
1.122808173
1.12232682
1.133740738
0.2852902347
0.2853513797
0.4023188843
0.4025204479
0.3438732303
0.5231887873
0.4623832928
0.4620348367
0.4629955732
0.4627042032
0.5236613142
0.6438600138
0.6446924491
0.5842315113
0.7602101896
0.7036484885
0.7026672642
0.7055599592
0.7046129811
0.7612941272
0.8619297023
0.863143234
0.8135873145
0.9492017876
0.9084295003
0.9072238874
0.9107828519
0.9096164215
0.9503395348
1.016182561
1.017179274
0.9854120585
1.068411423
1.044740804
1.043837675
1.046472649
1.045619717
1.069200232
1.104858114
1.105507946
1.088545337
1.131327329
1.119656377
1.119073823
1.120774694
1.120223417
1.131837605
0.2847954176
0.284954952
0.4012454343
0.4015515306
0.3431824985
0.521060892
0.460839153
0.4603946578
0.4616602566
0.4612623502
0.5216262205
0.6403633845
0.6412604461
0.5814481752
0.7557361017
0.6996378286
0.6986008917
0.7016714342
0.7006616982
0.7568734144
0.8569437712
0.8582076119
0.8087983053
0.9444586425
0.9035160881
0.9022532864
0.9060023682
0.9047662303
0.9456694256
1.01199024
1.013065729
0.9809500576
1.065046135
1.041002915
1.040020532
1.042912742
1.041967467
1.065916097
1.102100123
1.102811765
1.085530542
1.129161075
1.117243148
1.116606849
1.118477191
1.117866703
1.12971963
0.2839855228
0.2842128332
0.3997882985
0.4001826181
0.3421057155
0.5186009119
0.4589697745
0.4584634219
0.4599352085
0.4594606213
0.5192430093
0.6366481262
0.637593622
0.5783861652
0.7510848329
0.6954266235
0.6943492057
0.6975529323
0.6964948891
0.7522609201
0.8517989046
0.8530964968
0.8038413664
0.9394861472
0.8984044026
0.8971035963
0.9009798639
0.8996968215
0.9407459761
1.007542364
1.008673683
0.9762291124
1.061406397
1.036981434
1.0359409
1.039022133
1.038008872
1.062338024
1.099126192
1.099887324
1.082261253
1.126823173
1.114630162
1.113950071
1.115959017
1.1152999
1.127421577
0.2829492036
0.2832271236
0.3980554685
0.3985090312
0.3407340203
0.515896765
0.4568641492
0.4563061101
0.4579432072
0.4574102205
0.5165907541