/*--------------------------------*- C++ -*----------------------------------*\
| =========                 |                                                 |
| \\      /  F ield         | OpenFOAM: The Open Source CFD Toolbox           |
|  \\    /   O peration     | Version:  v2012                                 |
|   \\  /    A nd           | Website:  www.openfoam.com                      |
|    \\/     M anipulation  |                                                 |
\*---------------------------------------------------------------------------*/
FoamFile
{
    version     2.0;
    format      ascii;
    class       volScalarField;
    location    "3.13";
    object      omega;
}
// * * * * * * * * * * * * * * * * * * * * * * * * * * * * * * * * * * * * * //

dimensions      [0 0 -1 0 0 0 0];


internalField   nonuniform List<scalar> 
3259
(
30.42616481
30.44789002
30.47538227
30.51106405
30.57912417
30.67176349
30.86195732
31.19293656
32.1245659
34.43645648
41.35351638
96.91268358
30.32098257
30.34469872
30.37558635
30.41621849
30.49160114
30.60271302
30.82098237
31.19346965
32.2502546
34.85967688
43.47575997
145.9053197
30.2200382
30.24579048
30.27989037
30.32480049
30.4045909
30.52919911
30.76590792
31.16621239
32.26434342
35.02408008
45.72525344
479.1308129
30.11954094
30.14719753
30.18444055
30.23412736
30.31933238
30.45554873
30.70930554
31.12543294
32.21682876
34.97748359
46.97935219
635.3160955
30.02205346
30.05165188
30.09174157
30.14520033
30.23456251
30.38063313
30.65018368
31.08331977
32.14687828
34.79576638
46.25282375
444.2949031
29.92277721
29.95408174
29.99696843
30.05483093
30.14943699
30.30372805
30.58724295
31.04592928
32.10513174
34.64780146
45.23478699
295.1304862
29.82582642
29.858751
29.90409458
29.96517443
30.06321471
30.22447364
30.52051353
31.00397129
32.11189707
34.73186664
45.62888928
244.54886
29.72528185
29.75945103
29.80718768
29.87241221
29.97551865
30.1428386
30.45045066
30.95816552
32.12187383
34.96375874
48.06601921
277.1289925
29.62745388
29.66265723
29.71228179
29.78012285
29.88595185
30.05890971
30.37758453
30.9093657
32.13544635
35.26150194
51.71760085
310.2210532
29.52457619
29.56039632
29.61183652
29.68347157
29.79444613
29.97279211
30.30241207
30.85822158
32.15305809
35.63590896
56.18318874
331.6959847
29.42592285
29.46214397
29.51477058
29.58812921
29.7008732
29.88462839
30.22535372
30.80551321
32.17613632
36.12537878
60.57539075
342.0806328
29.32061569
29.3569101
29.41080039
29.48757104
29.60558737
29.79468269
30.14688509
30.75232666
32.20936542
36.79594073
64.57863501
344.1228572
29.22209249
29.25832302
29.31281867
29.39037949
29.50874547
29.70338677
30.0676888
30.70024009
32.2616187
37.64950955
68.20325106
340.4681683
29.11450788
29.15047346
29.20588518
29.28678735
29.41102143
29.61124694
29.98855204
30.65117471
32.34422652
38.60836431
71.47919711
331.3328303
29.01751446
29.05316274
29.10882049
29.18973346
29.3125291
29.51877745
29.91022397
30.60693156
32.46560716
39.60011303
74.45814464
319.2096604
28.90754829
28.94277341
28.99919106
29.08374203
29.2140471
29.42643139
29.83336437
30.56922113
32.62817313
40.58570567
77.17057082
305.653428
28.81374764
28.84856385
28.90506255
28.9889884
29.11538093
29.33460179
29.75859587
30.54000599
32.82879726
41.54959854
79.6456307
291.5374136
28.70070294
28.73505302
28.79226176
28.88034599
29.01745923
29.24362889
29.68651905
30.5209977
33.06120204
42.48556542
81.88918134
278.0539176
28.61214877
28.64610265
28.7033853
28.79040927
28.91967317
29.15382012
29.61774557
30.51377735
33.31846048
43.39078177
83.89460984
265.6055782
28.49452023
28.52802817
28.58600262
28.67762163
28.8233409
29.06549228
29.55293524
30.5187804
33.59491859
44.26793234
85.68866881
253.7541615
28.41395649
28.44714561
28.50532179
28.59600103
28.72730713
28.9789878
29.4927604
30.53675637
33.88645996
45.12141923
87.30861792
242.4431195
28.2891314
28.32192182
28.38077931
28.4756898
28.63380077
28.89480746
29.43794934
30.56752861
34.18951745
45.95015448
88.75339539
231.5945655
28.22024985
28.25285506
28.31210703
28.40780508
28.54120871
28.81373903
29.38938567
30.61065272
34.50112568
46.75051046
90.03324081
221.0534107
28.06141607
28.09367716
28.15400548
28.25455065
28.45421958
28.73733634
29.34855283
30.66542295
34.81728749
47.51772969
91.19538459
210.8476966
95.82329226
125.2702286
41.0825386
80.69445657
43.11117882
101.9145104
82.25876151
105.6110817
1136.404828
731.5973523
151.8272439
719.8976629
1091.938654
8554.912069
1147.588047
107.0649956
1803.608259
7639.299963
1101.728944
1770.65374
4056.6793
795.8615776
212.0566179
226.541945
194.8991434
206.654288
792.3005077
564.9700862
180.455627
190.912514
177.2274083
555.4607038
752.5747061
766.5661298
232.846593
245.6880047
1430.518486
2897.133093
1291.303209
2237.027263
1144.287124
6219.821203
2518.453658
5300.434768
1140.411704
3655.384956
1638.356472
45.16089791
111.8083084
105.0990036
164.5811506
4200.692285
7794.853918
1043.476325
400.4025866
421.2069064
6399.819836
3098.705232
727.5841071
915.4903691
8849.198789
315.999046
368.6810104
429.0958642
448.2017367
1159.593107
1491.527462
1825.830227
7858.173088
1393.164302
1219.044204
16113.44334
1114.568922
1682.396691
370.9338997
393.2226545
945.5780847
761.3507623
349.3447509
365.3324186
735.2836888
824.5846372
1205.017842
461.6370262
509.8142266
5748.754026
6556.716851
1909.042216
7132.642879
5049.161959
1720.925783
1116.691619
6192.967315
3409.289106
6894.746897
3878.411638
1619.954807
330.2046148
344.5856422
755.6151608
635.4492574
310.7818327
325.4841081
1713.66672
1690.117742
1067.346358
1806.645775
1107.869818
1750.372642
1736.358758
1770.705364
293.7025857
306.1835912
605.9977282
536.3307226
280.1152762
290.1955081
1095.061616
1094.774899
749.0394568
769.3368667
1103.87619
1108.26257
1510.398176
980.3941204
966.9906336
12635.03986
2379.805913
1544.784608
4483.936595
3602.697682
1824.518942
1801.470391
1128.290923
5993.655053
6536.42744
6239.95184
4853.424029
1202.18426
1872.795098
1813.073726
2550.966957
1708.438569
1722.96041
2176.910989
1010.64072
1642.757376
1577.315314
855.5457334
1214.174479
12955.76784
1161.009064
791.4859807
795.3583481
1828.817624
7469.402169
7716.466582
9224.548921
5799.156292
5341.83511
1767.063128
1754.820221
1109.058378
1732.415298
1756.053331
1757.145139
1738.425825
1741.878374
1151.407725
1163.537204
799.6805753
1820.437413
1720.706105
1775.695977
1766.07597
824.8768435
830.7058528
1208.924806
5574.234174
8591.87432
8964.107805
8352.339244
8397.988915
6205.98642
1857.242619
6151.419068
4303.245361
4701.399112
1125.702269
1792.25921
1775.361453
6158.45658
6781.890741
6521.195103
5283.317269
5777.600841
7190.732477
6811.791057
4283.766801
6456.766482
5526.609092
2221.782415
1783.835862
1190.739589
31.19419628
31.78587335
32.10370396
33.60259927
34.37113738
38.39758802
31.19716362
31.87691696
31.80190221
32.23379134
33.91628299
33.64768006
34.787159
39.60113599
38.58000301
41.81455436
49.17120181
47.82561238
100.4711538
164.1712826
155.9336546
31.1748177
31.89060117
31.88581534
32.26703448
34.05780939
33.96800781
35.00367888
40.6709573
39.87127777
44.01594832
51.58443515
52.83931302
148.9028742
296.1869333
261.9184034
31.13651698
31.85596952
31.88535645
32.23160525
34.03623621
34.06552686
35.00577025
41.31192359
40.90893736
46.89140632
172.2420454
123.9783006
650.9688284
31.09315969
31.79974111
31.84302185
32.16288736
33.904469
34.00993393
34.847418
41.11158238
41.3433973
46.55463706
163.4936832
174.8462358
496.1453019
31.05577273
31.75905117
31.78706423
32.10956587
33.77512335
33.86538538
34.67424492
40.53252613
40.95280767
45.41045497
135.8679827
156.2775846
322.216207
31.01492798
31.75009955
31.75563144
32.1097485
33.78461006
33.75564082
34.68429274
40.54798701
40.44376766
45.35965953
123.4981822
130.8274321
249.8497931
30.96997278
31.7412996
31.74801018
32.11908398
33.9101561
33.8130639
34.90008475
41.60202977
40.70784018
47.3462095
133.6412136
124.1639344
267.3139744
30.92183789
31.73238243
31.73905022
32.13168929
34.07115733
33.94686555
35.18042701
43.22843252
41.95558021
50.69472783
150.616748
137.8214514
302.6974474
30.87120249
31.72402734
31.73023792
32.14824306
34.27105053
34.11745634
35.53387629
45.58710571
43.74211324
55.0452547
167.5217312
154.9582501
327.4995166
30.81879274
31.71710395
31.72211739
32.16967143
34.51789059
34.32765585
35.98839603
48.52896961
46.29015311
59.51172761
181.8935535
171.4325154
340.4058997
30.76559376
31.71417867
31.71586751
32.19968093
34.84395203
34.59017531
36.60930939
51.5092221
49.28689486
63.61480525
192.8033319
184.9325334
344.2462713
30.71305841
31.71929335
31.71445617
32.24614075
35.29163829
34.94344955
37.42275403
54.28846723
52.2255921
67.33155789
200.538407
195.0283398
341.9798908
30.66306573
31.73970293
31.72272693
32.32018766
35.86362994
35.42413444
38.36335735
56.84374749
54.94801069
70.68991046
206.8839651
202.2191965
333.9694309
30.61746151
31.78186628
31.74795595
32.4313921
36.52164391
36.02197968
39.35176298
59.2004549
57.45084401
73.73971727
211.9110904
208.2924209
322.409566
30.577927
31.85085596
31.79646052
32.58376669
37.22306055
36.69439645
40.34098919
61.37931212
59.76154149
76.51552417
215.2499395
212.9101941
309.0980023
30.54643574
31.94919003
31.87269843
32.77539209
37.93998129
37.40170446
41.31108308
63.40168915
61.89926421
79.04847775
217.0271591
215.8831154
295.0786147
30.52470631
32.07611318
31.97836218
33.00051797
38.65712231
38.11977262
42.25444519
65.27972956
63.88506133
81.35071376
217.0956239
217.2717332
281.2032447
30.51430606
32.22865689
32.11202246
33.2521667
39.36590117
38.83543215
43.16735284
67.01373556
65.72715022
83.41511653
215.3928899
216.8667098
268.529136
30.51629355
32.40314903
32.27039584
33.52425279
40.06329542
39.54142158
44.05099626
68.61561136
67.42598862
85.257683
212.5978879
214.8481102
256.4861623
30.53107177
32.59624535
32.44984109
33.812373
40.75019611
40.23610269
44.91028234
70.10948515
68.99902832
86.91921834
209.2085869
211.8961776
244.9784317
30.55863763
32.80487468
32.64710371
34.11286685
41.42569443
40.92036152
45.74570696
71.50035134
70.46746445
88.41266311
205.4146822
208.4221868
233.9241208
30.59876195
33.02638834
32.85916916
34.42271278
42.08738583
41.59247951
46.554558
72.78117196
71.82854283
89.73772018
200.9546071
204.5822539
223.1781472
30.65121001
33.25959122
33.08343671
34.74105954
42.73824218
42.24952285
47.34199859
73.98083243
73.07619864
90.95479599
195.9466003
200.0032968
212.6960181
30.72038896
33.5201628
33.31653271
35.08944438
43.42520662
42.88647605
48.16649066
75.20467879
74.22776897
92.17836968
190.3256792
195.0237356
201.8437812
153.2476968
145.9519647
92.65058282
251.7137839
230.7930728
122.2113321
881.8659332
47.37787809
46.01419825
40.71545136
76.56328491
50.60700831
52.14153389
52.37571543
49.63621256
42.04756377
89.56082925
55.09026479
58.9378648
52.69294395
54.47727496
87.23860781
176.7931754
167.4562003
101.6982494
1130.067297
748.2869303
759.0083844
526.8946779
535.2957866
740.8621634
2985.425967
3710.38199
177.944318
2623.145698
2045.271721
828.726789
750.7023287
701.0155473
506.4125238
517.9398805
277.2622095
529.1202543
91.70802873
143.6884811
12047.66467
1304.945433
2362.60935
771.8827455
777.4150923
1149.32287
111.3864594
192.1233854
181.283392
5317.777509
5411.232236
9274.180999
592.1624232
607.8771024
827.7952765
215.6248077
287.815261
282.7888947
333.2747569
308.6850739
222.0940887
198.5013563
260.6752999
255.1546456
273.3535762
267.9640866
203.0248996
776.4383116
572.7786957
583.3499347
437.1023723
444.0192594
572.3640771
183.7974138
237.5598655
232.5131059
248.8671249
243.2655883
187.3793672
171.0862599
219.0254363
227.7500168
223.2960902
174.1171629
549.8574026
424.6976898
430.4220379
235.9714902
358.1866817
340.6122954
400.1502408
368.0412379
246.4030624
1359.622886
1928.161802
1855.011324
3303.100572
2986.657765
2075.020298
2752.913615
4057.328224
3624.263787
3217.661997
2275.816958
53.80458854
52.66733587
44.57636715
118.330032
68.74978345
71.2199842
59.70578696
60.63330272
114.9844964
333.9991508
273.2046577
155.3481516
4587.638823
1076.447004
1333.871778
395.3993067
339.3113849
6516.994714
696.9484007
726.3412108
1100.727249
407.3841322
526.2273509
512.1726872
548.1758886
539.7085249
415.1755262
4815.2071
922.9071776
1277.589097
1163.684555
1280.676979
3552.799708
1081.093686
1077.643811
721.080236
3500.476846
4998.11723
13152.87728
334.1478882
605.6311523
549.3636686
700.3053893
628.4903376
352.2989304
434.4291389
565.1740958
559.2002766
582.3664829
577.2653047
443.5620555
1226.472201
1543.982537
3057.470256
2683.670471
3689.510682
4180.605625
1693.025966
16170.03388
13986.57518
377.739543
469.362199
460.1199803
495.4971065
481.921313
384.7219537
854.0070084
628.4275621
658.0049314
557.0615006
565.9182586
771.7909319
354.7240625
438.2736691
431.5489186
452.2092011
444.8715446
359.6782622
740.2130297
1087.883282
1086.983794
465.9128473
607.3381421
602.0733183
681.0624629
686.558613
512.0393832
3594.410419
3839.976748
5497.55807
1833.748556
2737.954858
2493.107862
5030.527664
4484.573306
3107.675833
335.0459417
413.0028505
406.6282521
425.3726091
419.0101702
339.6252084
747.3003083
542.2767647
550.2881846
477.3170172
492.5721318
672.0486248
315.7410496
385.214033
377.2691151
400.0930248
392.9438752
320.6432372
297.6983906
357.0962133
351.6633744
369.8540318
363.0119656
301.6425374
587.5101527
452.8134882
464.0277313
413.2535183
418.6614124
542.0771211
283.3571026
336.5193102
331.5463085
346.5125174
341.515824
286.5686931
2300.596751
2100.711434
1431.403353
4223.608675
3077.767411
3210.166096
2683.331509
2786.260443
3929.513626
2879.419976
1118.381746
2240.450279
1583.743094
2407.978613
2285.759823
1179.904777
13388.80479
5183.271442
5359.927032
10347.01351
12667.13805
8344.149392
6440.802494
8894.522273
8408.738464
8430.696047
9740.236842
6440.465999
30.6262218
30.66288789
30.71579434
30.79152102
30.89680996
31.08438174
30.53501988
30.57862203
30.61510259
30.64005838
30.72664794
30.75062289
30.84734451
31.0676114
31.07802774
31.18855401
31.34523607
31.34397781
32.15192571
32.56584765
32.52562856
34.53063752
35.56460752
35.44372821
98.09072131
111.966093
110.4791025
30.44708796
30.49716687
30.5358505
30.56615945
30.6625952
30.69465928
30.79362972
31.03410506
31.0598368
31.18863074
31.36412973
31.36630193
32.26056157
32.7195887
32.70248995
34.9206622
36.10992754
36.01794587
30.36127343
30.41701953
30.45511923
30.49273883
30.59777101
30.63040916
30.73764876
30.99106149
31.02327343
31.15707707
31.34008009
31.34802685
32.25690082
32.72862007
32.73488652
35.02933355
36.32556405
36.30187982
46.22267333
56.25363961
55.05856932
569.0830249
1949.582824
2166.840939
30.27647802
30.33697278
30.37526115
30.4185372
30.53072271
30.56457284
30.68019903
30.94612598
30.97892698
31.11448559
31.29902031
31.31021158
32.19903067
32.66100586
32.68270605
34.93857051
36.25340787
36.29221508
46.95077615
58.12884496
58.12540563
598.0681828
1417.790302
1523.676477
30.19170944
30.2560522
30.29504386
30.34266494
30.46082731
30.49615408
30.61919897
30.90166447
30.93487497
31.0743144
31.25873754
31.26736166
32.13068947
32.57344834
32.59411878
34.7499701
36.00961516
36.07103357
45.95246649
56.15991983
56.80179849
396.9389108
1041.513279
1129.936336
30.10610617
30.17365124
30.21365166
30.26457288
30.3878744
30.42473069
30.5543268
30.85243247
30.88936051
31.03593801
31.22944374
31.23705338
32.10551082
32.53680871
32.53632501
34.64226509
35.8587356
35.86848263
45.14100926
54.33523073
54.59234315
274.654125
768.0431839
824.3193209
30.01924421
30.0894514
30.13059752
30.1840883
30.31200747
30.35028796
30.48586268
30.79906676
30.83912858
30.99290335
31.19628082
31.2049217
32.11413537
32.56622672
32.55800045
34.78444435
36.08301961
35.99285659
46.10231192
56.12312353
55.19795544
245.54124
637.7985619
660.0472963
29.93061746
30.00330484
30.04565861
30.10126657
30.23356211
30.27308393
30.41433453
30.7423399
30.78493918
30.94625907
31.15979553
31.16917176
32.12491051
32.6044607
32.59401133
35.03165366
36.50928594
36.39200376
48.86308818
61.8588585
60.28948751
286.2965408
577.8064818
590.9875309
29.84015034
29.91511828
29.95870004
30.01620155
30.1528666
30.19348111
30.34025684
30.68292669
30.72754473
30.89679567
31.12084957
31.13078454
32.13946494
32.65248702
32.63954794
35.34726833
37.06186926
36.91003381
52.79586979
68.5476741
66.85446151
316.7772447
530.4028166
541.4266313
29.74754668
29.82488982
29.86966952
29.929019
30.07013828
30.11174779
30.26409213
30.62153851
30.66761319
30.84517117
31.08013301
31.09043335
32.15821487
32.71071208
32.69511124
35.74495091
37.79400308
37.58858227
57.31208576
75.10327203
73.50978023
335.2721223
492.6671451
501.4825519
29.65317067
29.73272817
29.77859069
29.83990331
29.98558156
30.02807107
30.18625714
30.55899827
30.60588181
30.79221871
31.03865038
31.04902501
32.18320215
32.78249754
32.76284888
36.27412584
38.8041388
38.52255162
61.61387519
81.10999773
79.66679374
343.2373582
458.7709888
467.1298452
29.55695745
29.6389348
29.68568681
29.74920856
29.8995749
29.9427289
30.10732802
30.49642442
30.54323679
30.73914162
30.99803665
31.00799629
32.22021584
32.87857265
32.85137554
36.99457712
40.08308238
39.745697
65.51970309
86.48611244
85.20145863
343.764488
425.9935226
434.0764121
29.45977164
29.54392441
29.59130692
29.65741504
29.81267689
29.85620109
30.02806311
30.43519762
30.48088021
30.68762652
30.96063086
30.96952802
32.27902725
33.01632245
32.97700703
37.88281888
41.48024354
41.1279972
69.05335952
91.22228145
90.09703427
338.575238
394.6567044
402.3449773
29.36143775
29.44816382
29.49593867
29.56504151
29.72550831
29.76909052
29.94924333
30.37664541
30.42021563
30.63960979
30.92928719
30.93637977
32.37074728
33.21047099
33.15626929
38.8553488
42.87621937
42.53061407
72.25080841
95.39216614
94.39469478
328.4817199
364.9508489
372.2303877
29.2631618
29.35208294
29.40000038
29.47256847
29.63864852
29.68201226
29.87156774
30.32194176
30.36252179
30.59683077
30.90654006
30.91127814
32.50244807
33.46359641
33.39512868
39.84805624
44.22558102
43.89362634
75.16047542
99.10591773
98.21787677
315.8876697
337.0112285
343.839143
29.16423497
29.2560635
29.3039717
29.38042086
29.55260299
29.59550694
29.79567312
30.27238123
30.30897907
30.56102252
30.89502069
30.8967715
32.67499399
33.76725205
33.68727171
40.82911286
45.51622311
45.19907952
77.81146233
102.4011964
101.6145243
302.1208783
311.0341453
317.3595012
29.06632477
29.16041392
29.20811401
29.28894608
29.46780642
29.51005034
29.72216549
30.22933985
30.26092206
30.53423165
30.89743885
30.89552846
32.88422136
34.10904288
34.02069369
41.78647634
46.74898759
46.44612886
80.22895661
105.3013037
104.6136874
287.9403411
287.1684699
292.9476665
28.96784574
29.0653918
29.11285585
29.19844784
29.38463789
29.42605568
29.65163465
30.19408303
30.21970785
30.51804975
30.91547859
30.90946195
33.12347204
34.47729708
34.38330026
42.71488019
47.92474785
47.63612396
82.41310427
107.7932183
107.2115959
274.7695112
264.9757134
270.4316917
28.87135924
28.97120348
29.01829705
29.10917216
29.30346485
29.34392123
29.58469944
30.16778409
30.18660987
30.5139752
30.94978089
30.93965084
33.38598296
34.86296302
34.76527069
43.612581
49.04530244
48.76993097
84.36118561
109.8621643
109.383538
262.4426211
244.6579314
249.5866197
28.77385736
28.87798047
28.92493001
29.0213259
29.22461582
29.264064
29.52196637
30.15113433
30.16263061
30.52209635
31.00013973
30.98605669
33.66656512
35.26053706
35.16023184
44.48357404
50.1195872
49.85480122
86.10917069
111.5786249
111.1809675
250.6717775
226.7721545
231.124252
28.67941895
28.78574026
28.83274983
28.93498322
29.14835477
29.18695622
29.46396148
30.14481293
30.14850886
30.54327998
31.0660587
31.04817084
33.96131074
35.66646351
35.564388
45.33125463
51.15417228
50.89918794
87.68942435
113.016748
112.6829048
239.3972998
211.2178479
215.0739675
28.58244186
28.69426473
28.74259953
28.85006289
29.07477051
29.11319455
29.41108205
30.14885586
30.1449355
30.57719008
31.14654353
31.12511027
34.26678664
36.07741098
35.97432967
46.15357269
52.14625637
51.90188272
89.09320463
114.1709998
113.8981867
228.5232101
197.6882055
201.1692683
28.48907431
28.60279901
28.65473094
28.76593458
29.00349999
29.04366144
29.36324923
30.1636311
30.15145397
30.62343784
31.24059058
31.21577692
34.58067931
36.49136122
36.38710202
46.94995782
53.09562241
52.85768321
90.35590183
115.167862
114.9136721
217.8985699
185.829288
189.0761966
28.38079749
28.50377809
28.57134468
28.67631332
28.93012443
28.97988609
29.31898944
30.19114327
30.16858899
30.68260465
31.34887541
31.31849285
34.90660712
36.91436396
36.79824217
47.73745618
54.02517938
53.76352941
91.5431081
116.0717319
115.8072799
207.5804835
175.3355001
178.5055522
109.021782
107.5942972
94.71022352
158.0086185
151.0806347
127.2674654
79.25072505
66.89407584
67.91204074
99.91465483
80.05578333
81.7627355
68.99370825
70.07654016
83.83232474
121.6935997
120.0680481
104.2920673
89.96758541
100.654238
108.4326945
125.1582777
123.7098329
1819.874906
83.43948215
85.14723154
108.2292665
2958.402668
3257.881006
7411.240045
5814.251231
4321.25045
4850.491483
1377.290381
1595.720429
2103.091909
1191.502782
31.34018753
31.34165227
31.20003717
31.7764336
31.5326723
31.53389928
32.49781087
32.46336355
32.08151346
33.53455544
32.93933547
32.98899412
35.34963833
35.24062253
34.28520777
38.17062371
36.48156603
36.63186162
31.36695674
31.34837935
31.18794105
31.83229834
31.56051688
31.59111119
31.54474199
31.55269857
31.81868319
32.67656338
32.59466364
32.17243259
33.774112
33.11928569
33.2271765
33.02451307
33.08033401
33.72252741
35.91093701
35.65496882
34.59858711
39.02475243
37.05286091
37.42048825
36.75997847
36.92828828
38.83982859
115.0559812
113.49787
99.23691692
161.4644239
133.3022359
135.338744
129.2979456
131.2366239
158.5278197
31.35473187
31.3600693
31.18217628
31.89193186
31.59293007
31.58945387
31.59382435
31.59455854
31.89064349
32.73493752
32.73078301
32.2659702
34.03831743
33.30992974
33.32010597
33.26492659
33.29124594
34.00875056
36.25645303
36.19290405
34.96907248
40.41543642
37.88074207
38.00900956
37.58479938
37.73853592
40.14052612
197.2197025
201.3068396
270.0639864
31.32085507
31.33093476
31.1469617
31.86765252
31.56694281
31.55644025
31.58340215
31.57596125
31.87781468
32.70095768
32.71821699
32.24616601
34.05583436
33.30785121
33.29001542
33.32269806
33.31874955
34.06524624
36.32137342
36.33259185
35.02556334
41.23049447
38.21916317
38.23059751
38.10913357
38.17986111
41.09446819
57.90977578
57.30190632
46.6368176
162.8487909
81.10803948
83.06556695
74.00422201
77.48411285
143.3669499
1630.496213
1773.224959
639.7529582
973.6611612
903.919852
1218.826787
1084.582258
31.2772623
31.28791942
31.10346037
31.81447335
31.52094835
31.50901216
31.54507641
31.5329314
31.82858768
32.61559574
32.63959211
32.18184612
33.94194012
33.21302456
33.1830462
33.26670815
33.24049046
33.97722191
36.14005385
36.1993883
34.89439535
41.23001252
38.1205159
38.04280393
38.21623683
38.18700952
41.32362861
57.39623583
57.85142007
46.78427511
169.6856973
84.19728702
83.20300803
84.24485295
84.55349033
173.7984543
1221.091421
1318.377849
549.3497031
839.862619
842.2211812
860.9987878
840.9427026
31.24432839
31.25130344
31.06509966
31.76571777
31.48074439
31.47513239
31.49826574
31.48841602
31.77480801
32.54419575
32.55643488
32.11892439
33.79721931
33.10314958
33.0865367
33.15382689
33.12715215
33.83050529
35.90386009
35.94649802
34.70430099
40.65024189
37.76412662
37.69892135
37.94506234
37.85700922
40.80489869
54.9866478
55.54653994
45.65662249
141.9195508
78.58424481
77.09502656
81.79850899
80.16360017
148.905297
887.3419346
961.8223118
356.0455089
843.4003331
826.4106103
850.081475
849.5494826
31.21334889
31.22152438
31.02549678
31.75205877
31.4605564
31.45523402
31.47048568
31.46565196
31.75384782
32.55015979
32.54263799
32.10759401
33.76274946
33.0809703
33.09548048
33.07367169
33.07362717
33.75367421
35.91924478
35.88028707
34.65618137
40.44207006
37.66000308
37.72314431
37.64696139
37.63064946
40.40682256
54.65672279
54.34575801
45.17736367
124.6487808
74.96851596
75.32592492
76.0010491
75.1907645
127.1325997
685.9017948
723.6700571
259.5315763
750.7088018
727.0903957
802.7950015
775.9959111
31.178388
31.18742708
30.98149131
31.74356664
31.4381261
31.43212808
31.44970512
31.44399085
31.74581101
32.58417668
32.57493122
32.11651224
33.87573535
33.14633796
33.16541966
33.11148538
33.12839107
33.84342549
36.28219425
36.17939429
34.84040042
41.27576547
38.1529118
38.33229464
37.83039613
37.9851317
40.97333185
58.80218569
57.40857729
46.69445056
129.5391522
80.26813666
82.75020896
76.31658968
77.87517691
125.7250524
605.2974336
620.6366461
256.5021309
659.8730657
637.6640832
705.0480141
683.2280303
31.14059121
31.15026699
30.93410038
31.73457811
31.41347012
31.40706797
31.42601209
31.4197849
31.73679774
32.62722946
32.61553471
32.12817568
34.02732005
33.23007006
33.25418373
33.18570867
33.20724201
33.98588211
36.76782679
36.63443215
35.10383321
42.76324
38.95324912
39.19290147
38.52458529
38.73104468
42.34076836
65.16285262
63.49103152
49.74032372
146.3182292
90.29323046
92.8074037
85.25952471
87.77757636
142.0607079
553.3502654
565.5228855
294.6825809
577.4896632
559.1672467
616.730037
596.7294559
31.10065937
31.11080797
30.88404414
31.72603956
31.3874073
31.38074901
31.40058404
31.3940206
31.72810916
32.6802405
32.66604739
32.14371823
34.21730062
33.33413607
33.36338621
33.27956553
33.30620326
34.16612649
37.39939413
37.22446893
35.43788211
44.92366196
40.04316289
40.38083327
39.45239974
39.73468458
44.30715388
71.88190182
70.22648174
53.91078408
163.4683967
100.3617558
102.8418383
95.32938385
97.85200026
159.253061
510.6194603
520.2092989
322.5868932
508.0006306
491.5184144
541.6626733
524.6778311
31.05940584
31.06978767
30.83200695
31.7186035
31.36066705
31.35403266
31.37405996
31.36735325
31.72028921
32.74444961
32.72712317
32.16372058
34.4505296
33.45990632
33.49562429
33.39400884
33.42610989
34.38729461
38.26013565
38.01744954
35.86200105
47.77130087
41.58058842
42.03724874
40.74976753
41.1501801
47.02158618
78.18417863
76.66172766
58.42289984
178.5918971
109.9847524
112.2390323
105.2858526
107.6663767
175.1166805
475.5472406
484.0410066
338.0223111
444.5411299
429.5633916
475.3900909
459.779614
31.01810192
31.02833219
30.7788917
31.71418868
31.33468563
31.32864177
31.34747322
31.34098769
31.71480488
32.82649104
32.80362844
32.19098813
34.75238417
33.61775346
33.66497337
33.53356401
33.57410495
34.66801961
39.41819224
39.10346882
36.43530616
50.7798775
43.51287858
44.02271166
42.51514503
43.00869236
50.03816351
83.87817574
82.51496705
62.62670828
190.4342903
118.5062198
120.4224677
114.4061542
116.4926826
187.7603739
442.2390836
450.4788912
344.1244416
387.3516619
374.4086141
414.9745051
400.8877572
30.97874968
30.98827627
30.72603178
31.71683197
31.31212883
31.30743024
31.32282697
31.31728229
31.71522087
32.94110428
32.90838767
32.23240227
35.16722207
33.83281934
33.89888816
33.71624772
33.77204076
35.05110579
40.77653932
40.42755621
37.20394257
53.61517198
45.55071213
46.05192394
44.53420224
45.04421367
52.92737764
88.93353438
87.73083551
66.43708618
198.8649046
125.683183
127.2630134
122.2577187
124.0149546
197.0914597
410.1211955
418.0100963
343.078017
339.1762785
328.5896456
362.0733864
350.3371993
30.94404276
30.95212674
30.67521601
31.73280385
31.29676491
31.29460181
31.30326714
31.29967071
31.72717367
33.10586023
33.05923462
32.29849222
35.71074695
34.13029411
34.21850207
33.97043777
34.04755914
35.56399578
42.18238424
41.83202979
38.12113209
56.22481422
47.51460337
47.98775586
46.54663719
47.03419199
55.59299658
93.36810498
92.31154393
69.88144966
205.3964357
131.6036008
132.9414143
128.7733537
130.2166936
203.8347373
379.5937152
387.0771559
336.4051868
300.0691644
291.5710379
318.557826
309.0538325
30.91669397
30.92273186
30.6283568
31.76899744
31.29317355
31.29426879
31.29307679
31.29281486
31.75769863
33.33001615
33.26842545
32.39978177
36.35162785
34.51311745
34.62022581
34.31190546
34.41020592
36.18482721
43.55798942
43.21881118
39.10333123
58.62871854
49.36295498
49.80703842
48.45343964
48.91172592
58.04541441
97.30341345
96.36237355
73.00395549
210.8189329
136.6787521
137.8304178
134.2327761
135.4749976
209.5852218
350.7461892
357.7943997
325.5350776
268.6503007
261.7689857
283.5195655
275.8903708
30.89922246
30.90250815
30.58713961
31.83090259
31.30465539
31.31046241
31.29658035
31.30004704
31.8127762
33.6098617
33.53524696
32.54184193
37.04546532
34.96259633
35.08255592
34.7310909
34.84531469
36.86909186
44.87826493
44.55382303
40.09505703
60.85032815
51.09670496
51.51328345
50.24388913
50.67360781
60.31103328
100.8018305
99.96726269
75.84570926
214.5953453
141.0115748
141.9724016
138.9378041
140.000009
213.8166576
323.7551696
330.3231932
312.5647807
243.192389
237.6159579
255.2412116
249.0561078
30.89466692
30.89443855
30.55341672
31.92184887
31.33546008
31.34648363
31.31751732
31.32580046
31.89634143
33.93415798
33.84962205
32.72409137
37.7603095
35.45516233
35.58276326
35.20483107
35.32909254
37.58079202
46.13972764
45.8297974
41.07089526
62.90999393
52.72544531
53.11773856
51.92347554
52.32734754
62.40902132
103.8995382
103.1632984
78.43708014
216.6796814
144.5944269
145.3743096
142.9021571
143.7724749
216.3487347
298.7922601
304.8564673
298.6827611
222.5827117
218.0888519
232.3244317
227.3140868
30.90446192
30.90045795
30.52911109
32.0418488
31.38745519
31.40384434
31.35879064
31.37243099
32.00924266
34.29050608
34.19904538
32.94149075
38.47840088
35.9723211
36.10389056
35.71160898
35.84149505
38.29921849
47.34399257
47.04831442
42.0214004
64.82387633
54.25967517
54.62899355
53.50414987
53.88466899
64.35870661
106.6008322
105.9656882
80.79724004
217.2460907
147.4419378
148.0207071
146.1183824
146.7991235
217.2909593
275.9028275
281.5333303
284.6029212
205.847072
202.1686223
213.812743
209.7230089
30.93055227
30.92252503
30.51584188
32.18833245
31.46093321
31.48255593
31.42155895
31.44058722
32.14942925
34.66837847
34.57236702
33.1871466
39.18979425
36.50139062
36.6345555
36.23598764
36.36850241
39.01294231
48.49151085
48.20986649
42.94207261
66.59375704
55.70234655
56.0491704
54.99246854
55.35012255