/*--------------------------------*- C++ -*----------------------------------*\
| =========                 |                                                 |
| \\      /  F ield         | OpenFOAM: The Open Source CFD Toolbox           |
|  \\    /   O peration     | Version:  v2012                                 |
|   \\  /    A nd           | Website:  www.openfoam.com                      |
|    \\/     M anipulation  |                                                 |
\*---------------------------------------------------------------------------*/
FoamFile
{
    version     2.0;
    format      ascii;
    class       volScalarField;
    location    "1.54";
    object      omega;
}
// * * * * * * * * * * * * * * * * * * * * * * * * * * * * * * * * * * * * * //

dimensions      [0 0 -1 0 0 0 0];


internalField   nonuniform List<scalar> 
3019
(
820.7414562
150.351106
71.70727739
45.69181013
36.49967604
33.15792798
31.65991909
31.08166874
30.71748599
30.57452126
30.49607028
30.4544503
504.8327168
139.7575934
69.52215184
45.01966198
36.41443142
33.20563963
31.65875866
31.04453175
30.65030861
30.49456937
30.40694025
30.36048139
360.2101077
128.5816008
65.61307597
43.95186357
36.17568979
33.19751165
31.63452133
30.99936479
30.58357357
30.41684848
30.32081156
30.27067011
296.4621202
112.9214344
60.51330799
42.54199918
35.87262334
33.13211202
31.58628606
30.94464439
30.51231084
30.33721105
30.23485818
30.18096453
210.1877981
93.49100917
54.96785125
41.12256799
35.61932891
33.03696739
31.51913664
30.88029493
30.43732513
30.25634569
30.14816972
30.09161276
154.3356682
77.78496951
50.80492159
40.21897935
35.41202275
32.92120274
31.43516296
30.80326071
30.35384588
30.1687193
30.05732965
29.99839719
126.0942374
69.85627491
49.04472168
39.79068884
35.20117226
32.7906693
31.33918746
30.71630559
30.26462471
30.07739303
29.96371695
29.90349092
117.7284196
68.00672848
48.26982094
39.42310286
34.99473991
32.65229439
31.2344143
30.62066464
30.16744266
29.97869731
29.86363179
29.80271255
113.0830652
66.80263491
47.68296211
39.10214534
34.79725005
32.51069094
31.12322896
30.51773744
30.06584544
29.87718542
29.76156459
29.70035161
109.4868024
65.8693627
47.24766371
38.82633443
34.61145274
32.36906847
31.0074954
30.40899997
29.95719446
29.7683023
29.65252476
29.59145492
106.5688761
65.10519202
46.92496474
38.59652666
34.43968311
32.22987766
30.88893773
30.29586082
29.8468069
29.65912521
29.54372395
29.48302983
104.1414765
64.46594182
46.67816955
38.40930378
34.28352253
32.0949613
30.76910537
30.17966883
29.73034632
29.54264524
29.42760043
29.36753545
102.0860892
63.92477743
46.48344751
38.2574211
34.14306117
31.96549158
30.64922117
30.06152279
29.61531568
29.42926594
29.31496337
29.25560044
100.3177989
63.46186021
46.32691356
38.13333924
34.01708321
31.84191733
30.53013756
29.94239818
29.49409983
29.30753154
29.193638
29.13506603
98.77184882
63.0615045
46.19988924
38.03104954
33.90388686
31.72421846
30.41243812
29.82295706
29.37799518
29.19325957
29.08015065
29.02232989
97.39846821
62.71065104
46.09605181
37.94606105
33.80178962
31.61212712
30.29647964
29.70384204
29.25371431
29.06755628
28.95468473
28.89761224
96.15838051
62.39816345
46.01036515
37.87499235
33.70931459
31.50530312
30.18249127
29.58532259
29.13958649
28.95544004
28.84323328
28.78681535
95.0190864
62.1151054
45.93879957
37.81521115
33.62518584
31.40338425
30.07061225
29.46788399
29.01234612
28.82566416
28.71345733
28.6576635
93.95607884
61.85450917
45.87805436
37.76458823
33.54830869
31.30602749
29.9609412
29.35151175
28.90344043
28.71895261
28.60719386
28.55189884
92.95244486
61.61054919
45.82528002
37.72133801
33.47773164
31.21289806
29.85355282
29.23674578
28.77144441
28.58340509
28.47144985
28.41663352
91.99537876
61.37806419
45.77795316
37.68391488
33.41260044
31.12366412
29.74855895
29.12333787
28.67235674
28.48630446
28.37448635
28.3199949
91.07231963
61.15254737
45.73383774
37.65094924
33.35215001
31.03805017
29.64624272
29.01231664
28.53084133
28.34122351
28.22909672
28.17494785
90.17410847
60.93027751
45.69094352
37.62119915
33.29566962
30.95573862
29.54736558
28.90373658
28.4493135
28.25960465
28.14724993
28.09323342
89.29971747
60.70996386
45.64786357
37.59367827
33.24268499
30.87662149
29.45397245
28.80103219
28.2679799
28.07414946
27.9610533
27.90723691
1009.733817
857.5396488
182.6860021
622.5593345
988.1620743
527.3030862
177.3331911
180.6038732
470.0616911
613.1810411
349.8106781
716.1151116
736.1279337
646.5324959
308.7280753
337.4705736
1442.006451
870.09161
1595.083976
1195.378721
615.1393489
826.4243423
377.1177386
161.9593547
173.5409255
535.8598622
591.2575572
1119.898671
282.1953497
299.4125316
628.8616472
569.1077042
6247.706426
2440.459816
1384.640174
661.6361555
4893.901125
3628.13412
1205.212849
5034.918896
6125.961933
3586.145852
4804.901782
6500.960243
2407.29776
3242.378533
1676.5677
2161.011218
5843.775629
6459.859847
2164.652757
6191.475739
5413.982947
165.5479297
85.11551485
1144.322291
3310.406353
2452.786575
4664.163326
3069.788074
1561.572593
880.5517296
6276.875675
6607.982454
6746.514298
5627.276618
6442.12872
1267.34148
1523.60168
5983.789798
5498.251892
6055.814698
5616.22866
6378.324634
6328.486977
6193.471703
3996.320778
5503.433559
5056.765094
6144.297145
6348.273393
4396.3978
4680.45612
5108.883959
6403.08155
5284.670845
3935.147821
4240.488324
6017.546068
4678.678674
4918.453774
3845.5493
4275.253324
6193.941205
72.34937578
49.95049624
45.7073062
37.9870375
36.47367145
33.68530666
727.5235035
478.9971031
517.7255184
142.8020654
81.73324999
84.34176079
69.91447616
49.21877891
49.88324125
45.23915856
37.90850593
37.99986978
36.45488851
33.74802148
33.71278809
458.2913305
251.1552086
275.8045276
131.5621265
77.29579543
81.0062004
66.65614269
47.86472356
48.90085793
44.24204839
37.56369948
37.83189064
36.24894076
33.74367411
33.75283598
490.7860786
567.4022145
316.8275317
144.3754466
158.3447097
117.417923
70.83794159
75.90509436
61.9096037
46.01679624
47.46008073
42.9162864
37.12287018
37.4663115
35.95033656
33.67273365
33.72815883
321.2695007
451.4387229
229.8594467
118.9868305
138.5378747
98.28931938
63.06774771
68.92538762
56.28654399
43.93781627
45.49337935
41.45048946
36.67247627
37.00113267
35.67062617
33.56657821
33.64783493
202.003378
283.2419642
165.2264755
95.12243388
112.4266005
81.03960412
56.53200426
61.2215208
51.64484459
42.32806131
43.46282308
40.36839673
36.39024605
36.58754521
35.46456867
33.44066677
33.53677941
153.5569273
185.037555
130.9231592
80.99830897
90.52459741
71.10247047
53.01463329
55.32936939
49.27916507
41.63729157
42.07450758
39.89096249
36.141994
36.32746101
35.25372081
33.29846153
33.40611683
139.026552
147.6868295
119.1387115
76.96503899
79.13202849
68.37602307
51.95465785
52.69695767
48.44399238
41.1813671
41.51564558
39.51039471
35.90432225
36.08140485
35.04563957
33.14877421
33.26141069
132.7823455
137.2854896
114.1241697
75.20369595
76.46774087
67.07179136
51.21230804
51.74559771
47.81416596
40.79478998
41.07879188
39.17820364
35.68074592
35.84701261
34.84562075
32.99700843
33.11086044
127.9509465
131.4692824
110.3124192
73.85721797
74.83792275
66.08438639
50.67795182
51.06207271
47.34429714
40.47021569
40.70785368
38.89096341
35.47354748
35.62732759
34.65667202
32.84645816
32.9591624
124.0251421
126.8972708
107.2467157
72.75615844
73.56257253
65.28324183
50.28267662
50.5685256
46.99729636
40.2068428
40.39876212
38.64976082
35.28503469
35.42458416
34.48120141
32.69959394
32.80931217
120.7519573
123.1532547
104.7095961
71.83182128
72.510424
64.61567849
49.97622152
50.19918089
46.73427244
39.99833149
40.14998515
38.45248404
35.1168486
35.24106084
34.32106609
32.55848015
32.66371507
117.9721546
120.0161712
102.5701697
71.04505444
71.6235609
64.05205093
49.73054893
49.90988935
46.52812782
39.83353921
39.95350347
38.29251338
34.96874923
35.07800134
34.17675704
32.42446237
32.52428325
115.5714328
117.3405452
100.7368227
70.36802412
70.86656136
63.57117922
49.53017447
49.6766991
46.36300022
39.70186471
39.797887
38.16211203
34.83879411
34.93466261
34.04731072
32.29799985
32.39214191
113.4627856
115.0202298
99.14050009
69.77893219
70.2133752
63.15648751
49.36524054
49.48597775
46.22925426
39.59544358
39.67315871
38.0548483
34.72446889
34.80885261
33.93108323
32.17893656
32.26756005
111.5795105
112.9733298
97.72798528
69.26000065
69.64337178
62.79438876
49.22835504
49.32869295
46.12013864
39.50870167
39.57211107
37.96589008
34.62340619
34.69805183
33.82636081
32.06681174
32.15027998
109.8724539
111.1382838
96.45786784
68.7960648
69.13950688
62.47323151
49.11338392
49.19781607
46.03032608
39.43754835
39.48960431
37.89161116
34.53359446
34.59997475
33.73160558
31.96107669
32.03980225
108.2996057
109.4685723
95.29595541
68.37470345
68.68727158
62.18353013
49.01534059
49.08750496
45.95556206
39.37886956
39.42183476
37.82922374
34.45336512
34.51270623
33.64549906
31.86119605
31.93558253
106.8267816
107.9235925
94.21569863
67.98627103
68.27496033
61.91789587
48.93019589
48.99303593
45.89239322
39.33017595
39.36586786
37.77649001
34.38131165
34.43464436
33.56690284
31.7666634
31.8370845
105.4315994
106.4719437
93.19832607
67.62292097
67.89348632
61.6702838
48.85452987
48.91056508
45.83787513
39.28939043
39.31933404
37.73155002
34.31623912
34.36444193
33.49483484
31.67701082
31.74381363
104.1003989
105.0944595
92.23038449
67.27786434
67.5353248
61.43536542
48.78531498
48.8367824
45.78940591
39.25471958
39.28023665
37.6928042
34.25709661
34.30094599
33.42841652
31.59179127
31.6553099
102.817193
103.7782482
91.29841842
66.94491578
67.19389721
61.20842421
48.71987765
48.76875173
45.74468176
39.22458244
39.24684158
37.65884567
34.20295239
34.24313728
33.36686523
31.51062145
31.57113779
101.5648817
102.5081914
90.38928983
66.61836325
66.86331097
60.9851431
48.65580762
48.70388622
45.70161791
39.19754214
39.21760979
37.6283955
34.15294709
34.19010645
33.30945098
31.4331043
31.49091665
100.3260181
101.2730211
89.48867911
66.2916404
66.53884497
60.76065349
48.5906697
48.63991704
45.65816753
39.17223503
39.19114745
37.60023826
34.10623488
34.14101769
33.25543901
31.35880158
31.41425461
99.01054617
100.0719554
88.52899066
65.93793879
66.21919819
60.51585151
48.51781427
48.57539765
45.60949365
39.14582118
39.1663429
37.57155283
34.05931685
34.09527177
33.2010132
31.28294967
31.34099621
1056.660703
1274.029806
1208.781261
726.0195787
753.6296779
906.6835478
189.8270995
313.6827368
284.9485022
652.9124173
1203.74105
2199.977396
1613.09475
969.8673934
414.4151948
430.5054102
576.4302843
172.6687626
250.698408
240.043472
276.2828503
256.9562297
174.0787397
547.7598363
618.6696326
362.6814984
500.9596504
463.1520813
518.8471572
346.7902448
1901.62753
1333.089764
848.0578778
814.5230115
694.0528838
762.8702851
939.6558595
890.2320303
429.4602801
469.293897
702.2203584
316.3988835
386.5450497
375.4722712
445.5015029
403.1634191
327.2930528
2200.505721
1955.467605
1352.639253
3417.814185
3645.948424
5063.967542
907.7311846
1484.546355
1246.873805
1737.410323
2817.508394
2504.938125
861.13266
908.8113253
1440.432107
637.215992
752.9601727
723.9373057
787.2589569
663.9812448
1061.738761
983.115359
792.7050803
2904.478124
3127.127758
1222.218483
1218.914588
263.9805807
273.6462206
437.187459
165.5158862
205.9175196
200.5429728
233.5069989
211.9266643
169.4193837
551.5686194
645.7131207
624.5078975
695.1992096
670.4041721
572.6690277
961.6749584
787.073934
822.9366782
285.783216
344.3531145
338.0119072
362.5791285
354.2262847
294.089023
593.6342202
437.157683
456.9905153
590.2190897
839.4866266
803.247333
2759.88011
4278.467904
3840.896617
1062.646333
1112.273337
952.7313152
985.1943432
1468.244277
681.0480401
781.6692294
762.781451
4454.405428
3059.072802
3422.687011
2442.383584
2733.470463
3984.738323
1260.055426
1738.449338
1580.172394
2636.162626
3729.766407
3417.769327
4548.451689
4141.322608
2933.486265
1796.037423
2637.177612
2446.181069
3108.912323
2871.936723
1997.912438
3438.090928
3142.73586
1940.694389
123.2754331
124.5607786
167.702463
85.62163772
101.8810457
101.0740836
1461.113465
1360.504049
1094.592774
3036.813452
1985.631154
2192.108951
1621.062863
1772.616909
2723.243205
1181.564219
1240.013142
1717.752325
925.1562295
1023.181924
1017.74747
1081.313038
941.8674818
2471.561233
2647.846811
1339.693491
1865.14744
1724.330433
2229.279526
2043.692191
1445.901731
33.13790674
32.14080441
31.65158477
31.32331351
31.10253149
30.94458919
784.8589987
676.1699492
698.9596632
147.8914491
119.7465108
121.0953424
71.26269377
62.0673011
62.33772355
45.48283452
42.34669501
42.45345337
36.50433663
35.34073886
35.33127089
33.20086296
32.18385049
32.16636803
31.66118998
31.30958109
31.31692238
31.0682295
30.89514862
30.92144135
489.0070078
386.9273084
400.0966622
136.9388477
112.4600974
114.4026655
68.41643358
60.02756312
60.74192501
44.84591239
41.82592245
42.01032915
36.36300561
35.27777317
35.30726481
33.20563669
32.18226905
32.1857801
31.65099798
31.28144519
31.29659008
31.02742754
30.84264454
30.87024537
347.5352558
248.9843801
255.6636613
125.2664282
103.423515
106.0319178
64.48054201
57.06466755
57.90986056
43.6296298
41.00191893
41.22959401
36.10480408
35.11766903
35.16227693
33.15227765
32.14885206
32.16959177
31.61543722
31.23841751
31.26084268
30.97723981
30.78511727
30.81497407
274.219404
206.7909622
219.3811423
108.1492703
90.48491683
94.01559084
59.08976457
53.15398702
54.18655636
42.16792522
39.97309432
40.23507212
35.79723925
34.93069517
34.97613162
33.0629903
32.08193272
32.11834827
31.55548573
31.18182484
31.20984429
30.91809604
30.72084646
30.75398501
192.9213861
157.098099
168.6264197
88.95047165
76.58563
79.8516749
53.74057133
49.3065098
50.18441514
40.82795372
39.06891751
39.26271199
35.56829279
34.76668641
34.80861974
32.95246081
31.99777519
32.04211346
31.47889376
31.10984913
31.14694234
30.84586103
30.64764368
30.68548034
145.0580298
121.0175275
128.3482069
75.04089011
66.54793563
68.54464642
50.12802985
46.77631541
47.24198753
40.10365424
38.5993908
38.69085095
35.35926629
34.58931689
34.63472996
32.82464271
31.89736261
31.94928161
31.38847462
31.02567935
31.06872892
30.76317739
30.56503996
30.60721262
122.5388951
103.9330637
106.3744632
69.24411158
62.42364249
62.88134619
48.83014476
45.88174914
46.05585339
39.69400958
38.25950312
38.34090357
35.14892249
34.40504482
34.45124462
32.68757224
31.78581509
31.84269367
31.28774645
30.93126713
30.97929959
30.67120651
30.47416771
30.52038407
116.4340283
99.82969837
100.7124111
67.66987462
61.09644777
61.37715112
48.10714805
45.28061797
45.41816721
39.33867565
37.95507997
38.02811834
34.94440659
34.22190689
34.2673065
32.54633405
31.6672285
31.72720164
31.17950645
30.82860456
30.88060234
30.57132221
30.37567655
30.42565302
112.1053002
96.83040568
97.51493605
66.54963407
60.19354127
60.39298909
47.56130429
44.80640385
44.913918
39.02889488
37.6830189
37.74799256
34.74960627
34.04429288
34.08802251
32.40442144
31.54449069
31.60623161
31.06582458
30.71960271
30.77460586
30.46496509
30.27084305
30.3238735
108.7030185
94.41670511
94.97705061
65.66472728
59.51351661
59.66873801
47.15806547
44.44376547
44.52497466
38.76461324
37.44435306
37.50077183
34.56711442
33.87494805
33.91638297
32.26440082
31.41980066
31.48227149
30.94846975
30.60605226
30.66316875
30.35359715
30.16067138
30.2163197
105.9216355
92.41069123
92.87987791
64.93494256
58.96737751
59.09392447
46.85732342
44.1709963
44.23222316
38.54598197
37.24052617
37.28824546
34.399151
33.7160957
33.75472518
32.12825771
31.29494912
31.35729668
30.8290975
30.48950013
30.54797414
30.23858158
30.0467246
30.10411587
103.5966858
90.71629708
91.11459119
64.32236844
58.51607988
58.62134296
46.62529468
43.96258543
44.00983859
38.36833965
37.06977149
37.10958712
34.24696931
33.56923462
33.60478833
31.99734539
31.17135346
31.23292479
30.70910943
30.37124648
30.43045155
30.12114619
29.92976121
29.98863891
101.6201116
89.26737887
89.60953985
63.80244444
58.13796422
58.22652636
46.44115375
43.79938276
43.83670034
38.22406694
36.92740156
36.96063006
34.1102762
33.43465797
33.46717895
31.87227444
31.04995383
31.11033983
30.58953748
30.25230513
30.31176282
30.00230495
29.81129246
29.87076663
99.91283488
88.01316975
88.31079125
63.35650773
57.81786959
57.8931314
46.29268517
43.66931517
43.69919481
38.10592992
36.80813044
36.83604459
33.98765742
33.31164573
33.34137337
31.75311905
30.93128539
30.99025641
30.47108839
30.13345254
30.19279399
29.88287424
29.69144129
29.75164245
98.41417946
86.91320231
87.17561468
62.96968011
57.54402554
57.60871313
46.17199382
43.56467387
43.58877801
38.0083371
36.70747899
36.73110342
33.87738736
33.19907311
33.22630351
31.63965429
30.81560927
30.87306655
30.35422121
30.01524465
30.07421665
29.76348037
29.5717549
29.63168695
97.07752818
85.93447269
86.169337
62.62938233
57.30648323
57.36294818
46.07312414
43.47992316
43.49949585
37.92711148
36.62193427
36.64206411
33.77782596
33.09576189
33.12078186
31.53154228
30.70301912
30.7589301
30.23921986
29.89808569
29.95650322
29.6445808
29.4515076
29.51185126
95.86535951
85.04959244
85.26329187
62.32499869
57.09685159
57.14702995
45.99131141
43.4108043
43.42681474
37.85908825
36.54876532
36.56602456
33.6875493
33.00063884
33.02370684
31.42842859
30.59352172
30.64789478
30.12625803
29.78224028
29.83998635
29.52652363
29.33267491
29.39205216
94.74707903
84.23655063
84.43406645
62.0481463
56.90848258
56.95388637
45.92273846
43.35394724
43.36717267
37.80178007
36.48579078
36.50068345
33.60532838
32.91274631
32.93409095
31.3299637
30.48705889
30.53993849
30.0154303
29.66791012
29.72491299
29.40953074
29.21336212
29.27326891
93.70016642
83.47855722
83.66365886
61.79223171
56.73607703
56.77793709
45.8642414
43.30656526
43.31766025
37.75315861
36.43122217
36.44416386
33.53011329
32.83125117
32.85106818
31.23580953
30.38356719
30.43501063
29.90678215
29.55519817
29.61145855
29.29380035
29.09667413
29.15489952
92.70912087
82.76268989
82.93839006
61.551595
56.57506142
56.61447405
45.81305408
43.26623714
43.27577883
37.71150268
36.38353887
36.39488965
33.46097446
32.75539888
32.77387169
31.14562549
30.28294765
30.33308316
29.80026742
29.44414934
29.49979448
29.17934619
28.97877778
29.03828451
91.76087351
82.07792736
82.247104
61.3212202
56.42138126
56.45931864
45.76672944
43.23082839
43.23932691
37.67531725
36.34141881
36.35149405
33.39708292
32.68450957
32.70180084
31.05913675
30.18495876
30.23415842
29.69571603
29.33459263
29.39007282
29.06613642
28.86494804
28.92215711
90.84191225
81.41404603
81.57992075
61.09663844
56.27146463
56.30883063
45.72308613
43.19842933
43.20634756
37.64326625
36.30368004
36.31276568
33.33768878
32.61796599
32.6342279
30.9760226
30.08905317
30.13832291
29.59263154
29.22611316
29.28267484
28.95363175
28.74755651
28.80889494
89.93919578
80.76113115
80.92958481
60.87351776
56.12189023
56.15993399
45.68010716
43.16727914
43.17508181
37.61412129
36.26923328
36.27760381
33.28208165
32.55517224
32.5705605
30.89590991
29.99372573
30.04620628
29.48967269
29.11731239
29.17838577
28.84055968
28.63502586
28.69676358
89.03431005
80.10404162
80.29501683
60.64490954
55.96743766
56.01125368
45.63530743
43.13531249
43.14420172
37.58645653
36.2367532
36.24515114
33.22914886
32.49507459
32.51044333
30.81375922
29.892161
29.96029381
29.37911186
28.99989961
29.07944578
28.71778026
28.50331435
28.59185654
184.7594015
208.9744256
206.025381
638.6134169
731.8436456
717.2404513
1132.428702
1112.236668
931.3138271
202.6073713
200.1862191
178.1695319
412.6676084
367.1374236
569.280278
582.3371062
661.5392691
1003.041419
1047.310955
1258.077486
1793.64775
1911.063914
1102.126827
929.0807655
981.9697854
617.1662266
544.9841297
556.9727669
1540.768363
1651.655087
62.76018938
62.8319972
72.53686284
49.96729061
55.54248294
55.50870984
42.45062032
42.46371055
45.7203065
37.98260017
39.93899205
39.93716758
35.29993638
35.29090869
36.46834882
33.66260025
34.37337218
34.39082868
634.6998358
653.4451378
753.7108466
491.4489193
565.9805938
551.4976916
603.0142672
584.866574
504.0701996
116.5905325
117.5717002
144.5216839
82.82409483
97.80371103
96.80650931
99.94079343
99.05207
83.61083
61.13894933
61.66894939
70.72824717
49.50813839
54.75495073
54.43146235
55.3117997
55.05120885
49.60664785
42.16475521
42.25137369
45.42069439
37.92376266
39.81008081
39.76718974
39.93869013
39.90732853
37.99176075
35.31979325
35.32677801
36.46336197
33.7456024
34.44162684
34.43674849
34.41892548
34.4373217
33.72948837
364.8144779
376.2563714
468.1443286
326.453946
320.7107586
269.1123661
108.3913541
110.4902675
134.3290055
78.56482059
92.40662894
90.79061942
95.3890316
93.90679692
79.7045844
58.67390087
59.35567129
67.58394921
48.22403582
53.0609336
52.56467548
53.98945504
53.66252075
48.72588557
41.43534836
41.68988663
44.53411687
37.71022309
39.45738023
39.25821396
39.65493122
39.52773657
37.74552331
35.21739745
35.24047789
36.32544099
33.74735881
34.40557488
34.39570734
34.43441849
34.42046686
33.75025768
522.3315186
544.1502704
230.9174893
240.880613
334.0956586
149.6381719
185.4004357
178.6722791
195.9716222
191.1411751
154.2847912
97.39099633
100.5401026
121.5512435
72.66276821
84.74914023
82.35135532
88.99780929
86.96941388
74.36493122
55.19586314
56.15962405
63.24206876
46.52669936
50.71752293
50.01583781
52.00428029
51.3857732
47.01119085
40.49811051
40.7561175
43.28190982
37.24358297
38.78664597
38.60815788
39.11529014
38.9574403
37.35926593
35.0221787
35.07103727
36.02922806
33.69332031
34.31196599
34.28223291
34.36490183
34.33954652
33.71328865
363.6569149
407.9473624
180.9412719
193.7936658
251.4865218
125.6581849
153.8984703
144.9916759
171.0242391
162.6743792
132.2415688
83.31113565
86.88716271
103.2260793
64.99595293
74.5112019
71.87924801
79.81036146
77.17698625
66.96381507
51.1310732
52.12813646
57.67054195
44.44427079
47.81035798
47.09570441
49.29006118
48.54906974
44.96798936
39.48299778
39.72139878
41.80415324
36.77107553
38.07597135
37.92077312
38.42638304
38.24801655
36.88271021
34.849066
34.88959512
35.73053653
33.59485223
34.18972184
34.15583322
34.25271256
34.22201791
33.62291945
223.8755641
250.7186855
136.8802368
146.4742019
177.9689739
100.3520871
119.9736974
112.8858264
136.2137521
127.816135
106.1651083
70.8882191
73.58595811
84.77842427
57.92478372
64.76476324
62.80578281
69.34183476
66.95476657
59.49800261
47.82147595
48.51510274
52.62646962
42.6488573
45.24420538
44.76688974
46.4205557
45.7995253
43.03005927
38.78721317
38.90915372
40.57417825
36.45330672
37.56440442
37.48534807
37.77781637
37.65937652
36.5171191
34.67956773
34.72362184
35.5167221
33.47387124
34.04936683
34.01140586
34.12151425
34.08614332
33.50619387
161.6010117
171.8136961
110.0212113
114.8801137
137.2909153
83.43242314
96.89688507
93.49920307
106.6179732
101.3148606
86.65198412
63.70336696
64.94888202
72.79746379
53.5609388
58.56523866
57.70112101
61.11181903
59.68386134
54.34133816
46.24207457
46.4522035
49.60089008
41.76500101
43.88621578
43.72689778
44.37410134
44.0784827
41.90123911
38.42460027
38.5107043
39.99514653
36.20324896
37.26043618
37.18828527
37.40894447
37.33398207
36.26509883
34.4974354
34.54350448
35.30645681
33.33490666
33.89235355
33.85155924
33.97243144
33.93270028
33.37098161
140.9286162
143.2413308
101.6686626
102.7146147
120.6898738
77.51543969
88.53041056
87.79978056
90.91152821
89.36365893
78.14228423
61.688206
62.0349439
68.78474446
52.18156058
56.56294703
56.28577865
57.20979303
56.86831164
52.42803742
45.5638259
45.71809532
48.63040418
41.2881601
43.30216756
43.17445933
43.57760335
43.43632538
41.3994511
38.10317541
38.18028506
39.60064667
35.96252067
36.98013248
36.91351151
37.11751551
37.0481342
36.02156352
34.31299897
34.35894021
35.09705516
33.18651767
33.727692
33.68621493
33.81044495
33.76911816
33.22414274
134.1808655
135.6765985
98.23909973
99.00832848
115.2373283
75.59405226
85.94304018
85.40603371
87.13217299
86.51618024
76.01336889
60.60802095
60.84139344
67.35971155
51.37557845
55.5951589
55.40366321
56.03385681
55.80446296
51.55296044
45.02867467
45.15085386
47.95540852
40.88558337
42.82607562
42.72087661
43.05273022
42.93666132
40.98023076
37.81500758
37.8840423
39.25704803
35.73519043
36.72199817
36.66099004
36.84827627
36.78443318
35.79062256
34.13222086
34.17686817
34.89468677
33.03494084
33.56229125
33.52129989
33.64479811
33.60345549
33.07291342
129.0605837
130.2309508
95.56452563
96.18140774
111.1835892
74.16691988
83.96694954
83.53453915
84.90011078
84.42133109
74.49310259
59.8330192
60.00748571
66.31072614
50.79599731
54.91572307
54.77619703
55.22785389
55.06576174
50.92365171
44.6122382
44.70593908
47.44862171
40.54554565
42.43715717
42.35306319
42.6210142
42.52644406
40.62475311
37.55937492
37.62013634
38.95849059
35.5236861
36.48679573
36.43180123
36.60143258
36.54334975
35.57495543
33.95843923
34.00109186
34.70273623
32.88384662
33.39997669
33.36018305
33.48057682
33.44010432
32.92142074
124.9379133
125.8939154
93.36969359
93.88148397
107.9571625
73.01295867
82.35142667
81.99073096
83.12214965
82.72817708
73.28142635
59.22677529
59.3664425
65.46955192
50.37165189
54.40869823
54.30024622
54.64587183
54.52365714
50.46668088
44.29781781
44.3681914
47.07480751
40.26717156
42.13045056
42.06544541
42.27403388
42.19989591
40.33110084
37.33810108
37.390131
38.70576716
35.33029613
36.27651652
36.2280796
36.37840142
36.326629
35.3768198
33.79409059
33.83417672
34.52368709
32.73584595
33.24331995
33.20529455
33.32079872
33.28182129
32.77242342
121.5188588
122.3183495
91.52910061
91.96077957
105.302308
72.04876595
80.99494049
80.68916299
81.64500563
81.31331822
72.27475668
58.73143893
58.84667131
64.77187032
50.04634092
54.00809203
53.92037497
54.19765325
54.1004009
50.12052932
44.06013215
44.11374628
46.7938756
40.04590253
41.89424489
41.84420842
42.00459689
41.94762032
40.09639164
37.15126444
37.19488472
38.4980002
35.15696632
36.09278374
36.05096942
36.18131904
36.13622645
35.19836935
33.64111611
33.67822127
34.35960687
32.59313315
33.09444485
33.05862977
33.1678004
33.13083619
32.62821592
118.6278375
119.3083779
89.96458037
90.3332451
103.0732103
71.23052817
79.84002103
79.57784453
80.39515652
80.11226275
71.42318675
58.31891774
58.41536173
64.18447743
49.78725531
53.68152173
53.60922998
53.83688006
53.75732908
49.84695474
43.87622291
43.91812223
46.57534622
39.87126508
41.7115354
41.67241601
41.79723088
41.75307377
39.91119617
36.99537891
37.03173167
38.32944752
35.00397989
35.93479828
35.89899845
36.01073191
35.97202372
35.04038472
33.50043924
33.53445568
34.21138615
32.45726565
32.95478728
32.92137998
33.02341624
32.98879449
32.49053743
116.141372
116.7303751
88.61862845
88.93731652
101.1705629
70.5283176
78.8459634
78.61872376
79.32509605
79.08125116
70.69433982
57.97145074
58.05301315
63.68463333
49.57663346
53.41125601
53.35104118
53.5402024
53.47425224
49.62541709
43.73075696
43.76411759
46.4010435
39.73216121
41.56778023
41.5366814
41.63551762
41.60068087
39.76412639
36.86518141
36.89561311
38.19232797
34.86972276
35.79952783
35.76882591
35.86455793
35.83141817
34.90166332
33.37177106
33.40286359
34.07836882
32.32891351
32.82475618
32.79371504
32.88858013
32.85637008
32.36028889
113.9667512
114.4853193
87.44609487
87.72512391
99.52051236
69.91902202
77.98077946
77.78155919
78.39904455
78.18647632
70.06370543
57.67581777
57.74549191
63.25475221
49.40359158
53.18543518
53.13485237
53.29342047
53.23824589
49.44379163
43.61419821
43.64101781
46.26015716
39.62002059
41.45301137
41.42802939
41.50725382
41.47938925
39.64589595
36.75571813
36.78137643
38.07978768
34.75172182
35.68330386
35.65683148
35.73925605
35.71076261
34.77983673
33.25412972
33.28257207
33.95899888
32.20803352
32.70397175
32.67513947
32.76324915
32.73333497
32.23756985
112.0322306
112.4963404
86.41050351
86.65832093
98.06627521
69.38406105
77.21873157
77.04178708
77.58835281
77.40080322
69.51173168
57.42128317
57.48160271
62.88066768
49.26031206
52.99497086
52.95197655
53.08631783
53.03971168
49.29371797
43.52010505
43.54181088
46.14542891
39.52878921
41.36055702
41.3403491
41.40433835
41.38186412
39.54990319
36.66300614
36.68479716
37.98663284
34.647546
35.58285032
35.55987923
35.63129118
35.60664132
34.67241693
33.14633148
33.17242288
33.85155243
32.09422363
32.59171018
32.56488192
32.64682823
32.61901959
32.12204173
110.2852586
110.7067064
85.48179444
85.70542346
96.76402905
68.90765886
76.53816704
76.37861845
76.86953975
76.70171426
69.02203489
57.19863178
57.25175543
62.55025606
49.14037454
52.83214415
52.79500391
52.9105597
52.87063087
49.16848485
43.44363851
43.46132691
46.05122834
39.45406204
41.28560301
41.26916515
41.32115171
41.30291451
39.47139652
36.58395077
36.60257722
37.90897288
34.55508998
35.49548198
35.47542801
35.53767896
35.51622191
34.57720772
33.04724015
33.07125435
33.75443715
31.98694195
32.48715657
32.46213316
32.53851964
32.5126136
32.01317976
108.6825134
109.0716678
84.63523318
84.84034452
95.57789193
68.4766546
75.9210616
75.7750175
76.22271498
76.07021757
68.58075446
57.00036353
57.04799883
62.25345626
49.03850894
52.69055561
52.65788638
52.75906669
52.72425684
49.0625348
43.38102934
43.39556209
45.97305232
39.39251817
41.22450319
41.21105583
41.25352666
41.23864606
39.40682546
36.51612472
36.53214406
37.84384072
34.47260658
35.41904254
35.4014319
35.45601921
35.43722973
34.49237933
32.95584483
32.97802389
33.66628235
31.88564677
32.38954308
32.36614205
32.43753028
32.41333487
31.91043907
107.1873929
107.5524072
83.85154213
84.04248152
94.47930946
68.0807783
75.35313472
75.21750708
75.63178748
75.49115406
68.17692077
56.8205818
56.86408139
61.98240898
48.95047841
52.56511292
52.53580034
52.62612158
52.59519653
48.97139778
43.32923197
43.34131864
45.90727652
39.34153637
41.17437141
41.1632769
41.19823715
41.18601221
39.35342061
36.45755739
36.47142672
37.78888047
34.39862806
35.35176229
35.33620176
35.38436118
35.36780743
34.41639828
32.87124879
32.89180502
33.58590569
31.78982072
32.29816413
32.27622189
32.34311816
32.32045853
31.81329179
105.7745252
106.1204296
83.11603832
83.29614278
93.44769763
67.71183269
74.82299243
74.69526014
75.0840276
74.95250706
67.80193877
56.65440818
56.69493044
61.73081769
48.87274141
52.45161769
52.42469877