/*--------------------------------*- C++ -*----------------------------------*\
| =========                 |                                                 |
| \\      /  F ield         | OpenFOAM: The Open Source CFD Toolbox           |
|  \\    /   O peration     | Version:  v2012                                 |
|   \\  /    A nd           | Website:  www.openfoam.com                      |
|    \\/     M anipulation  |                                                 |
\*---------------------------------------------------------------------------*/
FoamFile
{
    version     2.0;
    format      ascii;
    class       surfaceScalarField;
    location    "2.64";
    object      phi;
}
// * * * * * * * * * * * * * * * * * * * * * * * * * * * * * * * * * * * * * //

dimensions      [0 3 -1 0 0 0 0];
oriented        oriented;


internalField   nonuniform List<scalar> 
6464
(
0.4582535745
0.001964955467
-0.002004347993
0.4583349739
0.002004374071
-0.001963098081
0.4584124113
0.001880686813
-0.001775069931
0.4584609741
0.001649095818
-0.001500994459
0.4584768505
0.001359143975
-0.00121419725
0.4584869105
0.001042286793
-0.0009671999293
0.458461265
0.0008559349094
-0.0007105847034
0.458468413
0.0005921717806
-0.001563668128
0.9187118161
4.671865327e-05
-0.0005448665624
-0.000977457721
0.9187637896
4.734275053e-05
0.9158251995
0.9138473428
-0.003076302983
-0.2289717001
0.2287664729
0.003281506639
-0.003999071458
-0.2291558406
0.2291081817
0.004046730292
-0.003922153294
-0.2292950453
0.2293485837
0.003868614897
-0.003521686225
-0.2293887632
0.2295230203
0.003387429106
-0.00292806376
-0.2294168072
0.2295834749
0.002761396033
-0.002303851727
-0.2293944018
0.2295532042
0.002145049347
-0.4588991138
-0.00334793416
0.4603609514
0.001886096589
-0.0005458100134
0.4610006608
-0.001170571983
-0.4592842788
-0.001258870972
0.9183976223
0.0001535863354
0.001419478401
-0.0007669349127
0.9182718536
0.0004617435523
0.9145965211
0.9143090863
-0.2273667738
0.03468345899
0.2268766034
-0.03419388656
-0.2209979549
0.02911437039
0.2181505652
-0.0262686725
-0.2224333525
0.01448910288
0.2175557445
-0.009613045291
-0.2301628853
-0.005697254072
0.2294774936
0.006382522395
-0.2303205977
-0.005444278402
0.2306517494
0.005113126711
-0.003867340625
-0.2302936046
0.2309770094
0.003183935926
-0.4630317125
-0.0006190549108
0.4619339244
0.001716843013
-0.4601515655
-0.001781420647
0.4602147723
0.001718213892
0.0007692356183
0.9204713177
-0.001630441282
-0.001212489645
0.001992941882
0.9170481473
0.000932569726
0.9156568933
0.915241656
-0.2254088239
0.0471293724
0.2249834686
-0.04670606878
-0.2110428171
0.04396375028
0.2094860708
-0.04241129953
-0.2041405383
0.03490269024
0.2005378467
-0.03130508241
-0.2120418491
0.01729712641
0.2065184532
-0.01177734195
-0.2342345838
-0.001175426994
0.2363129647
-0.0009030310279
-0.004287445583
-0.2318986811
0.2319411631
0.004244963496
-0.4620330616
-0.006586940472
0.4633843365
0.005235665554
-0.461034085
-0.003893399665
0.4621465525
0.002780932167
0.003783329908
0.9208373203
-0.002185261655
-0.001964070852
0.002573007961
0.9182584693
0.00119419107
0.9170357102
0.9164358471
-0.2240434947
0.02318496571
0.223854327
-0.0229983583
-0.2085809053
0.02539159301
0.2099741829
-0.02679033413
-0.1940704603
0.02995717639
0.1937741399
-0.02966860041
-0.2043071655
0.03632386659
0.1948151238
-0.02683720593
-0.2130038681
0.009676880615
0.2079220089
-0.004598277408
-0.006259849995
-0.2334546675
0.2340674801
0.005647037391
-0.4652161516
-0.007800220198
0.4670022442
0.006014127627
-0.4632316109
-0.004683280481
0.4643659267
0.003548964773
0.00467459865
0.9232163734
-0.003911355015
-0.003142296764
0.002618938625
0.9203141293
0.00119683365
0.9184578152
0.9176326808
-0.2230775044
-0.0261719894
0.2228797637
0.02636926916
-0.2218779985
-0.01371471637
0.2267375168
0.008852307889
-0.2055843526
0.0119899449
0.207567158
-0.013979719
-0.1855489243
0.01546635876
0.1852891284
-0.01521479947
-0.1959580151
0.01010231478
0.1932242929
-0.007374861358
-0.003014891043
-0.2319922186
0.2297386127
0.005267443505
-0.4686280559
-0.00820626344
0.4703055224
0.006528796991
-0.4651211705
-0.005274096686
0.4658399876
0.004555279558
0.004036949208
0.9260239396
-0.003317722539
-0.003526792903
0.002247509531
0.922103569
0.000956975549
0.9197483491
0.9185896563
-0.02455618466
-0.1088222793
0.1082251349
0.02515332902
-0.02003652198
-0.2474889106
0.03825812259
-0.02045215035
0.1244186825
0.1253007779
-0.01929898603
-0.2194800291
0.2256705956
0.01310422608
-0.1885845179
-0.002479451163
0.1926880227
-0.001632655749
-0.1896984362
0.006648653088
0.1885362455
-0.005492571129
9.389548887e-05
-0.2201943425
0.2180718096
0.002026352153
-0.4720063947
-0.007171095524
0.4731782776
0.005999212585
-0.4670019423
-0.004598577972
0.4681450752
0.003455445041
0.002555845839
0.9281015757
-0.002172941715
-0.002460540225
0.001278786514
0.9233806283
0.0005100476582
0.920517088
0.919099704
-0.02772245196
-0.136343245
0.1389988626
0.02506683436
-0.02644576143
-0.2459413935
0.2514244406
0.02096108419
-0.1990876982
-0.0105579495
0.2012286324
0.008410732666
-0.1883170029
-0.004438944432
0.1890454268
0.003703538475
0.0009768140882
-0.2148967859
0.2138920006
2.616497515e-05
-0.4746941405
-0.004505242528
0.4759398864
0.003259496612
-0.469058325
-0.002385515231
0.4698179579
0.001625882253
0.000129859458
0.9291455675
-0.0002580384194
-0.0009158128827
-0.0001977202348
0.923708208
-0.000168167473
0.9204875352
0.9189315365
-0.01243934018
-0.1519436657
0.1526067495
0.01177625641
-0.01463338535
-0.2641233877
0.2664808391
0.01227552767
-0.2081803718
-0.006330280997
0.209774796
0.00473342816
-0.1913029647
-0.001126034623
0.1919972231
0.000429249982
0.0004072395747
-0.2134134286
0.2132753243
-0.0002702643274
-0.4773462798
-0.0005966077537
0.4784201001
-0.0004772125734
-0.4702062805
0.0009756787017
0.4704033657
-0.001172763853
-0.002809277217
0.9285922185
0.001991767575
0.001370858683
-0.002004462796
0.9229033935
-0.001048292202
0.9195313646
0.9178832443
0.004745054948
-0.1509682228
0.1500950473
-0.003871879426
0.001840072743
-0.2664112095
0.2647735359
-0.000202306167
-0.2111409271
-0.001728897588
0.2111508223
0.001719498804
-0.1940152725
-0.0006943598026
0.1945246995
0.0001854470701
0.00129688572
-0.2147641299
0.2151667366
-0.001699235124
-0.4783870303
0.004735794819
0.4777649655
-0.004113729984
-0.4701688445
0.003869072702
0.4703914697
-0.004091697876
-0.006049571241
0.9263709241
0.004518583616
0.003752281966
-0.003960183497
0.9208140058
-0.001997907732
0.9175690888
0.9158853366
0.01431772092
-0.1421443903
0.1408690161
-0.01304234673
0.01318819577
-0.2557066857
0.2514069966
-0.008887440785
-0.2082805257
-0.0004868742198
0.2098247069
-0.001054121659
-0.1957882392
0.001141964771
0.196281191
-0.001631014219
0.003654625275
-0.2181424713
0.2188201478
-0.004330466886
-0.4766855922
0.009732351976
0.4752099391
-0.008256698898
-0.4704088437
0.006971095208
0.4692608725
-0.00582312396
-0.009033571077
0.9227562033
0.006600839325
0.006047452622
-0.005838601202
0.9176190359
-0.002864553184
0.9145950408
0.9130207834
0.01776820151
-0.1321823768
0.1309240228
-0.01650984743
0.01742427708
-0.2388592094
0.2344214416
-0.01298305088
-0.2060026493
0.007781944097
0.2009473531
-0.002718909261
-0.1972123661
-0.0004924495205
0.1972867257
0.0004236204409
0.005500626074
-0.2219435857
0.2229634466
-0.006518058106
-0.4734116251
0.01370470949
-0.01162360057
-0.4680029373
0.009834210312
-0.008309007088
-0.01163026915
0.007085213752
-0.007448713174
-0.003610471257
0.1548918358
0.01491171994
-0.1539028926
-0.007686819185
-0.008213843878
-0.1371545443
-0.0308153662
0.1402474586
0.153108485
-0.002946061309
-0.1540524076
0.00212584927
0.001764134606
0.1555256036
-0.006286149335
-0.006786958738
0.143250958
-0.0136019604
-0.1445962939
0.00754287117
0.00740442511
0.1520838648
0.003062805643
0.002706869477
0.1326252206
-0.01753843939
-0.1338610016
0.01877422037
0.01567962767
0.1418890512
0.01924551229
0.1311479099
-0.1057113467
0.104445047
0.02791181046
-0.1339068251
-0.03115952973
-0.1218735415
-0.02150200449
0.1233390241
0.04109440855
0.008801636854
-0.04077270039
-0.009123345007
0.02296651178
-0.06890312158
-0.02500414531
0.07094075512
0.01397622831
-0.1510081741
0.2775624536
0.0186796126
-0.274913702
-0.02132836923
-0.2604878373
-0.03220982557
0.2662516542
0.04763679441
0.0007682468586
-0.04771886707
-0.0006861741973
-0.04433381419
0.003402362774
-0.002818452187
0.0437499036
-0.002208298977
-0.1517059852
0.2792557507
0.002104295626
-0.2800595474
-0.001300501819
-0.01636619982
0.2792952691
0.03861416226
-0.00423997373
-0.03895997026
0.004585781729
-0.04156121017
-0.001701762555
0.001248243939
0.04201472879
-0.01232892711
-0.1434174236
0.2694873137
-0.01098271592
-0.2728833495
0.01437880706
0.003317540337
0.2777782788
0.06978030982
-0.01104873383
-0.07026263688
0.01153106089
-0.07335190016
-0.01012131848
0.07290585065
0.005354552642
0.005212815344
0.008182802621
0.03073818572
-0.007861370114
-0.03105961822
0.0634702577
-0.0114958102
-0.06389876872
0.01192432122
-0.06654539862
-0.0116873545
0.01205009844
0.06618265468
0.003943157184
-0.0446758618
-0.00360110957
0.00846314467
-0.0086838522
0.04131511608
-0.1487252244
0.02191887609
0.1508362906
-0.01180154274
-0.0122283995
-0.08041766089
-0.008098710461
0.08117804824
0.01580146779
0.04319830431
0.004087161877
-0.043342309
-0.001521046978
-0.04109315526
0.001052992065
0.0001236066079
1.132976607e-05
0.04750185803
-0.07750926599
0.001734666801
-0.001719817281
0.07749441649
-0.04627898648
0.04610488626
0.0002977068256
0.04099497669
-0.001759882951
-0.04075614072
0.04289911554
0.003701551544
0.0007661427253
-0.04627688234
0.002423330381
-0.07761668739
-0.002315908977
-0.009929897821
-0.07382648288
0.005222189696
0.005182290852
-0.004111761159
0.00428431143
0.03844161199
-0.1485436795
-0.01051681762
0.1472368706
0.006027185985
0.005796440551
-0.07682790117
0.004096621734
0.07632966866
-0.007710150386
0.07314605693
-0.009490930038
-0.07358502471
0.04121845351
-0.001925239367
0.004084476261
-0.007440019863
-0.03897673291
-0.03873559838
-0.00931706425
-0.1497304418
0.005367835171
0.005135991363
-0.01159529709
-0.06698886864
0.01203876712
-0.01128634272
0.01166577038
0.06940088215
-0.02952454509
-0.00750628931
0.007102470023
-0.02993155416
0.008589811688
0.0117483434
-0.007465771621
0.02970910389
0.01229018116
-0.04207517173
7.588667638e-05
0.01807915059
-0.03458555094
-0.0199490652
0.03645546555
0.04538020203
-0.007693897452
-0.03752181364
-0.000164490938
-0.0163706692
-0.133350147
0.251230875
-0.01710045845
-0.2563936645
0.02226433544
0.01713994937
0.2655357152
0.03919972244
-0.007498806976
-0.0315148765
-0.0001860389606
0.06453279634
-0.01328982963
-0.06510276477
0.006961688612
0.00689810944
-0.03314937313
-0.006640211941
0.006728902332
0.03306068274
-0.06901111658
0.07065872696
0.0213189014
-0.009062755665
0.01686215506
-0.07941542343
0.02390833301
-0.1461798291
-0.01306896245
-0.01338476582
-0.006686675166
-0.03328802046
0.006825322491
-0.03522754296
-0.006845928515
0.007292064862
0.03478140661
-0.1378801559
-0.01666979132
0.01802678308
0.1365231642
-0.06980470776
0.06934500527
-0.01082664024
0.06656626619
-0.01117825827
-0.06698330501
0.07272626467
-0.009701526231
-0.01068443416
-0.07016900743
-0.01620854652
-0.1392385002
0.01756689075
0.01731801661
-0.05240025694
-0.01612167846
0.05120391878
0.02281761827
-0.06699318237
-0.02472755748
0.03315369667
-0.1207470501
-0.0170903883
-0.01843938749
0.06094864423
0.06217448502
-0.05591108028
0.05496878206
0.01826031483
0.02994253908
-0.0002334351869
-0.07667082158
0.02102962388
0.07845513722
-0.01129962009
-0.01151431944
-0.0404805672
0.05521410907
0.01520899721
-0.03446113849
0.03596659326
0.01657369581
0.01400875707
-0.04219914311
0.02187233114
-0.07484999185
-0.01175570572
-0.01193745515
-0.04006503916
0.002481576689
-0.002480366885
0.04006382935
0.00217064933
-0.04035819325
-0.001877495238
-0.03922022084
-0.003221924712
0.003129363676
0.03931278188
-0.003453675201
-0.03951549392
0.00374894828
-0.006152723428
0.03617244575
-0.03523933979
0.005219617466
-0.009671366046
0.02210898034
0.03294258774
-0.07154681149
-0.01076297219
0.01113592796
0.07117385573
-0.03804925041
0.03619141295
-0.007813528579
0.03609942812
-0.006360509714
-0.03589164183
-0.03405788345
0.03808900064
-0.003806469076
-0.0002246481154
-0.00685737964
-0.03888576823
-0.01060519814
-0.07195817849
0.005542215391
0.005474349751
0.0626356054
-0.01301960264
-0.0631223691
0.01350636635
-0.01325979941
0.06400751398
0.006900976441
0.006884105332
0.01922905903
0.02907970609
-0.009109042683
-0.04249595988
0.005938611241
-0.005740195792
0.04229754443
0.006336355132
-0.04251118636
-0.00632112865
-0.0388308333
-0.0009930821803
0.0008772809003
0.03894663458
-0.00134080741
-0.03899942834
0.001509402442
0.03968565641
-0.001070956407
-0.03995550741
0.07961879787
-0.0005162785818
-0.07987648104
0.0007739617453
-0.08048351305
0.001381508358
-0.001222684538
0.08032468922
0.0785172683
-0.002727468317
-0.07881528018
0.003025480203
-0.001099392095
0.00135643674
0.07936175323
0.03967851759
-0.0009859433681
0.04078143951
0.002300326253
-0.04091111644
0.08070508527
0.004917504012
-0.08069802596
-0.004924563323
-0.0804316226
0.00720994865
-0.007350533301
0.08057220725
0.002057416935
-0.08060624386
-0.001934686112
0.004186349178
-0.004181600208
0.0807003363
0.04091404839
0.002348967809
-0.0377111894
-0.004642972906
0.004817516733
0.03753664558
-0.001882087565
-0.03211068576
-6.511012139e-05
-0.00466844209
-0.03792698254
0.004884235225
0.006145548475
0.0362633055
-0.006309425856
0.006936930422
0.03471569386
-0.006631950606
-0.03502067368
0.06816814344
-0.01145899625
-0.06858017579
0.0118710286
-0.03571777294
0.007427160407
0.005486952082
0.03683104215
0.01945068246
-0.0002216234292
-0.01294015062
0.01328457395
0.03328775371
-0.03676978986
0.00348203615
0.03435800608
-0.007008580678
-0.03444576557
0.007096340169
-0.03208414727
-0.006977561377
0.006669659531
0.03239204912
-0.003014402524
-0.01363241714
0.01530393832
0.001342881365
-0.007688446589
-0.03308099882
0.008685298136
-0.03038959675
-0.007713737118
0.006477154071
0.0316261798
0.02264859146
-0.04826022407
-0.0210207179
0.02282267862
0.0238096719
0.01740223422
-0.03296593754
-0.01902184763
0.02457051125
-0.0572170337
-0.02600345448
0.05864997693
-0.05236580846
0.02524145401
0.02409312037
0.02567982556
-0.04486804917
0.003764676842
-0.00564546621
0.04674883854
-0.04000798949
0.03930138842
0.0008441791488
-0.0001375780814
0.03827445072
0.0005644633175
-0.03850130936
-0.0003376046736
0.04185652921
0.002556434262
-0.04245429431
-0.001958669153
-0.03999182238
-0.003688821086
0.003823667075
0.03985697639
-0.04191232402
0.00349653075
0.04229567167
-0.003879878397
0.03724120362
0.006869689395
-0.005947456115
-0.0381634369
-0.03682798618
0.03696176638
-2.319433002e-05
-0.0001105858713
0.04255608694
-0.003510389056
-0.03883775389
-0.0002079440033
0.04222033575
-0.002972127695
-0.04253928275
0.003291074699
-0.04290739431
0.005769168431
-0.006692362915
0.0438305888
-0.03884720012
-0.0270699276
0.05477776331
0.01113936442
0.001790518217
-0.04161530069
-0.0001832070169
0.04181919341
0.006252851395
-0.04173568968
0.07923574544
0.01126331128
-0.07878737768
-0.01171167904
-0.07695249969
0.01359476064
-0.01428439352
0.07764213257
0.008011799886
-0.08023127253
-0.008212149946
0.01043926331
-0.01083140847
0.0796278906
0.0418090312
0.005948773454
-0.03984646907
-0.001151006533
0.0007658677643
0.04023160784
-0.03633895987
0.03643598665
0.0001439098983
-0.0002409366753
0.0001098119546
-0.03667718943
-0.0002606087022
0.04421000481
-0.002716298411
-0.04619954647
0.004705840069
0.003645262272
0.03791216905
-0.004316227697
0.00256477846
0.04111923111
-0.003496122503
-0.04018788707
0.03851600537
-0.004237708756
-0.03847004304
0.004191746426
0.07492943447
0.004559417122
-0.008619737292
-0.07553755639
-0.007356835748
0.07398645984
-0.07438191086
0.007752286761
-0.07555782757
-0.006478414899
0.006866005107
0.07517023737
0.03930536868
-0.003205624638
-0.03955341924
0.07710076526
-0.00462670048
-0.07750153842
0.005027473636
-0.003237389932
0.003546847877
0.07820781035
-0.006121911986
-0.07596280153
0.006526885947
-0.005032698144
0.005395840855
0.07673762255
0.0392697422
-0.003186298233
-0.01150560035
0.01185748077
0.06781626302
0.03445791146
-0.006588146113
0.06627933134
0.006677007506
-0.012908818
-0.06673419602
-0.03855002306
-0.009567372489
0.01939120394
0.02872619161
-0.03966676134
0.01799410287
-0.01842126945
0.04009392792
-0.03022779582
0.03935831788
0.02415723164
0.01819910748
-0.03893011875
-0.01893575007
-0.02896549851
-0.002293050237
0.03143230722
-0.0001737584764
-0.006142529893
-0.02260281132
-0.0002201572928
0.03335669517
-0.007318881302
-0.03353493554
0.007497121671
-0.007503026099
0.008069859431
0.03379117275
0.01993228555
-0.0196742104
-0.0002580751501
0.01594017104
-0.01951048879
0.002354230023
-0.0149307382
0.01437708115
0.001896248063
0.006696130139
-0.03160686249
0.03286409054
-0.007953358192
0.009348261185
0.03321762968
-0.00816466303
-0.03440122784
0.03392215616
-0.006773038941
-0.03423647516
0.007087357941
-0.04149225694
0.02045092137
-0.02126078395
0.02811993638
-0.0001630222856
0.03016466187
-0.02978225917
-0.0003824026954
0.04412634348
0.01210508568
-0.04307292057
-0.0131585086
-0.04075103171
0.01275645421
-0.01352204576
0.04151662327
0.04585403613
0.01123283127
-0.04390707229
-0.01317979512
0.01135216533
-0.01166212748
0.04443630564
0.01293125895
-0.04009177039
-0.01359052027
-0.03759703899
0.01365978378
-0.01448496526
0.03842222048
-0.04003262642
0.04121758045
0.01680914884
-0.0369614494
0.03612409769
0.001137152156
-0.0002998004525
0.02577605498
-0.02570832175
-6.773321942e-05
0.004279839782
-0.04250455739
-0.006643331553
0.002378480803
-0.001819660382
0.04129770878
0.0379903741
0.000496520712
-0.0002124440854
0.0006135511359
-0.03741586324
-0.0001591372917
0.0004357283588
-0.03717746032
0.0385572145
-0.001815482542
0.001072568884
-0.002190424073
-0.04079446883
-0.003446713486
-0.0398412466
0.003296137711
0.037338934
-0.03592815034
-0.000338214776
-0.03389061929
0.03486669482
-0.0005403471719
0.03525215016
-0.03485366155
0.006471200786
0.0412147328
-0.0003792680483
-0.002155049278
-0.03161744953
-0.0001181204801
-0.003519217151
0.004372404822
0.04136714808
0.0503340399
-0.007575677527
-0.0002022754255
-0.00355445261
-0.03577805698
-0.03753678663
-0.007003932917
0.007607155178
0.03693356437
-0.0054528981
-0.03613011117
0.004046222635
0.03741417219
-0.006053435536
-0.03681363476
0.03572448677
-0.005980237586
-0.03582037417
0.006076124988
-0.03668278093
-0.005847741621
0.006268737514
0.03626178504
0.03381560154
-0.006890408306
-0.03306772313
0.03675351935
-0.005841610545
-0.037091234
0.006179325196
-0.03781157505
-0.00533839595
0.005191498268
0.03795847273
-0.00579797185
-0.03691204538
0.006027236299
-0.005645346355
0.005634153271
0.03676471243
0.03586049457
-0.004337943267
0.007494541583
0.03257243221
-0.007659656083
-0.03240731771
0.03229485179
-0.00713687431
-0.03254355451
0.007385577026
-0.007363618861
0.007718795549
0.03300151848
-0.002158408518
-0.04504610496
0.04323036516
0.003974148308
-0.008047303126
0.008487160752
-0.03928705774
0.00586313448
-0.04228166366
-0.00648886513
0.02705172365
-0.03487887176
-0.0002201550089
-0.04117211648
0.03914536908
-0.0001316611118
-1.820395834e-05
0.04009475278
0.005927977926
-0.04267058327
-0.003352147439
0.009670802424
-0.01047120313
0.04665443683
0.004902115457
-0.04590211684
-0.0001721151016
0.008855947849
-0.007941171446
0.03917997638
-0.04157899199
0.007368607745
-0.007653262233
0.04186364647
-0.04179609251
0.04216390878
0.008488131577
0.00575105093
-0.04589504043
-0.03570869869
0.03601776374
-6.528076702e-06
-0.0003025369834
0.0002145239129
-0.03615297604
-0.0004005077457
-0.001033739406
-0.03949813387
0.0006854042129
-0.003206962517
0.005693156823
0.0417238105
0.02513742483
-0.0248427108
-0.0002947140289
-0.0005754452246
-0.03507985046
-5.340300077e-05
0.03886952718
-0.005853764034
-0.03958138623
0.006565623084
-0.03749645824
-0.005125443574
0.004339754609
0.03828214721
-0.00516976843
-0.0373972488
0.004755442176
-0.006235750891
0.007367509973
0.0377377681
0.02304739822
-0.02266340715
-0.0003839910718
0.0412227282
-0.0398647139
0.001206764165
0.001971742949
0.03692566948
-0.006527246066
-0.0381768756
0.007207663419
-0.00424584556
0.003640091206
0.04182848255
-0.02097871268
-0.0002820712731
-0.03549931209
-0.006526992954
0.006275616933
0.03575068811
-0.02759491552
0.03075297281
-0.003050303302
-0.0001077539842
-0.009660618269
-0.0429249569
-0.006062133279
-0.0213879583
-0.0001448239451
-0.006917942734
-0.03578600661
0.007204637258
-0.03084597243
-0.000209509045
0.02517391045
-0.133605345
0.02578749076
-0.2526830008
-0.03359292184
-0.229201747
-0.02677753833
0.2366776894
-0.02567726428
0.02864050722
-0.002748901353
-0.0002143415792
-0.02000491813
-0.005500199422
-0.0001721467312
0.02259435364
0.2460624331
-0.01970402257
-0.0003008955582
0.0662053811
-0.01132646941
-0.02158157255
-0.1286934933
0.01149606525
-0.01774162876
-0.1286335314
0.0189728692
0.01553921944
-0.0205075899
-0.01468342788
0.01965179835
-0.02064780858
-0.008387545669
0.01913046178
0.009904892464
-0.005272547646
0.005997579705
-0.01435744919
0.02270455835
-0.02819308381
-0.03128126441
0.01756451418
-0.02632989537
-0.01822975573
0.02699513692
-0.02291525578
0.02155808666
0.01689638857
-0.1267408969
0.02659026759
-0.02842893272
0.128579562
-0.1234696086
0.1246774759
0.03194582943
0.02113905692
-0.06733255524
0.009615186652
-0.03983992055
-0.009904809408
0.0401295433
-0.04272870861
0.04321114758
0.01086972635
0.04498181032
0.01019136848
-0.04394034754
0.03116331688
-0.007037835889
-0.03137741166
0.007251930661
-0.0070839949
0.007475299517
0.03190354718
0.03158350764
-0.00857844792
0.006620012189
0.06581389607
-0.01279478886
0.06461031812
-0.01282596723
-0.06507418052
0.06500852845
-0.01164331636
-0.06542384394
0.01205863185
0.04542533248
0.009227280263
0.007206944288
-0.04307505887
0.007573387994
-0.04147930454
-0.007673075441
-0.02679962875
0.005625139447
0.008080433862
-0.02970039407
-0.008311593951
0.03626897169
-0.02793207739
-0.0002564604392
0.01805915463
-0.006966082559
0.007091093416
-0.05571288105
0.01412019652
-0.0004824872047
-0.03346978771
-0.003821763701
-0.0002302622271
-0.03300025985
0.0330908841
-0.007589431225
0.004907208022
-0.03123130659
-0.006676161285
-0.02636601859
-0.0002416498912
-0.03313650996
0.03313353628
-0.006974587691
0.03388432269
-0.006935808162
-0.0339570952
0.03278597005
-0.006622839494
-0.03288239634
0.006719265788
0.01432612789
-0.07617043508
-0.0151081925
-0.07334989544
0.01620368931
-0.0172324114
0.07437861754
-0.07557353572
0.07702360622
0.01957955338
-0.006686334593
0.006993165376
0.03361532538
0.03320612871
-0.007702236144
-0.007268602948
-0.0335563536
-0.0629492841
0.02096046878
-0.02181214427
0.0638009596
-0.05952717114
0.06017578802
0.02392189438
0.01618340437
-0.03324230864
0.01343459631
0.04222548561
-0.0004459728487
-0.04287310211
0.04263222117
0.01367547725
-0.04195512758
0.01429102267
-0.02861061586
0.02864290686
-3.229099441e-05
0.009358928212
-0.03783032103
-0.0001392230409
0.007178420293
-0.03530766281
-0.007110097275
0.03324386401
-0.03220207368
0.006136629969
0.003010481311
0.03545300016
0.02224643582
-0.0001374554845
-0.0064187917
0.02871904589
-5.381836561e-05
0.03391722425
-0.007393428209
-0.006040067059
0.03504955424
-0.03516909954
0.006159612356
-0.005933728032
0.006128040961
0.03553017384
0.03702391323
-0.006613673951
-0.00753335654
0.04596315644
-0.0003407992611
-0.03903201448
0.03806945689
-0.006570798943
-0.03810224986
-0.004736233697
-0.007511050362
0.006012298466
0.03057845799
-0.03219286279
0.03244390155
-0.007762089118
-0.008211021377
-0.0329741317
0.03500347305
-0.001807644452
-0.0002216968927
-0.03033018739
-0.002341545329
-0.0003023989843
-0.03627895402
-0.003705383405
0.002388897903
-0.03430997345
-0.004357878476
-0.02958224935
-0.0001395385037
-0.02351582593
-0.006538162603
-0.0002761988603
-0.02331667772
-0.0001991482046
-0.004286664617
0.004424474715
0.03837819528
0.04133328703
-0.00445990148
0.03842054736
-0.005832088132
-0.0391157053
0.02576632924
-0.0003033483165
-0.03278421462
0.04029771826
-0.007284364555
-0.0002291390784
-0.003845801445
-0.0002979059635
0.03044895768
-0.02927949757
-0.00499623005
0.03269628638
0.03357269917
-0.006176880098
0.01141286344
-0.0004812928174
0.004372367709
-0.01162238695
0.01296526832
0.00573321559
0.005679647856
0.007482191559
-0.0332236392
-0.007339551181
0.04029822201
-0.03253802759
-0.0002780028543
0.02733654487
-0.0207118061
-0.0001475847067
-0.005052621389
-0.0001488613289
-0.006650080789
-0.03004881425
0.01520417034
-0.01582163293
0.03066627684
-0.02841773607
0.02904676718
0.01693548308
0.02227796076
-0.02980119823
-0.04517803872
0.04148649031
0.003861587772
-0.0001700393584
-0.05290562047
0.008043262839
-0.0003156810911
-0.04028849022
0.03993852287
0.0004199991426
-7.003179461e-05
0.001363986523
-0.0001659864408
0.0006032891816
0.03889162649
-0.0001935272551
-0.04417789864
0.04329812375
0.001483064078
-0.04525108535
0.001917365855
-0.04252030365
0.04187859618
0.001206170788
-0.0005061289875
0.001283949084
-0.0001158118596
-0.0001113668952
0.03751051108
-0.0004373778098
-0.04213088919
0.04295812894
-0.0009386066468
-0.04154558379
-0.0006084997245
-0.04380834888
0.04387562063
-0.003577660802
0.0009778620609
-0.001828082003
-0.0003493807405
0.008915561883
0.04588468067
-2.247924907e-05
-0.04500501753
0.04671601449
0.007204564919
-0.04218165123
0.008315998116
-0.04638281485
0.002922247717
-0.004509299017
0.00484249866
-0.0002399190325
6.92781953e-05
0.03644816741
-8.145896157e-05
-0.04006854557
0.04046655436
-0.0003287305945
-0.03965772814
-0.000266907537
-0.04100456167
-0.000431210169
-0.0002045003828
-0.0003335069254
-0.0004335223998
-0.04004813854
0.0411607842
-0.000759624488
-0.0003530211743
3.363655622e-07
-0.0001099520271
-0.0445246193
0.0519975661
-0.007171499081
-0.0003014477229
-0.003228517671
-0.0001353174319
-0.01837567555
-0.0002039840448
0.01977519063
-0.0003839866958
-0.00787232843
-0.0002845583265
-0.008846530885
-0.0003165209184
0.03316461566
-0.05127321806
-0.0003126670565
0.03366707641
-0.0005024607457
0.01804812328
0.03859282266
0.0007654952175
-0.03478523391
0.05117536274
0.02220269382
0.02214748149
-0.03277548376
-0.0326739046
0.03211202602
0.0005618785803
0.01846959108
3.186705546e-05
-0.001787849401
-0.0002496310838
-0.02220414636
-0.0003986649607
-0.006193616735
-0.0002401162999
-0.02982420539
-0.007600717936
-0.009200697529
-0.01464413111
-0.03349093006
-0.007752090933
-0.0002492359411
-0.0002608847229
-0.005198817643
-0.0001721760453
-0.04137455645
0.05669775179
0.01484146652
-0.0125095027
0.01376716743
-6.627626468e-05
-0.0110561956
-0.04381738228
0.01096650559
0.04118774122
-0.04288500861
0.05665085296
-0.0453439196
0.007791244132
-0.0002776455656
0.01177537639
-0.0004215441973
0.002788351114
0.03349447827
-0.00015873169
-0.03839769353
0.03723471363
0.003951331014
-0.03934595848
0.002085417103
-0.03735576008
0.01022619459
-0.007984220954
0.007863174505
-0.0001980644358
0.0004525880486
0.03768496605
-0.0001471800091
-0.04125812831
0.04065093046
0.001059785897
0.001116988578
-0.04006166282
0.001329255474
-0.0005115921498
0.001100859796
-0.0002424893348
-0.001274050656
0.0001375466824
0.03969371848
-0.03898348334
-0.002280761386
0.03999019407
-0.03807137134
-0.00272759454
-0.03537075982
-0.0003121027305
-0.0002452877862
-0.0003665183188
0.02367841451
-0.04903952806
-0.009492548
0.02391895034
-0.0002405358296
0.03081376905
-0.0004236179308
-0.00757697555
-0.0002478197121
-0.02459089708
-0.006927424215
-9.91282402e-05
-0.02424211678
-0.0003487802967
-0.009565972528
0.03565789564
-0.04200516547
0.03907604182
-0.006636848878
-0.005705222369
-0.03770970679
-0.003916117159
0.007047585555
-0.005681250524
0.04430867276
-0.03644474394
-0.0002567736432
-0.009399221737
0.02150582081
-0.007773320174
0.02181517176
-0.0003093509433
-0.02813117383
0.03133318001
-0.0001915248639
-0.000179372105
0.003045460263
-0.005258347186
0.03204470378
-0.0002801976302
-0.0003538175247
-0.03615303846
-0.006583144527
0.03584577468
0.009308713055
-0.007392294632
0.003664199676
0.04117622138
-0.001610055892
-0.04318618592
0.04187478972
0.004975595879
0.00516008543
-0.04437212304
-0.04112551666
0.00743102619
-0.005076402892
0.005825675945
-0.003187239261
-0.03752484432
-0.0005412666993
1.046886281e-05
-0.002914148159
-0.04519072561
0.005434290492
0.03851762385
-0.04109610349
-0.0003356685264
0.03530373984
-0.0001382634267
0.04638853814
-0.0002088883044
0.005563936975
-0.0002715023228
0.007027648201
-0.05523205032
0.009600163305
-0.0002702298225
0.02740451539
-4.194699774e-05
0.0277039071
-0.0002993917082
0.01165183317
0.0001124812518
0.03615579564
-0.0002505131503
-0.03851399486
0.03890829598
-0.000281819867
-0.03799181538
-0.0005287075601
-0.03922945766
-0.0002137465674
-7.891926006e-05
-0.0002422424168
-7.609965454e-05
-0.007323117524
0.03265218885
-0.0001916464969
-0.03656849478
0.03628882411
-0.007043446858
-0.009413639476
-0.03725738491
-0.001309875697
0.00219862093
-0.003167181723
-0.0002290406842
-0.03901988189
0.04683528298
-0.007729132094
-8.626899178e-05
-0.003868976299
-0.0001474325421
-0.006341547216
-0.000193303912
-0.03362911715
-0.007022403515
-0.009457241326
0.0005394058637
-0.03846804281
-0.001936076958
0.03484469934
-0.03410447091
-0.0002008225605
0.03637883488
-0.0003273713731
0.03316324581
-0.0003777338077
-0.0006602474875
-0.0002809776157
-0.002202620811
0.009789974247
-0.04053795272
-0.007428897123
0.03470951414
-0.04823621762
0.03537901496
0.04031156577
-0.0002926396875
-0.007721727901
-0.0002029239512
-0.006431198071
-0.004104919989
0.0350633944
-0.0002055016024
-0.03504898332
0.03654692351
-0.005602860183
-0.03280859084
-0.005290695777
-0.03617545858
-0.008203133307
0.03471797362
0.007604708686
-0.007233243756
-0.0002568538099
-0.03567676855
0.04347537262
-0.007578328669
-0.0002202754034
-0.004048886319
-0.0002947022202
-0.03170073185