/*--------------------------------*- C++ -*----------------------------------*\
| =========                 |                                                 |
| \\      /  F ield         | OpenFOAM: The Open Source CFD Toolbox           |
|  \\    /   O peration     | Version:  v2012                                 |
|   \\  /    A nd           | Website:  www.openfoam.com                      |
|    \\/     M anipulation  |                                                 |
\*---------------------------------------------------------------------------*/
FoamFile
{
    version     2.0;
    format      ascii;
    class       volScalarField;
    location    "0.71";
    object      nut;
}
// * * * * * * * * * * * * * * * * * * * * * * * * * * * * * * * * * * * * * //

dimensions      [0 2 -1 0 0 0 0];


internalField   nonuniform List<scalar> 
3259
(
1.148236448
1.147983989
1.148437493
1.150217818
1.152734175
1.158728278
1.079168282
0.8847398283
0.6952123033
0.5598877918
0.469349636
0.3983688083
1.148233018
1.148021816
1.148641336
1.150719812
1.153744628
1.160268339
1.130283585
0.9353269979
0.7640643091
0.6274009469
0.5224648478
0.2765555238
1.148288511
1.148111162
1.148884858
1.151267786
1.154672798
1.161623327
1.166960428
1.020126098
0.8660938476
0.738155451
0.634885062
0.1022770612
1.148463775
1.148319397
1.149223365
1.151864036
1.155580768
1.162754269
1.16774035
1.154126086
1.013442023
0.9189558949
0.7963497988
0.0604456135
1.148613445
1.148487634
1.149495372
1.152384446
1.156405352
1.163672834
1.168116311
1.160263205
1.125980391
1.031363185
0.7076372452
0.03637801102
1.148827211
1.148718383
1.149801492
1.152871892
1.157098502
1.164317038
1.168023827
1.158847236
1.11872152
0.9987403389
0.5441714628
0.02943595527
1.148948645
1.148844777
1.149978068
1.153215501
1.157638267
1.164702521
1.167606062
1.156951055
1.112330673
0.9642015675
0.3856602098
0.03259288827
1.149111012
1.149018249
1.150184267
1.153518306
1.158022839
1.164859576
1.166895081
1.154760218
1.105518597
0.9315538327
0.3194546668
0.0366660906
1.149143747
1.149058319
1.150247157
1.153676935
1.158273859
1.164835178
1.166004907
1.152421223
1.098119453
0.8905511467
0.2755112951
0.04170792691
1.149226945
1.149163191
1.150376864
1.15384863
1.158422097
1.164687267
1.16502894
1.150010622
1.089872787
0.8396546572
0.242906708
0.04842709668
1.149164438
1.149123306
1.150366962
1.15390782
1.158509133
1.164473874
1.164026161
1.147518944
1.079875623
0.7868423188
0.217371223
0.05704011995
1.149184557
1.149182998
1.150470459
1.154044504
1.158565946
1.164241694
1.163017554
1.14480675
1.066594466
0.7382732699
0.1965279791
0.06755165428
1.149051489
1.149089413
1.150429097
1.154080883
1.158622122
1.164021375
1.162002869
1.141642605
1.04878993
0.6935957604
0.1786999496
0.08006450794
1.14904369
1.149137707
1.150547303
1.154246343
1.158689564
1.163832918
1.16098002
1.137778759
1.026511996
0.6511541003
0.1627591412
0.0946515383
1.148875078
1.149021156
1.150503767
1.154298155
1.158786048
1.163690053
1.159946294
1.133001832
1.001135845
0.6109845764
0.1485840623
0.1105724292
1.148874047
1.149089048
1.150665549
1.154527834
1.158911728
1.163599861
1.158882561
1.127245215
0.9749742142
0.5754223824
0.1366030207
0.126382579
1.148703983
1.148978315
1.15064137
1.154611666
1.159079381
1.163561902
1.157750058
1.120629709
0.9500584774
0.5460480975
0.1280024548
0.1405540115
1.148731212
1.149084298
1.150861599
1.154923934
1.159280272
1.163570733
1.156505507
1.113394809
0.9274482926
0.5228053376
0.1223773559
0.1525770918
1.148590955
1.14900563
1.150875018
1.155046318
1.159526145
1.16361705
1.155118751
1.105827109
0.907488561
0.504936841
0.1186948952
0.1625718234
1.148645704
1.149147572
1.151148949
1.155442154
1.159800857
1.163689361
1.153579878
1.09819415
0.8901936266
0.4914984297
0.1166290821
0.170887348
1.14856976
1.149130763
1.151222759
1.155610934
1.160116055
1.163773889
1.15189569
1.090704072
0.8753940441
0.4816059336
0.1159255646
0.1778244127
1.148624013
1.14928097
1.151521658
1.156065194
1.160449881
1.163859242
1.150086169
1.083495265
0.8628214947
0.4745269014
0.1162887515
0.1836897951
1.148648617
1.149358424
1.151682344
1.156305739
1.160817173
1.16393799
1.148192101
1.076643442
0.8521475186
0.4696284321
0.1175093756
0.1887340685
1.148780607
1.14961469
1.152134451
1.156963283
1.161211411
1.164020268
1.146320231
1.070198766
0.8431070558
0.4664573415
0.1194311827
0.193147471
0.4023909685
0.3185621791
0.4596861856
0.4192222601
0.506348037
0.3881893017
0.4133225515
0.3695499952
0.03079360501
0.0504014099
0.2782482815
0.0513611924
0.03238823015
0.004753031099
0.0304999633
0.3652642808
0.01914788771
0.01148338048
0.03204031694
0.0194737778
0.01382099332
0.04557407292
0.185812753
0.1740501513
0.2020317679
0.1905789706
0.04591055048
0.06714184685
0.2180866995
0.2061995442
0.2220209817
0.06841659573
0.04915582174
0.04816304604
0.1694482502
0.1610222514
0.02455942342
0.01229775751
0.01732767794
0.01397932427
0.03062679929
0.01297142998
0.01396490191
0.01354733566
0.03066286349
0.01410958369
0.01491385625
0.5963933679
0.3732533695
0.37915409
0.2532780418
0.00900087664
0.005360527901
0.03384530062
0.0962067682
0.09119935592
0.01249141481
0.01807305633
0.05126982991
0.03945619901
0.004388934639
0.1247648179
0.1089177525
0.08949983355
0.08546048172
0.03017698126
0.01555174587
0.01891713524
0.01213922214
0.01750082265
0.01948008024
0.002820233743
0.03158505785
0.02052808329
0.1042569615
0.0979798975
0.03769413406
0.04803686359
0.1111343123
0.1059610989
0.05063430821
0.0442938038
0.02909093182
0.08297330663
0.07491430277
0.01387542333
0.01313948723
0.01814496953
0.01254656061
0.01430548566
0.01482509936
0.03147637953
0.009487944088
0.01410452544
0.0124227292
0.01431862484
0.02136453617
0.1179969057
0.1127768453
0.04851513189
0.05889364348
0.125806144
0.119812931
0.02025309561
0.02054940785
0.03323433367
0.01909370863
0.03183644883
0.01980450857
0.01998504826
0.0195051288
0.1335360187
0.1278043179
0.06204972103
0.07127409895
0.1403556494
0.1352401761
0.03255143334
0.03260820971
0.04950379256
0.04785130212
0.03215793605
0.0321016496
0.02323353569
0.03698494082
0.03630050113
0.009114546513
0.01480706721
0.01575733609
0.01447808958
0.01417029716
0.01887727325
0.01911864503
0.0310750574
0.01318587487
0.009587444473
0.01300399129
0.01361537054
0.02908766003
0.01837096408
0.01896241141
0.01371443207
0.0204844662
0.0202894343
0.01599517916
0.03532549944
0.02114868291
0.02207098902
0.04325136148
0.03019011502
0.002971192084
0.03017888497
0.04601661329
0.04568304973
0.01888369942
0.01206271337
0.008884409637
0.003378543022
0.01392108547
0.01436612658
0.0195615578
0.01973091548
0.03176977469
0.01992519461
0.01983036174
0.01978631459
0.02008439631
0.02001897451
0.03046597513
0.03043626024
0.04587631473
0.01902063521
0.02006317275
0.01955103898
0.0196193231
0.04410883118
0.0435663297
0.02887546616
0.01410921538
0.01145911395
0.01116116889
0.008498105486
0.01164384119
0.01335289013
0.01870618488
0.01329649177
0.01461607048
0.01431406583
0.03119239757
0.019234808
0.01943729897
0.01296727663
0.01270753864
0.01280053026
0.0137400208
0.01344440286
0.009073134127
0.009363232644
0.01409534485
0.0128958385
0.01352990618
0.01561648389
0.0192469972
0.02909560684
0.8721538108
0.7244738259
0.6817511113
0.5760323878
0.5471160929
0.4762020685
0.9167288664
0.7826254551
0.7373414596
0.7422923433
0.6362949148
0.5893194033
0.6057719282
0.5227695952
0.4841181991
0.4791788192
0.4497033681
0.4511282002
0.3858633055
0.2398620501
0.252016255
0.993644641
0.8718186867
0.8035857207
0.8348488108
0.7318917908
0.6585667766
0.7023965853
0.6233237731
0.5436897591
0.5407940836
0.511250283
0.4927040086
0.2722238506
0.1388639209
0.1552191962
1.111649034
1.003526787
0.9012054028
0.9717878376
0.8898956503
0.7651621275
0.8672663352
0.8162072244
0.661466669
0.810964069
0.2582194661
0.351979116
0.06827286368
1.160550332
1.139322497
1.042551862
1.12762473
1.069357527
0.9392025627
1.037644986
0.8550623421
0.8948228532
0.7387120089
0.1487517366
0.2344811434
0.04142041031
1.159252856
1.134425415
1.138166906
1.120511602
1.048766218
1.06493335
1.007780262
0.7573270833
0.8353321534
0.5914490696
0.07154877555
0.1293471575
0.02963081932
1.15744612
1.129842101
1.133265866
1.113982897
1.025945251
1.042770228
0.9716818807
0.6153780265
0.7233062798
0.4168846876
0.04095855695
0.05883589984
0.03155946865
1.155326784
1.124893877
1.128613503
1.107276083
1.005774317
1.021178023
0.9403326624
0.5160117556
0.5828127104
0.332881826
0.0379572572
0.03923564498
0.03564187586
1.153013804
1.11963666
1.123607424
1.10003011
0.9818736809
1.000217052
0.9018054176
0.448164131
0.4969912569
0.2852367755
0.03839159121
0.03796631057
0.04030354512
1.150619579
1.114025579
1.118273088
1.092050258
0.9513599031
0.9750298029
0.8529809386
0.3976220049
0.4342343443
0.2502808673
0.03937862471
0.03860542316
0.04659558783
1.148157289
1.107728072
1.1125378
1.082616665
0.9123086317
0.9423139561
0.7997448994
0.358041344
0.3868504371
0.2232555489
0.04083815718
0.03968722982
0.05470699946
1.145514548
1.099951014
1.105964303
1.070309024
0.8689578472
0.9016581333
0.7499817905
0.3255787184
0.349366965
0.2014171681
0.04298767177
0.04130723032
0.06476537771
1.142487839
1.089552066
1.097641466
1.053685819
0.8254952888
0.8580120324
0.7045001635
0.2975240181
0.3182191597
0.1829714291
0.04602483209
0.04365523312
0.07672701694
1.138822889
1.075659841
1.086423709
1.032447552
0.7829912383
0.814775114
0.6616043465
0.2720698707
0.290953061
0.1665818877
0.05021572379
0.04695524122
0.0908463501
1.13428793
1.058331648
1.071619078
1.0076495
0.7417668706
0.7725196677
0.6206968224
0.2488371424
0.2660007594
0.1520316813
0.05597680923
0.05148565773
0.1065314362
1.128772022
1.038815897
1.053588072
0.9814624469
0.7037431873
0.7318521229
0.5837602394
0.228876411
0.2434815167
0.1392564669
0.06352333437
0.05770417761
0.1225404169
1.122351677
1.018817594
1.033799504
0.956096985
0.6709804491
0.6950071165
0.552800057
0.2134226647
0.2245731441
0.1298637399
0.07245084795
0.06564996651
0.1372154573
1.115245121
0.9995980725
1.013903483
0.9328572691
0.6440071115
0.6636959645
0.5280832521
0.2023943102
0.2102407898
0.1236478365
0.08212877414
0.07482154855
0.1497783903
1.107733844
0.9818430039
0.9950047477
0.9122254051
0.6224042097
0.6381245487
0.5089619779
0.1949751021
0.2001577603
0.1194733136
0.09192597564
0.08458313502
0.1602485826
1.10009506
0.9658598083
0.9776758648
0.8942749341
0.6054211238
0.6177517151
0.494511605
0.1901552786
0.1935252616
0.1170495041
0.101323673
0.09431507257
0.1689643027
1.092553554
0.9516946089
0.9621505791
0.878872103
0.5922588291
0.601794295
0.4838233315
0.1875812327
0.1893059693
0.116054056
0.1099870675
0.1035414465
0.1762245628
1.085265261
0.9392455205
0.948427823
0.8657745124
0.5821988541
0.5894658777
0.4761137947
0.1866732161
0.1871685744
0.1161980942
0.1177615324
0.1119649158
0.182356318
1.078319473
0.9283581194
0.936385632
0.8546523725
0.5746060317
0.5800717873
0.4706861236
0.1870711597
0.1865931531
0.1172541157
0.124663587
0.119469553
0.1876337949
1.071747189
0.9188258114
0.9258627589
0.8451650363
0.5688806016
0.5730157389
0.4670946359
0.188482601
0.1872333624
0.1190553783
0.1308170833
0.1260896998
0.1922957081
1.065168956
0.9099286808
0.9167128452
0.8365160719
0.5644456372
0.5677943064
0.4647686618
0.1908799845
0.1888118121
0.1216910268
0.1367084936
0.1319296572
0.1967735796
0.2562505317
0.2685317737
0.4145096552
0.1595931393
0.1727307362
0.3238961879
0.02606861495
0.4432573791
0.4595842543
0.4494809384
0.4360300587
0.4463274727
0.4382930853
0.4745851967
0.4630342141
0.49156794
0.4060894007
0.4468076929
0.4645063115
0.4392677848
0.4424469854
0.4040349615
0.2235304401
0.2353713065
0.3817946168
0.03100775351
0.04890531471
0.04808113082
0.07198739361
0.07073763221
0.04967482726
0.01023875998
0.009851827136
0.2396589018
0.01922374643
0.01882746999
0.02887184455
0.0357433257
0.05290466341
0.07520252646
0.07338234459
0.1418774403
0.07236241639
0.418219239
0.2725726424
0.003252791095
0.0283090097
0.01594947541
0.04726457904
0.04681823037
0.03043707242
0.3535031399
0.20686641
0.2183569858
0.01672065357
0.01502142362
0.004833777282
0.06309351573
0.0612991993
0.04371360174
0.1827481332
0.1358833931
0.138363127
0.1165584269
0.1261847841
0.1775294389
0.1983541308
0.15042009
0.1538307807
0.1432166278
0.1462686053
0.1940070715
0.04691206198
0.06548516023
0.06418593819
0.08830597497
0.08677811765
0.06610907709
0.2141412257
0.1655515134
0.1692642513
0.1577998226
0.1615697881
0.2100826778
0.2298963364
0.1800026162
0.1729051082
0.1764598295
0.2259470764
0.06926680314
0.09117684668
0.08981862968
0.1672548053
0.1083208669
0.1140395802
0.09694321102
0.1054613087
0.1605235027
0.01733148342
0.01457315929
0.01459165541
0.01423957805
0.01407648461
0.01412175041
0.01383577427
0.01451084329
0.01432842708
0.01404949293
0.01383880464
0.5725494207
0.5373901001
0.5656381796
0.3479363021
0.5081006439
0.5404897111
0.4677352988
0.4980346782
0.355118272
0.1330386858
0.1545905675
0.2635646779
0.008646815725
0.03999368621
0.0330687877
0.1027476218
0.1183092807
0.007025248812
0.05283562537
0.05048071778
0.03189462005
0.09446001966
0.07171104236
0.07385632021
0.06863621452
0.06985179983
0.09264184262
0.01483361535
0.02603840029
0.01965224007
0.02591864362
0.02344840052
0.01837917819
0.03314584018
0.0333086764
0.05185422976
0.01010376514
0.006987137728
0.002795027222
0.1186182821
0.06391463997
0.06993256524
0.05647846639
0.06188077879
0.1132290898
0.08827924461
0.06642206244
0.06726684282
0.06432894951
0.06506257253
0.08646663173
0.0178152948
0.01553309705
0.01449850157
0.01574650137
0.01458734185
0.01397804787
0.0152958501
0.006309605432
0.008311409428
0.1022407577
0.08109697287
0.08289793558
0.07647878766
0.078852413
0.1003021629
0.04217466323
0.0591186201
0.0561791983
0.06758940289
0.06642103507
0.04730948368
0.1093425139
0.08741416175
0.08890305893
0.08446502275
0.08599315929
0.1077365141
0.05018587707
0.0328555415
0.03292896378
0.08216774457
0.06143263966
0.06234477703
0.05369485192
0.05483363684
0.07465389129
0.01450834101
0.01445656411
0.01369281362
0.0141565632
0.01412100265
0.01421109045
0.0137456688
0.01424213959
0.01405313994
0.1161946548
0.09327967051
0.09486236521
0.0903241053
0.09181619642
0.114525708
0.04914034071
0.06969108974
0.06856445136
0.08017888245
0.07750343778
0.05542031862
0.1237238278
0.1005519308
0.102818723
0.09654401466
0.09843074128
0.1217250563
0.1316527664
0.109069804
0.1108817838
0.1050344854
0.1071559964
0.1298316835
0.06422826605
0.08492282618
0.08269103969
0.09397823653
0.09262269274
0.07037571738
0.1386722417
0.1162322173
0.1180898163
0.1126525872
0.1144206773
0.1370366927
0.01426336375
0.01419818185
0.01634219961
0.01453982946
0.01447865287
0.01440724258
0.01487451565
0.0144664498
0.01492576722
0.01391019003
0.03259353398
0.01585312395
0.0226367364
0.01485504117
0.0155754567
0.03097719626
0.002025595862
0.006915744599
0.006700740921
0.01102785784
0.008596356817
0.003068703337
0.01292774235
0.01006644192
0.01091635289
0.01131435435
0.01084528274
0.01278946258
1.152392201
1.154721449
1.157832345
1.16151257
1.075249367
0.9243803787
1.153297858
1.156042154
1.155396225
1.159550011
1.1630903
1.162054009
1.101122374
0.9708603978
0.9504206164
0.8926541521
0.8429061716
0.8304878501
0.7097517049
0.6717658823
0.6571859069
0.5737328837
0.5458766102
0.532812099
0.3941096932
0.3476897001
0.3519467781
1.154217788
1.157257088
1.15668333
1.160948165
1.164530598
1.163840921
1.160778087
1.03005197
0.9988351314
0.9474422565
0.9049009484
0.8899129189
0.7814169194
0.7445159223
0.7268175215
0.6458126757
0.616113134
0.5974074939
1.155149132
1.158404589
1.1578733
1.162186896
1.165706764
1.165161296
1.167400418
1.139803395
1.072544342
1.045946683
1.007733998
0.9783508753
0.8984306487
0.8631355306
0.8313228857
0.777204711
0.7522659722
0.7123904551
0.6825500928
0.6734587416
0.6194850594
0.08625888642
0.01628695374
0.01579547102
1.156026291
1.1594386
1.158949909
1.163248615
1.166555312
1.166188872
1.16796875
1.164195394
1.164411938
1.161014721
1.155507902
1.111450125
1.059923611
1.035873628
0.986543299
0.979364483
0.9714236212
0.9013275627
0.781879008
0.6340719631
0.6558321451
0.05355462869
0.01826015008
0.01766411546
1.156788097
1.160284285
1.15987467
1.164032742
1.167098285
1.166850504
1.168084675
1.16343543
1.164057835
1.159959694
1.154359473
1.154882699
1.124208869
1.107917148
1.11041701
1.024278796
0.9759111386
0.9861609912
0.6749971804
0.4840513495
0.5268445653
0.03246347612
0.02305805308
0.02138284246
1.157403626
1.160916708
1.160610656
1.164544617
1.167315307
1.167246532
1.167879347
1.162160433
1.163160912
1.15841193
1.152115394
1.152722031
1.117112793
1.097355606
1.099886067
0.9894801816
0.923091729
0.937584089
0.4977573961
0.296594915
0.3378866619
0.02992747298
0.035841984
0.03127706447
1.157860457
1.161349157
1.161142929
1.16481042
1.167244711
1.16731083
1.167278141
1.160573835
1.161801285
1.156424753
1.149446551
1.150132824
1.110675184
1.088359899
1.090655975
0.9566058805
0.8693620841
0.8813580994
0.3641424162
0.1988960396
0.2140559099
0.03379338878
0.05868053881
0.05284355287
1.158171521
1.161603091
1.161483768
1.164869482
1.16695671
1.167123281
1.166465955
1.158790193
1.160141253
1.154185372
1.146521885
1.14726814
1.103726334
1.078550329
1.081101907
0.9222591613
0.8139527366
0.8290304613
0.3070756564
0.1655354891
0.1727189209
0.03777721534
0.07552705989
0.07123841905
1.158362103
1.161716197
1.161662892
1.164775346
1.166520786
1.166752487
1.165523049
1.156902512
1.158322552
1.151823634
1.143470136
1.144241642
1.096159149
1.067540931
1.070435489
0.8785926027
0.7491957977
0.7655720585
0.2664791502
0.1425717304
0.1474984805
0.04322110822
0.09310660104
0.08866989066
1.158472604
1.161735469
1.161723829
1.164587564
1.16600409
1.166268569
1.164528855
1.154993585
1.156430352
1.149402952
1.140315329
1.141117364
1.087589445
1.054393186
1.05797947
0.8262373275
0.6878446255
0.70233741
0.2359401355
0.1250599507
0.1291507331
0.05038793896
0.1106779797
0.1063122607
1.158537488
1.161707442
1.161714918
1.164359667
1.165458586
1.165732235
1.16352238
1.153003077
1.154509385
1.146868807
1.13692356
1.137808183
1.076928048
1.037132214
1.041946577
0.774245305
0.6357464051
0.6479866574
0.2117769846
0.1109623063
0.1141888631
0.05950005894
0.1274862072
0.1233540549
1.158590851
1.161667804
1.161678346
1.164130187
1.164918083
1.165186035
1.162511213
1.150826521
1.15248539
1.144060687
1.132982973
1.134042842
1.062589238
1.014221296
1.020483859
0.7268086717
0.5906137606
0.6014138266
0.1918505271
0.09986832256
0.102429882
0.07046984588
0.1434482937
0.1395142416
1.158648544
1.161640868
1.161643619
1.163923527
1.164403703
1.164656413
1.161492514
1.148339288
1.1502427
1.140751233
1.128055099
1.129405323
1.04360765
0.9861813602
0.9935858274
0.6828213517
0.5495540124
0.5595581105
0.1745838229
0.09076048414
0.09292534981
0.08353894728
0.1584963024
0.154804981
1.158730359
1.161642334
1.161630254
1.16375645
1.163930735
1.164161116
1.160465259
1.14542067
1.147658578
1.13667535
1.121697384
1.123439568
1.020375835
0.9547046658
0.962784299
0.640824631
0.5108004858
0.5202897027
0.1591388433
0.08327363951
0.08498871464
0.09854801874
0.1730066507
0.1694087639
1.158838725
1.1616835
1.161651355
1.163639583
1.163506665
1.163712303
1.159420492
1.141975576
1.14461638
1.131652152
1.113698088
1.115846684
0.9945737108
0.922061947
0.9301824718
0.6015633111
0.4751040331
0.4835974251
0.1452922016
0.0780447711
0.079150794
0.1146117238
0.1869106801
0.1835214746
1.158987357
1.161769331
1.161715059
1.163576328
1.163126251
1.163311279
1.158328132
1.137962981
1.141030801
1.125663355
1.10428349
1.106743954
0.968569076
0.8908566691
0.8984082985
0.5674800565
0.4448342523
0.4518049403
0.1341902022
0.0749024741
0.07551607338
0.1301177778
0.1996363919
0.1965936659
1.159170271
1.161902333
1.161824375
1.163563599
1.162773134
1.1629465
1.157144894
1.133410477
1.136877959
1.118867289
1.093963534
1.096598
0.9441660289
0.8627962753
0.8694683441
0.5396847253
0.4208647782
0.4262745642
0.1264016423
0.07320909122
0.07349184226
0.1437684388
0.2108122744
0.2081654682
1.159397531
1.162080463
1.161979436
1.16359455
1.162425669
1.162597914
1.155832489
1.128426972
1.132205987
1.111522054
1.083277289
1.085956799
0.9222041698
0.8384959845
0.8442104551
0.5178688093
0.4027034589
0.4067462513
0.1212619277
0.07261124297
0.07263366092
0.1552760218
0.2204546339
0.2181778123
1.159660775
1.162302453
1.162176957
1.163659448
1.162062177
1.162242868
1.154370898
1.123162786
1.127137699
1.103915174
1.072674881
1.075297932
0.9029190535
0.8179445871
0.8227488292
0.5011968843
0.3894048784
0.3923322132
0.1180755487
0.07299626103
0.07277912159
0.1648154983
0.228693748
0.2267538718
1.159963727
1.162561635
1.16241288
1.163747001
1.161663978
1.1618603
1.152759177
1.117771503
1.121828066
1.096301249
1.062475897
1.064975438
0.8862677726
0.8007782134
0.8047761984
0.4887209834
0.3799707703
0.3820257311
0.116391137
0.07411767082
0.07372437442
0.172753969
0.2356798372
0.2340351013
1.160304911
1.162855281
1.162677802
1.163845025
1.161216117
1.161433495
1.151007051
1.112382429
1.116426623
1.088871367
1.052871344
1.05521056
0.8720555053
0.786554216
0.7898596226
0.4795883802
0.3735397591
0.3749433425
0.1159997247
0.07579474953
0.07524063276
0.1794137011
0.2415738808
0.2401770558
1.160671508
1.163172409
1.162967583
1.16394032
1.160704163
1.160952551
1.149125321
1.107086926
1.111053783
1.081746956
1.043949844
1.046114591
0.8599870772
0.7748293432
0.7775521665
0.473092145
0.3695345361
0.3703311025
0.1166234539
0.07798385471
0.07727213279
0.18508604
0.2465643545
0.2453540233
1.161071602
1.163500559
1.163273455
1.164012585
1.160105016
1.16041981
1.14709618
1.101937586
1.105792395
1.074988871
1.035722787
1.037717891
0.8497293473
0.7651647787
0.7674241748
0.4687011688
0.3673179495
0.3676896391
0.1180706033
0.08063488218
0.07976411468
0.1900295245
0.2508615406
0.2497580466
1.161574949
1.163905971
1.16360798
1.164092135
1.159384692
1.159861975
1.144792302
1.096664561
1.100706841
1.068560178
1.028082888
1.030024753
0.8408695495
0.7570679972
0.759120109
0.4657968064
0.3664412178
0.3665339835
0.1201928242
0.08370043495
0.08266464869
0.19446273
0.2546693623
0.2535564073
0.3562407695
0.3605508689
0.4065568989
0.2537910734
0.2646217717
0.3133680092
0.4252705095
0.4286279281
0.4245489024
0.3938841479
0.4290332372
0.4361659011
0.4208487953
0.4176941631
0.4082596216
0.3225872937
0.3264111647
0.3735371437
0.425100882
0.3833930835
0.3615107744
0.3147877961
0.3178230638
0.01437793231
0.4371433622
0.4406472691
0.3709332625
0.01277096494
0.01175377839
0.005794537584
0.01325267437
0.01869977731
0.01747038163
0.01630041181
0.01500796265
0.01360413346
0.0162693157
0.8186568079
0.8076254413
0.862732401
0.7117297623
0.7571010093
0.7692044847
0.6434719469
0.6305322932
0.6692611729
0.5635398594
0.5953131621
0.6081617792
0.5211710936
0.5100729414
0.5351283708
0.4689328541
0.4886554771
0.4987430037
0.8712752089
0.8558614266
0.9065639436
0.7655677369
0.8096311324
0.8259022905
0.7823196222
0.7958846793
0.7509718571
0.7045427745
0.6869310488
0.7247828048
0.6189284091
0.6515173193
0.6691309154
0.6217298105
0.6362841769
0.6038170191
0.5762981024
0.5604031838
0.5884355256
0.5066283627
0.5347727097
0.5491403301
0.5093520257
0.5213560975
0.494500661
0.3392053571
0.3434162645
0.3900984632
0.2437263567
0.2940628579
0.2899497494
0.3025458889
0.2983763931
0.248045532
0.9526645453
0.9271664164
0.971008842
0.8439682301
0.8845699366
0.9110924082
0.8457158725
0.8612499146
0.8201114183
0.8004572361
0.7698572406
0.8057601909
0.7030516082
0.7361179459
0.7657226001
0.6917606651
0.7098024417
0.6775488677
0.675860797
0.6426285198
0.6708463401
0.5900917682
0.6163233342
0.6500576024
0.5691192641
0.5881089855
0.5633120673
0.2052028982
0.2011689327
0.1502916327
1.073585789
1.039251894
1.077391031
0.9677092647
1.003650285
1.038015188
0.9387995629
0.969559341
0.9338700148
0.9419869044
0.900615388
0.9327056351
0.844571489
0.8713274027
0.9145674356
0.7961750116
0.8311244141
0.8031412155
0.8458346955
0.7968462854
0.8199689306
0.7540248857
0.7747874596
0.8261533148
0.6873449719
0.7288420414
0.7044978901
0.6748086318
0.6907370798
0.7418923728
0.291586807
0.5170430627
0.4907217326
0.550074644
0.5308432537
0.3157451877
0.01711951571
0.01671216017
0.07645675988
0.0300187987
0.03158680244
0.02740609405
0.02870547607
1.155382914
1.155834421
1.160801801
1.138580647
1.149130575
1.148420671
1.074972534
1.118366816
1.086514781
1.112709723
1.091530408
1.113261087
1.061103891
1.073971035
1.093711488
0.9617050421
1.013925941
0.9945469763
0.995272606
1.002917695
1.04302109
0.8703328871
0.9479275946
0.9369998031
0.8915473354
0.9578221546
0.8852910178
0.5725610501
0.6025102244
0.7596120357
0.1779249682
0.3945349551
0.3532860068
0.4678157497
0.431039949
0.2007418892
0.02005676251
0.01908540912
0.04702041605
0.03954790527
0.04387815801
0.03361167029
0.03613660495
1.153294917
1.153833318
1.159623765
1.135671963
1.145975704
1.145168605
1.147639293
1.146811589
1.136935783
1.102559034
1.105269707
1.122362384
1.054541799
1.083250929
1.079301159
1.090537769
1.087031116
1.059984552
0.9514035999
0.9641049964
1.016333166
0.7866808605
0.8909125628
0.8721360328
0.9236092304
0.9086813672
0.8131968754
0.3844908006
0.4330047687
0.6350782419
0.0878476896
0.2286255559
0.1950746522
0.3083946278
0.2697247213
0.1078659722
0.02791696821
0.02508007394
0.03032715143
0.06580487671
0.07604872518
0.04958864537
0.05675289168
1.150806542
1.151486506
1.157940969
1.131008333
1.142704532
1.141818642
1.144378454
1.143555638
1.132154456
1.092934392
1.095130322
1.115560134
1.0310457
1.067864786
1.064652617
1.075316551
1.071419568
1.036821345
0.8940239996
0.9084377092
0.9803109452
0.6500565558
0.8038791124
0.7802879516
0.8504296627
0.8279365405
0.687890093
0.2355613575
0.2629635141
0.4537201637
0.04425615114
0.1220598838
0.1052606288
0.1647219332
0.1404853026
0.05024039109
0.04708244004
0.0410306929
0.03054366766
0.1117989546
0.1225931298
0.08807910285
0.1002569302
1.148005673
1.148732418
1.155882355
1.126161221
1.13905971
1.138106384
1.140904716
1.139993646
1.127394964
1.083587128
1.086010601
1.109000535
1.011106828
1.054712744
1.051181313
1.061435691
1.058136128
1.016235393
0.8432905517
0.8567146584
0.9486696355
0.5365230472
0.7188964722
0.6989904488
0.7577292285
0.7384832475
0.5584108106
0.180531654
0.1892351259
0.3476976972
0.03809833575
0.08036738183
0.07644379472
0.09335623551
0.0848128154
0.03835658828
0.06703013831
0.06292389171
0.03471401739
0.1439353113
0.1481236866
0.1315436701
0.1391830671
1.145007432
1.145767594
1.153600711
1.120979386
1.135175151
1.134177115
1.137140409
1.136163148
1.122302879
1.073225561
1.075927047
1.101897835
0.988311642
1.039840813
1.035764646
1.047533252
1.043757736
0.9944094643
0.7819931701
0.7981962255
0.9123656418
0.4631553414
0.6404894356
0.6223466125
0.6790851633
0.6594848417
0.4793993897
0.153063724
0.15898075
0.2956985093
0.03820126678
0.06705407624
0.06465880081
0.07292282644
0.06989449717
0.03805100497
0.08426157962
0.07986911006
0.03897496767
0.1597835486
0.1634274993
0.1521470154
0.1560306456
1.141909788
1.142693481
1.15122361
1.115472531
1.131119431
1.130073378
1.133169156
1.132150386
1.11688645
1.061343532
1.064519811
1.094140527
0.9598252456
1.022242954
1.017141767
1.031501452
1.027011505
0.9677050114
0.7174444402
0.7330989294
0.8660212487
0.4090414054
0.5735924223
0.5591479093
0.6051565552
0.5889133594
0.4212217704
0.1334363309
0.1379391706
0.2581057514
0.03909162023
0.05903405531
0.05763293225
0.06253586569
0.06060373827
0.03883347027
0.1019175286
0.09751602195
0.04484420367
0.1738365007
0.1771723995
0.1669753911
0.1704385531
1.138665016
1.139499629
1.148787895
1.109401417
1.126802991
1.125648841
1.129008556
1.127920455
1.111000289
1.046410572
1.050548681
1.08517903
0.9227015369
0.9993972895
0.9925860329
1.011657713
1.005751817
0.932735891
0.660713896
0.6739816028
0.8128967929
0.3671187253
0.5203949865
0.5087861498
0.5455026563
0.5326050882
0.3766947099
0.1176202475
0.1212218721
0.2294210695
0.04041706185
0.05452007682
0.05381606769
0.05638092885
0.05536763638
0.04003868952
0.1191616531
0.1149667666
0.05248586249
0.1870037342
0.1902596462
0.1804782937
0.1837568302
1.135047337
1.136005791
1.146203289
1.1020949
1.121875672
1.120478634
1.124449553
1.123195487
1.104093116
1.026398879
1.031950415
1.073747094
0.8799114969
0.9695925784
0.961207345
0.9853287354
0.9776526809
0.8908335903
0.6125091149
0.623937573
0.7619649029
0.3331922953
0.4768686605
0.4670135798
0.4976939873
0.4870760781
0.3411008502
0.1051486324
0.1079685394
0.2064940039
0.04237593717
0.0523609831
0.05206119107
0.05322983649
0.05274210554
0.04180804653
0.1355256303
0.1315270713
0.06207660809
0.1997933664
0.2029019233
0.1934843821
0.1966592172
1.130671535
1.131861538
1.143290557
1.092456809
1.115699374
1.113868842
1.118992016
1.117403189
1.095149032
1.000745912
1.007633301
1.058287061
0.8362723994
0.9345999552
0.9253846947
0.9525493362
0.9436671659
0.8471142409
0.5697196617
0.5800620567
0.7155632686
0.3042507502
0.4391992868
0.4303705977
0.4574711812
0.4482202609
0.3111360087
0.09519896154
0.09748685611
0.1873649645
0.04516113106
0.05157035232
0.05151830859
0.05181846412
0.05166320188
0.04439079761
0.1510790926
0.1472982957
0.07352443773
0.2122444077
0.2154056124
0.2060043196
0.2091134042
1.12507746
1.126614671
1.139813547
1.079478162
1.1075127
1.105079192
1.111900476
1.109784588
1.083067002
0.9707476051
0.9785594756
1.038154776
0.7935243019
0.8971030794
0.8875227208
0.9160503787
0.906621069
0.8041185973
0.5299238726
0.5396806898
0.6721634554
0.2782705649
0.4048854492
0.3966386638
0.4217221074
0.413242845
0.2845641271
0.0868845073
0.0887823852
0.1705668145
0.04903851275
0.05172788214
0.05190038032
0.05151332266
0.05159436639
0.04793951196
0.1657881925
0.1621530574
0.0871338591
0.2251138125
0.2284280661
0.2186024509
0.221837733
1.117898899
1.119850278
1.135513191
1.062934514
1.096806747
1.093742022
1.102482317
1.099723345
1.067371823
0.93835934
0.9465480144
1.014076127
0.7518756075
0.8586847017
0.8491616631
0.8779044733
0.8682806827
0.7621415225
0.4924078132
0.5014912453
0.6306607602
0.2543902827
0.3727997484
0.3652486868
0.388523471