/*--------------------------------*- C++ -*----------------------------------*\
| =========                 |                                                 |
| \\      /  F ield         | OpenFOAM: The Open Source CFD Toolbox           |
|  \\    /   O peration     | Version:  v2012                                 |
|   \\  /    A nd           | Website:  www.openfoam.com                      |
|    \\/     M anipulation  |                                                 |
\*---------------------------------------------------------------------------*/
FoamFile
{
    version     2.0;
    format      ascii;
    class       pointVectorField;
    location    "3.09";
    object      pointDisplacement;
}
// * * * * * * * * * * * * * * * * * * * * * * * * * * * * * * * * * * * * * //

dimensions      [0 1 0 0 0 0 0];


internalField   nonuniform List<vector> 
6962
(
(0 0 0)
(0 0 0)
(0 0 0)
(0 0 0)
(0 0 0)
(0 0 0)
(0 0 0)
(0 0 0)
(0 0 0)
(0 0 0)
(-0.0004133351378 0.001344134118 5.606626274e-15)
(0 0 0)
(0 0 0)
(0 0 0)
(0 0 0)
(0 0 0)
(0 0 0)
(0 0 0)
(0 0 0)
(0 0 0)
(0 0 0)
(0 0 0)
(0 0 0)
(0 0 0)
(0 0 0)
(-0.0007348159813 0.002265211088 9.964251646e-15)
(-0.0006699351287 0.002093678238 9.076073226e-15)
(-0.0005733646236 0.001816118502 7.771561172e-15)
(-0.002850578939 0.009915473066 4.241051954e-14)
(-0.003062440984 0.01050941358 4.554689959e-14)
(-0.004642309215 0.01674907069 7.258083023e-14)
(-0.004383599983 0.01603193937 6.855627177e-14)
(-0.009301566094 0.04018757654 1.716959908e-13)
(-0.00947162286 0.04036132442 1.747629819e-13)
(-0.0107547618 0.04876367842 2.111089081e-13)
(-0.01061601399 0.04880816865 2.08499884e-13)
(-0.01257358227 0.07157662831 3.056721543e-13)
(-0.01261130344 0.07077881758 3.063382881e-13)
(-0.0125257966 0.07636369418 3.305133944e-13)
(-0.01246039527 0.07706422312 3.290978601e-13)
(-0.01005091223 0.08407447916 0)
(-0.01006419015 0.08295635276 0)
(-0.008876896884 0.08294150083 0)
(-0.008870364362 0.08350037055 0)
(-0.008863987024 0.08405929425 0)
(-0.005315485166 0.08401491223 0)
(-0.005318254498 0.08373573072 0)
(-0.005024273086 0.08373224951 0)
(-0.005021530744 0.08401135343 0)
(0 0 0)
(0 0 0)
(0 0 0)
(0 0 0)
(0 0 0)
(0 0 0)
(0 0 0)
(0 0 0)
(0 0 0)
(0 0 0)
(0 0 0)
(0 0 0)
(0 0 0)
(0 0 0)
(-0.0006968325186 0.002039689436 9.492406861e-15)
(-0.0007874724599 0.0023383709 1.071365219e-14)
(-0.0008414608448 0.002534365796 1.144917494e-14)
(-0.003390994616 0.01121751098 5.066780329e-14)
(-0.003281957145 0.01070354605 4.904410211e-14)
(-0.004892220927 0.01677537597 7.684131109e-14)
(-0.005022841199 0.01747053941 7.890910148e-14)
(-0.009889754636 0.04063824984 1.833949659e-13)
(-0.009729204603 0.03940536486 1.803696081e-13)
(-0.01099016526 0.04736365615 2.167571678e-13)
(-0.01114733186 0.04874405436 2.199351812e-13)
(-0.0128360397 0.0695217021 3.135824933e-13)
(-0.01272888694 0.06792333286 3.107514246e-13)
(-0.01254243709 0.07272770896 3.327477183e-13)
(-0.01262139309 0.07429342997 3.3512082e-13)
(-0.009972802714 0.07958930499 0)
(-0.009987329871 0.07847101296 0)
(-0.008796719025 0.07845554635 0)
(-0.008789457134 0.07901456248 0)
(-0.008782191868 0.07957383838 0)
(-0.005210411284 0.07952743921 0)
(-0.00521767655 0.07896816332 0)
(-0.004622397103 0.07896043035 0)
(-0.004618762783 0.07924019818 0)
(-0.004615131838 0.07951970625 0)
(-0.004912771561 0.07952357273 0)
(0 0 0)
(0 0 0)
(0 0 0)
(0 0 0)
(0 0 0)
(0 0 0)
(0 0 0)
(0 0 0)
(0 0 0)
(0 0 0)
(0 0 0)
(0 0 0)
(0 0 0)
(0 0 0)
(-0.0001627839938 0.0004489324531 2.220446049e-15)
(-0.0002953596914 0.0008270461446 4.024558464e-15)
(-0.0004387913864 0.001247235584 5.967448757e-15)
(-0.002515206557 0.007852126448 3.759492717e-14)
(-0.002149186088 0.006609983835 3.212707878e-14)
(-0.003498161925 0.01131188945 5.496991751e-14)
(-0.003956578526 0.01298650924 6.215861159e-14)
(-0.008525471633 0.03304326039 1.580402476e-13)
(-0.007905243012 0.03018646738 1.465771948e-13)
(-0.009160298358 0.03721249954 1.806471639e-13)
(-0.009789413804 0.04036547657 1.930122728e-13)
(-0.0118162803 0.06027725862 2.881306305e-13)
(-0.01129691439 0.05676551692 2.75474088e-13)
(-0.01136296844 0.06201010936 3.009259508e-13)
(-0.01180674727 0.06541851375 3.127081927e-13)
(-0.009919122312 0.07430281253 3.552991235e-13)
(-0.009763992044 0.07198577552 3.494288192e-13)
(-0.008776999411 0.07335392885 3.561317907e-13)
(-0.008834856348 0.07505540357 3.589628594e-13)
(-0.005268526661 0.07505375156 0)
(-0.005283057192 0.07393519977 0)
(-0.004092472323 0.07391973349 0)
(-0.004077941792 0.07503828529 0)
(-0.004673247214 0.07504601859 0)
(0 0 0)
(0 0 0)
(0 0 0)
(0 0 0)
(0 0 0)
(0 0 0)
(0 0 0)
(0 0 0)
(0 0 0)
(0 0 0)
(0 0 0)
(0 0 0)
(0 0 0)
(0 0 0)
(0 0 0)
(0 0 0)
(-3.998651164e-06 1.068909654e-05 5.551115123e-17)
(-0.0009566005628 0.002809645009 1.432187702e-14)
(-0.0006005871717 0.001736280109 8.978928712e-15)
(-0.001396299324 0.004245297843 2.19685381e-14)
(-0.001917465424 0.005922342844 3.014255512e-14)
(-0.005565484211 0.02030868138 1.03334008e-13)
(-0.004691414861 0.01685698934 8.718026301e-14)
(-0.005795777821 0.02215984701 1.145750161e-13)
(-0.006728930647 0.02612516745 1.329075738e-13)
(-0.009085664589 0.0436358544 2.21905827e-13)
(-0.008159632265 0.03860219842 1.995070775e-13)
(-0.008497547672 0.04365628555 2.255973186e-13)
(-0.009367107495 0.04885167764 2.484124018e-13)
(-0.008643724683 0.06082454967 3.093358902e-13)
(-0.008040697823 0.05573916211 2.880751193e-13)
(-0.007457214337 0.05854859476 3.026190409e-13)
(-0.007959642888 0.06344044238 3.226863221e-13)
(-0.005093150882 0.06768218108 3.444466934e-13)
(-0.004849571624 0.06346823579 3.282096817e-13)
(-0.003803579023 0.06410621661 3.315819841e-13)
(-0.003983723316 0.06817654628 3.470279619e-13)
(0 0 0)
(0 0 0)
(0 0 0)
(0 0 0)
(0 0 0)
(0 0 0)
(0 0 0)
(0 0 0)
(0 0 0)
(0 0 0)
(0 0 0)
(0 0 0)
(0 0 0)
(0 0 0)
(0 0 0)
(0 0 0)
(0 0 0)
(-3.510505601e-06 9.660883464e-06 5.551115123e-17)
(0 0 0)
(-3.614947052e-05 0.0001029022146 5.689893001e-16)
(-0.0002136176683 0.0006184839273 3.358424649e-15)
(-0.002153230917 0.007377374505 4.010680676e-14)
(-0.001436173396 0.004840438481 2.677025268e-14)
(-0.002137415519 0.007671074947 4.242439733e-14)
(-0.00298004537 0.01086997368 5.90777427e-14)
(-0.005088438518 0.02300142911 1.24983357e-13)
(-0.004061670609 0.01807866059 9.993395e-14)
(-0.004491956844 0.02173016536 1.201122535e-13)
(-0.005518055197 0.02710172194 1.472433286e-13)
(-0.005703407175 0.03785896019 2.056826931e-13)
(-0.004825152699 0.03158022116 1.74554815e-13)
(-0.004609764648 0.03420839995 1.890848589e-13)
(-0.005404093668 0.04065440695 2.208788707e-13)
(-0.003662579132 0.04608765445 2.504940699e-13)
(-0.003167813798 0.03941644662 2.179367797e-13)
(-0.00249681486 0.04018663303 2.22238894e-13)
(-0.002884926311 0.04687700957 2.548239397e-13)
(0 0 0)
(0 0 0)
(0 0 0)
(0 0 0)
(0 0 0)
(0 0 0)
(0 0 0)
(0 0 0)
(0 0 0)
(0 0 0)
(0 0 0)
(0 0 0)
(0 0 0)
(0 0 0)
(0 0 0)
(0 0 0)
(0 0 0)
(0 0 0)
(0 0 0)
(0 0 0)
(0 0 0)
(-9.275057428e-05 0.0002968511796 1.734723476e-15)
(0 0 0)
(-6.74232135e-05 0.0002258552175 1.33226763e-15)
(-0.0003341729425 0.001139731581 6.64746036e-15)
(-0.001422612933 0.006033832936 3.519406988e-14)
(-0.0007940729428 0.003311077958 1.967870311e-14)
(-0.001069055177 0.004852048944 2.882416528e-14)
(-0.001759661031 0.00812041016 4.7351012e-14)
(-0.002294704031 0.01438695204 8.38912273e-14)
(-0.001583641863 0.009780376671 5.809241976e-14)
(-0.001604642836 0.01126576206 6.691869281e-14)
(-0.002274970414 0.01620280806 9.44799794e-14)
(-0.001657173036 0.01998561821 1.165595398e-13)
(-0.001208716727 0.01442235704 8.568146193e-14)
(-0.0009574002464 0.01491567931 8.860967515e-14)
(-0.001309494922 0.02056837042 1.199734756e-13)
(0 0 0)
(0 0 0)
(0 0 0)
(0 0 0)
(0 0 0)
(0 0 0)
(0 0 0)
(0 0 0)
(0 0 0)
(0 0 0)
(0 0 0)
(0 0 0)
(0 0 0)
(0 0 0)
(0 0 0)
(0 0 0)
(0 0 0)
(0 0 0)
(0 0 0)
(0 0 0)
(0 0 0)
(0 0 0)
(0 0 0)
(0 0 0)
(0 0 0)
(0 0 0)
(0 0 0)
(0 0 0)
(-1.042739258e-05 4.482563159e-05 2.775557562e-16)
(-0.0001866792768 0.001096676025 6.89726054e-15)
(-2.103338296e-05 0.0001212560396 7.771561172e-16)
(-4.592285912e-05 0.0003016866701 1.929012505e-15)
(-0.0002362124396 0.001580574206 9.93649607e-15)
(-0.0002415944218 0.002774300875 1.745825706e-14)
(-7.840891933e-05 0.0008859270912 5.689893001e-15)
(-6.712767893e-05 0.0009981496698 6.411537967e-15)
(-0.0001973476591 0.002978262995 1.873501354e-14)
(0 0 0)
(0 0 0)
(0 0 0)
(0 0 0)
(0 0 0)
(0 0 0)
(0 0 0)
(0 0 0)
(0 0 0)
(0 0 0)
(0 0 0)
(0 0 0)
(0 0 0)
(0 0 0)
(0 0 0)
(0 0 0)
(0 0 0)
(0 0 0)
(0 0 0)
(0 0 0)
(0 0 0)
(0 0 0)
(0 0 0)
(0 0 0)
(0 0 0)
(0 0 0)
(0 0 0)
(0 0 0)
(0 0 0)
(0 0 0)
(0 0 0)
(0 0 0)
(0 0 0)
(0 0 0)
(0 0 0)
(0 0 0)
(0 0 0)
(0 0 0)
(0 0 0)
(0 0 0)
(0 0 0)
(0 0 0)
(0 0 0)
(0 0 0)
(0 0 0)
(0 0 0)
(0 0 0)
(0 0 0)
(0 0 0)
(0 0 0)
(0 0 0)
(0 0 0)
(0 0 0)
(0 0 0)
(0 0 0)
(0 0 0)
(0 0 0)
(0 0 0)
(0 0 0)
(0 0 0)
(0 0 0)
(0 0 0)
(0 0 0)
(0 0 0)
(0 0 0)
(0 0 0)
(0 0 0)
(0 0 0)
(0 0 0)
(0 0 0)
(0 0 0)
(0 0 0)
(0 0 0)
(0 0 0)
(0 0 0)
(0 0 0)
(0 0 0)
(0 0 0)
(0 0 0)
(0 0 0)
(0 0 0)
(0 0 0)
(0 0 0)
(0 0 0)
(0 0 0)
(0 0 0)
(0 0 0)
(0 0 0)
(0 0 0)
(0 0 0)
(0 0 0)
(0 0 0)
(0 0 0)
(0 0 0)
(0 0 0)
(0 0 0)
(0 0 0)
(0 0 0)
(0 0 0)
(0 0 0)
(0 0 0)
(0 0 0)
(0 0 0)
(0 0 0)
(0 0 0)
(0 0 0)
(0 0 0)
(0 0 0)
(0 0 0)
(0 0 0)
(0 0 0)
(0 0 0)
(0 0 0)
(0 0 0)
(0 0 0)
(0 0 0)
(0 0 0)
(0 0 0)
(0 0 0)
(0 0 0)
(0 0 0)
(0 0 0)
(0 0 0)
(0 0 0)
(0 0 0)
(0 0 0)
(0 0 0)
(0 0 0)
(0 0 0)
(0 0 0)
(0 0 0)
(0 0 0)
(0 0 0)
(0 0 0)
(0 0 0)
(0 0 0)
(0 0 0)
(0 0 0)
(0 0 0)
(0 0 0)
(0 0 0)
(0 0 0)
(0 0 0)
(0 0 0)
(0 0 0)
(0 0 0)
(0 0 0)
(0 0 0)
(0 0 0)
(0 0 0)
(0 0 0)
(0 0 0)
(0 0 0)
(0 0 0)
(0 0 0)
(0 0 0)
(0 0 0)
(0 0 0)
(0 0 0)
(0 0 0)
(0 0 0)
(0 0 0)
(0 0 0)
(0 0 0)
(0 0 0)
(0 0 0)
(0 0 0)
(0 0 0)
(0 0 0)
(0 0 0)
(0 0 0)
(0 0 0)
(0 0 0)
(0 0 0)
(0 0 0)
(0 0 0)
(0 0 0)
(0 0 0)
(0 0 0)
(0 0 0)
(0 0 0)
(0 0 0)
(0 0 0)
(0 0 0)
(0 0 0)
(0 0 0)
(0 0 0)
(0 0 0)
(0 0 0)
(0 0 0)
(0 0 0)
(0 0 0)
(0 0 0)
(0 0 0)
(0 0 0)
(0 0 0)
(0 0 0)
(0 0 0)
(0 0 0)
(0 0 0)
(0 0 0)
(0 0 0)
(0 0 0)
(0 0 0)
(0 0 0)
(0 0 0)
(0 0 0)
(0 0 0)
(0 0 0)
(0 0 0)
(0 0 0)
(0 0 0)
(0 0 0)
(0 0 0)
(0 0 0)
(0 0 0)
(0 0 0)
(0 0 0)
(0 0 0)
(0 0 0)
(0 0 0)
(0 0 0)
(0 0 0)
(0 0 0)
(0 0 0)
(0 0 0)
(0 0 0)
(0 0 0)
(0 0 0)
(0 0 0)
(0 0 0)
(0 0 0)
(0 0 0)
(0 0 0)
(0 0 0)
(0 0 0)
(0 0 0)
(0 0 0)
(0 0 0)
(0 0 0)
(0 0 0)
(0 0 0)
(0 0 0)
(0 0 0)
(0 0 0)
(0 0 0)
(0 0 0)
(0 0 0)
(0 0 0)
(0 0 0)
(0 0 0)
(0 0 0)
(0 0 0)
(0 0 0)
(0 0 0)
(0 0 0)
(0 0 0)
(0 0 0)
(0 0 0)
(0 0 0)
(0 0 0)
(0 0 0)
(0 0 0)
(0 0 0)
(0 0 0)
(0 0 0)
(0 0 0)
(0 0 0)
(0 0 0)
(0 0 0)
(0 0 0)
(0 0 0)
(0 0 0)
(0 0 0)
(0 0 0)
(0 0 0)
(0 0 0)
(0 0 0)
(0 0 0)
(0 0 0)
(0 0 0)
(0 0 0)
(0 0 0)
(0 0 0)
(0 0 0)
(0 0 0)
(0 0 0)
(0 0 0)
(0 0 0)
(0 0 0)
(0 0 0)
(0 0 0)
(0 0 0)
(0 0 0)
(0 0 0)
(0 0 0)
(0 0 0)
(0 0 0)
(0 0 0)
(0 0 0)
(0 0 0)
(0 0 0)
(0 0 0)
(0 0 0)
(0 0 0)
(0 0 0)
(0 0 0)
(0 0 0)
(0 0 0)
(0 0 0)
(0 0 0)
(0 0 0)
(0 0 0)
(0 0 0)
(0 0 0)
(0 0 0)
(0 0 0)
(0 0 0)
(0 0 0)
(0 0 0)
(0 0 0)
(0 0 0)
(0 0 0)
(0 0 0)
(0 0 0)
(0 0 0)
(0 0 0)
(0 0 0)
(0 0 0)
(0 0 0)
(0 0 0)
(0 0 0)
(0 0 0)
(0 0 0)
(0 0 0)
(0 0 0)
(0 0 0)
(0 0 0)
(0 0 0)
(0 0 0)
(0 0 0)
(0 0 0)
(0 0 0)
(0 0 0)
(0 0 0)
(0 0 0)
(0 0 0)
(0 0 0)
(0 0 0)
(0 0 0)
(0 0 0)
(0 0 0)
(0 0 0)
(0 0 0)
(0 0 0)
(0 0 0)
(0 0 0)
(0 0 0)
(0 0 0)
(0 0 0)
(0 0 0)
(0 0 0)
(0 0 0)
(0 0 0)
(0 0 0)
(0 0 0)
(0 0 0)
(0 0 0)
(0 0 0)
(0 0 0)
(0 0 0)
(0 0 0)
(0 0 0)
(0 0 0)
(0 0 0)
(0 0 0)
(0 0 0)
(0 0 0)
(0 0 0)
(0 0 0)
(0 0 0)
(0 0 0)
(0 0 0)
(0 0 0)
(0 0 0)
(0 0 0)
(0 0 0)
(0 0 0)
(0 0 0)
(0 0 0)
(0 0 0)
(0 0 0)
(0 0 0)
(0 0 0)
(0 0 0)
(0 0 0)
(0 0 0)
(0 0 0)
(0 0 0)
(0 0 0)
(0 0 0)
(0 0 0)
(0 0 0)
(0 0 0)
(0 0 0)
(0 0 0)
(0 0 0)
(0 0 0)
(0 0 0)
(0 0 0)
(0 0 0)
(0 0 0)
(0 0 0)
(0 0 0)
(0 0 0)
(0 0 0)
(0 0 0)
(0 0 0)
(0 0 0)
(0 0 0)
(0 0 0)
(0 0 0)
(0 0 0)
(0 0 0)
(0 0 0)
(0 0 0)
(0 0 0)
(0 0 0)
(0 0 0)
(0 0 0)
(0 0 0)
(0 0 0)
(0 0 0)
(0 0 0)
(0 0 0)
(0 0 0)
(0 0 0)
(0 0 0)
(0 0 0)
(0 0 0)
(0 0 0)
(0 0 0)
(0 0 0)
(0 0 0)
(0 0 0)
(0 0 0)
(0 0 0)
(0 0 0)
(0 0 0)
(0 0 0)
(0 0 0)
(0 0 0)
(0 0 0)
(0 0 0)
(0 0 0)
(0 0 0)
(0 0 0)
(0 0 0)
(0 0 0)
(0 0 0)
(0 0 0)
(0 0 0)
(0 0 0)
(0 0 0)
(0 0 0)
(0 0 0)
(0 0 0)
(0 0 0)
(0 0 0)
(0 0 0)
(0 0 0)
(0 0 0)
(0 0 0)
(0 0 0)
(0 0 0)
(0 0 0)
(0 0 0)
(0 0 0)
(0 0 0)
(0 0 0)
(0 0 0)
(0 0 0)
(0 0 0)
(0 0 0)
(0 0 0)
(0 0 0)
(0 0 0)
(0 0 0)
(0 0 0)
(0 0 0)
(0 0 0)
(0 0 0)
(0 0 0)
(0 0 0)
(0 0 0)
(0 0 0)
(0 0 0)
(0 0 0)
(0 0 0)
(0 0 0)
(0 0 0)
(0 0 0)
(0 0 0)
(0 0 0)
(0 0 0)
(0 0 0)
(0 0 0)
(0 0 0)
(0 0 0)
(0 0 0)
(0 0 0)
(0 0 0)
(0 0 0)
(0 0 0)
(0 0 0)
(0 0 0)
(0 0 0)
(0 0 0)
(0 0 0)
(0 0 0)
(0 0 0)
(0 0 0)
(0 0 0)
(0 0 0)
(0 0 0)
(0 0 0)
(0 0 0)
(0 0 0)
(0 0 0)
(0 0 0)
(0 0 0)
(0 0 0)
(0 0 0)
(0 0 0)
(0 0 0)
(0 0 0)
(0 0 0)
(0 0 0)
(0 0 0)
(0 0 0)
(0 0 0)
(0 0 0)
(0 0 0)
(0 0 0)
(0 0 0)
(0 0 0)
(0 0 0)
(0 0 0)
(0 0 0)
(0 0 0)
(0 0 0)
(0 0 0)
(0 0 0)
(0 0 0)
(0 0 0)
(0 0 0)
(0 0 0)
(0 0 0)
(0 0 0)
(0 0 0)
(0 0 0)
(0 0 0)
(0 0 0)
(0 0 0)
(0 0 0)
(0 0 0)
(0 0 0)
(0 0 0)
(0 0 0)
(0 0 0)
(0 0 0)
(0 0 0)
(0 0 0)
(0 0 0)
(0 0 0)
(0 0 0)
(0 0 0)
(0 0 0)
(0 0 0)
(0 0 0)
(0 0 0)
(0 0 0)
(0 0 0)
(0 0 0)
(0 0 0)
(0 0 0)
(0 0 0)
(0 0 0)
(0 0 0)
(0 0 0)
(0 0 0)
(0 0 0)
(0 0 0)
(0 0 0)
(0 0 0)
(0 0 0)
(0 0 0)
(0 0 0)
(0 0 0)
(0 0 0)
(0 0 0)
(0 0 0)
(0 0 0)
(0 0 0)
(0 0 0)
(0 0 0)
(0 0 0)
(0 0 0)
(0 0 0)
(0 0 0)
(0 0 0)
(0 0 0)
(0 0 0)
(0 0 0)
(0 0 0)
(0 0 0)
(0 0 0)
(0 0 0)
(0 0 0)
(0 0 0)
(0 0 0)
(0 0 0)
(0 0 0)
(0 0 0)
(0 0 0)
(0 0 0)
(0 0 0)
(0 0 0)
(0 0 0)
(-0.005018809991 0.08429079538 0)
(-0.005312738437 0.08429435384 0)
(-0.004909137241 0.07980334056 0)
(-0.005206776964 0.07980720705 0)
(-0.008857814125 0.08461848041 0)
(-0.008851537319 0.08517766523 0)
(-0.01003804859 0.08519271485 0)
(-0.005310040624 0.08457402991 0)
(-0.005898883613 0.08458123759 0)
(-0.005904640887 0.08402204603 0)
(-0.005293527522 0.08625119876 0)
(-0.008774926602 0.08013311428 0)
(-0.008855803323 0.0806772711 0)
(-0.01004462853 0.08069419543 0)
(-0.005203146018 0.08008671511 0)
(-0.005798451441 0.08009444842 0)
(-0.005805716707 0.07953517252 0)
(-0.005910394449 0.08346314021 0)
(-0.005321134822 0.08345600506 0)
(-0.00533943997 0.08177888547 0)
(-0.005045303712 0.0817753243 0)
(-0.005042063428 0.0820547595 0)
(-0.005336199349 0.08205834664 0)
(-0.002982906419 0.08175027349 0)
(-0.002972203179 0.08188900273 0)
(-0.003124453096 0.0818912923 0)
(-0.003131975994 0.08175218399 0)
(-0.002946340594 0.08398488934 0)
(-0.003104625681 0.08398759506 0)
(-0.003109029701 0.08384857614 0)
(-0.002953033725 0.08384605604 0)
(-0.004665981949 0.07560529449 0)
(-0.005261261395 0.07561302746 0)
(-0.002942733851 0.08412433431 0)
(-0.003102396945 0.08412716186 0)
(-0.005296276614 0.08597157532 0)
(-0.005002348505 0.08596799088 0)
(-0.002790079657 0.08398236579 0)
(-0.002783581822 0.08412156536 0)
(-0.002829727842 0.07949807184 0)
(-0.002826611258 0.07978018468 0)
(-0.00297408007 0.07978132095 0)
(-0.00312252196 0.07978195023 0)
(-0.003126767239 0.0795011511 0)
(-0.003140639837 0.08161324639 0)
(-0.002994149973 0.08161155126 0)
(-0.005342783149 0.08149952955 0)
(-0.005048620239 0.08149602 0)
(-0.002866095826 0.08161048534 0)
(-0.002853817156 0.08174909019 0)
(-0.002532807671 0.0794942147 0)
(-0.002531538021 0.07977635154 0)
(-0.00267990356 0.07977905831 0)
(-0.00279958595 0.08384377689 0)
(-0.002840833611 0.08188755598 0)
(-0.001424710966 0.082776857 0)
(-0.001272703408 0.08277431077 0)
(-0.001265825137 0.08291259606 0)
(-0.00141663224 0.08291515268 0)
(-0.003011819932 0.08287172793 0)
(-0.003149351115 0.08287265715 0)
(-0.003151943185 0.08273312106 0)
(-0.003016877416 0.08273240573 0)
(-0.004154680427 0.08288298887 0)
(-0.004157581666 0.08260365319 0)
(-0.00386666313 0.08260039364 0)
(-0.003863892111 0.08287970503 0)
(-0.004166994513 0.0817650578 0)
(-0.003876024023 0.08176179758 0)
(-0.003874157947 0.08190144703 0)
(-0.003872603927 0.08204107455 0)
(-0.004163702613 0.08204446635 0)
(-0.004142937489 0.08400095333 0)
(-0.004145783063 0.08372190272 0)
(-0.00385421545 0.08371860876 0)
(-0.003851137099 0.0839975784 0)
(-0.003860783735 0.08315898605 0)
(-0.004151753549 0.08316229823 0)
(-0.00300440364 0.08301062978 0)
(-0.003144607374 0.08301182755 0)
(-0.002973328363 0.08510678642 0)
(-0.003116256939 0.08510822744 0)
(-0.003119163766 0.0849684616 0)
(-0.002977844389 0.08496714541 0)
(-0.004131809891 0.08511954934 0)
(-0.004134664576 0.08483979736 0)
(-0.003843123614 0.08483645177 0)
(-0.003840217313 0.0851161771 0)
(-0.003848390707 0.08427699403 0)
(-0.004140191098 0.08428036897 0)
(-0.00412321143 0.08595745381 0)
(-0.003831152286 0.08595399758 0)
(-0.003837209468 0.08539571924 0)
(-0.004128932266 0.08539906719 0)
(-0.002967821382 0.08524631063 0)
(-0.003112649757 0.08524790623 0)
(-0.00283158071 0.08510543869 0)
(-0.002823519657 0.08524477384 0)
(-0.002838645274 0.08496601265 0)
(-0.004170440248 0.08148580714 0)
(-0.003879754151 0.08148265453 0)
(-0.003877785181 0.0816222247 0)
(-0.004118835217 0.08061433261 0)
(-0.003826737576 0.08062183984 0)
(-0.00386193767 0.08077815694 0)
(-0.003878952847 0.08092233853 0)
(-0.004169951351 0.08092144217 0)
(-0.002947308111 0.08061161075 0)
(-0.003000032513 0.08076911679 0)
(-0.003138674622 0.08076852757 0)
(-0.003089426945 0.08060758524 0)
(-0.002875085112 0.08064769542 0)
(-0.002910489074 0.08077431892 0)
(-0.001488857532 0.08054769171 0)
(-0.001484787597 0.08068679291 0)
(-0.001625181846 0.08068552496 0)
(-0.001629341686 0.08054650287 0)
(-0.001443186838 0.08165739516 0)
(-0.001588029723 0.08165787377 0)
(-0.001591721851 0.08151845589 0)
(-0.001447395124 0.08151824379 0)
(-0.002875892078 0.08287097542 0)
(-0.002865442835 0.08300955207 0)
(-0.001564030543 0.08292631668 0)
(-0.00160321001 0.08281170396 0)
(-0.00143930326 0.08179655075 0)
(-0.001585201265 0.08179740679 0)
(-0.001565969206 0.0826346795 0)
(-0.001424729235 0.08263565067 0)
(-0.002885104364 0.08273201896 0)
(-0.001275304928 0.08263404733 0)
(-0.001299845769 0.08165750764 0)
(-0.001295029161 0.08179628738 0)
(-0.008825780088 0.07621844276 0)
(-0.009990069519 0.07603919878 3.582550923e-13)
(-0.005253999504 0.07617204359 0)
(-0.005849304927 0.0761797769 0)
(-0.006444610349 0.07618751021 0)
(-0.006459137506 0.07506921818 0)
(-0.005812981973 0.07897589662 0)
(-0.005239468972 0.07729059539 0)
(-0.004644189526 0.07728286242 0)
(-0.00463692426 0.07784213832 0)
(-0.005232203707 0.07784987129 0)
(-0.002858291441 0.07725966274 0)
(-0.002851026175 0.07781893863 0)
(-0.003446313415 0.0778266717 0)
(-0.00345357868 0.07726739581 0)
(-0.00313050884 0.07922112485 0)
(-0.002833052774 0.07921752056 0)
(-0.002980377156 0.08230997464 0)
(-0.003129977226 0.08231204792 0)
(-0.003121442889 0.08217101628 0)
(-0.002965729383 0.08216855181 0)
(-0.003577708651 0.08231794212 0)
(-0.003578283997 0.08217765235 0)
(-0.003429100463 0.08217571439 0)
(-0.003430160292 0.08231612931 0)
(-0.003583626171 0.08175841488 0)
(-0.003434987808 0.08175650998 0)
(-0.003431668731 0.08189601065 0)
(-0.003581241238 0.08189800563 0)
(-0.002535594887 0.07921365644 0)
(-0.002262993811 0.07725192953 0)
(-0.002255728546 0.07781120543 0)
(-0.002950310903 0.08566385716 0)
(-0.002798599612 0.08566170449 0)
(-0.002790806322 0.08580062742 0)
(-0.002944814516 0.08580296581 0)
(-0.002967787344 0.08454633091 0)
(-0.002954766513 0.08440526696 0)
(-0.002801853856 0.08440299476 0)
(-0.00282586305 0.08454498088 0)
(-0.002971117589 0.08045237091 0)
(-0.002778319096 0.0804212873 0)
(-0.004008670438 0.08035075353 0)
(-0.003710511183 0.08034688029 0)
(-0.003734590359 0.08047527928 0)
(-0.004019800438 0.0795119726 0)
(-0.003722079411 0.07950836487 0)
(-0.003718292606 0.07978787091 0)
(-0.004016088188 0.07979173942 0)
(-0.003586321474 0.08161893209 0)
(-0.003438876684 0.08161714661 0)
(-0.003594285596 0.08119985858 0)
(-0.003450422876 0.08119832749 0)
(-0.003447152377 0.0813380886 0)
(-0.00359200187 0.08133965849 0)
(-0.003028277031 0.08119487012 0)
(-0.003017907099 0.08133394145 0)
(-0.003158828462 0.08133509658 0)
(-0.003166380711 0.08119572884 0)
(-0.001305010127 0.08151875841 0)
(-0.001473457857 0.08082314975 0)
(-0.002904863786 0.08119415028 0)
(-0.002892811246 0.08133314778 0)
(-0.00204186409 0.08110156709 0)
(-0.002034315591 0.08123924612 0)
(-0.002172750707 0.08124559113 0)
(-0.00221490637 0.08113447254 0)
(-0.001638827345 0.07948130241 0)
(-0.001635457986 0.07976107369 0)
(-0.001933862465 0.07976546973 0)
(-0.001936762425 0.07948543254 0)
(-0.001646153797 0.0804115163 0)
(-0.001505329554 0.08041228502 0)
(-0.002978936666 0.08342846265 0)
(-0.002833145235 0.08342680258 0)
(-0.002821961122 0.08356614912 0)
(-0.002970082888 0.08356802133 0)
(-0.002817110416 0.08215755382 0)
(-0.002806127175 0.08227463727 0)
(-0.001414338652 0.08335911168 0)
(-0.001375925666 0.08347272109 0)
(-0.001380045579 0.08318337259 0)
(-0.003574790249 0.08287659898 0)
(-0.003576240362 0.0827369701 0)
(-0.003432792592 0.08273549636 0)
(-0.003431368118 0.08287515155 0)
(-0.003431668135 0.08245605642 0)
(-0.003577088776 0.08245765972 0)
(-0.003002215147 0.08245169873 0)
(-0.003141580512 0.08245283364 0)
(-0.003126881792 0.08343033257 0)
(-0.003133010053 0.0832905826 0)
(-0.002987655028 0.0832889282 0)
(-0.00356703514 0.08343558272 0)
(-0.003569036498 0.08329551933 0)
(-0.003424083774 0.08329389613 0)
(-0.003421355408 0.0834339241 0)
(-0.003429219337 0.0830145635 0)
(-0.003573082057 0.08301609459 0)
(-0.002956067966 0.08552488179 0)
(-0.002806760082 0.08552291623 0)
(-0.00284099409 0.08468620214 0)
(-0.00297728619 0.08468711527 0)
(-0.003170014545 0.08105599843 0)
(-0.003034451509 0.08105556243 0)
(-0.003594803589 0.08105998377 0)
(-0.003451408785 0.08105843277 0)
(-0.003533008507 0.08061893349 0)
(-0.003385114698 0.08061571323 0)
(-0.003425709149 0.08077277591 0)
(-0.003571017447 0.08077502727 0)
(-0.002084178674 0.08055581493 0)
(-0.002064352038 0.08068865788 0)
(-0.002231094507 0.08069731919 0)
(-0.002293778679 0.08058012792 0)
(-0.002184794948 0.08096063243 0)
(-0.00204464218 0.08096211136 0)
(-0.002916041048 0.08105553112 0)
(-0.002015620686 0.08166516911 0)
(-0.002056610141 0.08155242455 0)
(-0.00188383994 0.0815195746 0)
(-0.001877555552 0.08165854311 0)
(-0.001895192084 0.08110049314 0)
(-0.00188999723 0.08123919002 0)
(-0.001462998349 0.08110051661 0)
(-0.001457197024 0.08123969924 0)
(-0.001600133839 0.081238906 0)
(-0.001604882539 0.08109955381 0)
(-0.002844087766 0.0832874529 0)
(-0.001482154719 0.08316407015 0)
(-0.001430620496 0.08221574482 0)
(-0.001577617884 0.08221677104 0)
(-0.001579689717 0.08207668258 0)
(-0.001432941704 0.08207565961 0)
(-0.001868992044 0.08179615699 0)
(-0.001974426721 0.08177845661 0)
(-0.001429434701 0.08235602666 0)
(-0.001577863093 0.082357695 0)
(-0.002875764832 0.08245177082 0)
(-0.003559286443 0.08399407291 0)
(-0.003560706193 0.08385478139 0)
(-0.0034134176 0.08385297197 0)
(-0.003411375087 0.08399220343 0)
(-0.003418600392 0.08357400368 0)
(-0.003564773341 0.08357569469 0)
(-0.003120674926 0.08357013348 0)
(-0.003114466162 0.08454808045 0)
(-0.003108314922 0.08440759938 0)
(-0.003554722742 0.0845533839 0)
(-0.003555475199 0.08441346017 0)
(-0.003408783731 0.08441168448 0)
(-0.003408783919 0.08455166995 0)
(-0.003409769114 0.08413183028 0)
(-0.003557472995 0.08413367108 0)
(-0.0026555119 0.08398051377 0)
(-0.002644257014 0.08411850838 0)
(-0.002633424994 0.08425035099 0)
(-0.002785601639 0.08426168099 0)
(-0.002945057257 0.08426447986 0)
(-0.00300606045 0.08147288966 0)
(-0.002879375167 0.08147204937 0)
(-0.002961264332 0.0837072687 0)
(-0.002810555399 0.08370515503 0)
(-0.002679277323 0.08370386536 0)
(-0.002666784735 0.08384233753 0)
(-0.002964571752 0.08202826551 0)
(-0.002828283843 0.08202542985 0)
(-0.001337069454 0.08358764978 0)
(-0.001272031634 0.08378262347 0)
(-0.003549532566 0.08511292058 0)
(-0.003551167553 0.08497306028 0)
(-0.00340637035 0.08497146509 0)
(-0.003404631457 0.08511132404 0)
(-0.003408550319 0.08469165238 0)
(-0.003553736833 0.08469327862 0)
(-0.003119085796 0.08468846368 0)
(-0.003101061735 0.08566594539 0)
(-0.003104869644 0.0855268148 0)
(-0.003542771991 0.08567134567 0)
(-0.003544399891 0.08553203087 0)
(-0.003398694521 0.08553034594 0)
(-0.003396755239 0.08566963071 0)
(-0.003402711066 0.08525115465 0)
(-0.003547845626 0.08525278021 0)
(-0.002690837338 0.08510418195 0)
(-0.002680344641 0.08524330364 0)
(-0.00266969224 0.08538231933 0)
(-0.002815138182 0.08538397492 0)
(-0.002961962469 0.08538572635 0)
(-0.002979946616 0.08482731716 0)
(-0.002843044405 0.08482637013 0)
(-0.00270924076 0.08482569717 0)
(-0.00270084235 0.08496500196 0)
(-0.003028022962 0.08091442823 0)
(-0.003163693616 0.08091457984 0)
(-0.003303430446 0.08091571959 0)
(-0.00328113022 0.08077037814 0)
(-0.003236686517 0.08061162865 0)
(-0.002446772673 0.08058273893 0)
(-0.002399766731 0.08072582905 0)
(-0.002529945173 0.08056656802 0)
(-0.002921458971 0.08091486258 0)
(-0.001609670236 0.08096079968 0)
(-0.001468314045 0.08096171738 0)
(-0.001898724978 0.080961333 0)
(-0.001932924304 0.08055288877 0)
(-0.001914679674 0.08068634983 0)
(-0.002751483592 0.08287026863 0)
(-0.002739401874 0.0830085123 0)
(-0.002727821637 0.08314715221 0)
(-0.002854853217 0.08314833476 0)
(-0.002996188517 0.08314962517 0)
(-0.001396459134 0.08304866663 0)
(-0.001522781968 0.08304700805 0)
(-0.001672563483 0.0826175138 0)
(-0.001713031217 0.08250393108 0)
(-0.001573220763 0.08249665887 0)
(-0.001426567616 0.0824955332 0)
(-0.003015811175 0.08259248435 0)
(-0.002888808571 0.08259247133 0)
(-0.002776171991 0.08259396996 0)
(-0.002764007454 0.08273158901 0)
(-0.001283265071 0.08221448013 0)
(-0.001280678431 0.08235419816 0)
(-0.002629485875 0.08593758194 0)
(-0.002639004113 0.08579847357 0)
(-0.002506205597 0.08579682639 0)
(-0.00249562006 0.08593589492 0)
(-0.002648803705 0.0856597066 0)
(-0.002516756823 0.0856581991 0)
(-0.002697299692 0.08454471375 0)
(-0.002623811834 0.08436716646 0)
(-0.002607987817 0.08455909017 0)
(-0.003435379562 0.08047035314 0)
(-0.003283329499 0.08046707889 0)
(-0.003415501797 0.08006453198 0)
(-0.003265603398 0.08006362397 0)
(-0.003261602517 0.08020360942 0)
(-0.003412309565 0.08020426813 0)
(-0.002822287079 0.08006825746 0)
(-0.002814590823 0.08021391073 0)
(-0.002959704529 0.08020774172 0)
(-0.002967062604 0.0800657214 0)
(-0.003149822874 0.08147434151 0)
(-0.003296255252 0.08147606187 0)
(-0.003302458405 0.08133654671 0)
(-0.003307467986 0.08119691211 0)
(-0.002023759985 0.08137621057 0)
(-0.002129220843 0.08135809483 0)
(-0.002684388333 0.08007062305 0)
(-0.002692791153 0.08022557878 0)
(-0.002234938477 0.08005361266 0)
(-0.002238577335 0.08019629545 0)
(-0.002394545493 0.08020455699 0)
(-0.00238757044 0.08005949257 0)
(-0.002299318548 0.0804324721 0)
(-0.002139005892 0.08043324746 0)
(-0.002704217364 0.0834255954 0)
(-0.002692022762 0.08356492882 0)
(-0.002551297278 0.08524209491 0)
(-0.002539632127 0.08538107146 0)
(-0.00256288811 0.08510303944 0)
(-0.002659089971 0.08552107587 0)
(-0.002527994742 0.08551971063 0)
(-0.002711937514 0.08468590263 0)
(-0.002597401474 0.08468722069 0)
(-0.002586020417 0.08482492787 0)
(-0.002574455562 0.08496398367 0)
(-0.003309415029 0.08105702988 0)
(-0.002057897052 0.08082655896 0)
(-0.002202394888 0.08082679925 0)
(-0.002339169698 0.08083195355 0)
(-0.002290372363 0.08094254418 0)
(-0.001886066015 0.08137881264 0)
(-0.001740636766 0.08137887202 0)
(-0.001737774468 0.08151921002 0)
(-0.001733548235 0.08165854302 0)
(-0.00271609765 0.08328625791 0)
(-0.001730298604 0.08193849771 0)
(-0.001724653106 0.08207708481 0)
(-0.001863454962 0.08208379832 0)
(-0.00190415702 0.0819717775 0)
(-0.001716546347 0.08221493845 0)
(-0.001822244635 0.08219734541 0)
(-0.001730960009 0.08179818309 0)
(-0.001752710001 0.08239148127 0)
(-0.002787308968 0.08246665199 0)
(-0.004387172123 0.01626024355 6.861178292e-14)
(-0.002833517016 0.009987947025 4.216071936e-14)
(-0.009234655257 0.04044333377 1.705302566e-13)
(-0.00770353172 0.03181504616 1.341843303e-13)
(-0.007638467749 0.03112541556 1.330185961e-13)
(-0.01054760001 0.04916073282 2.072508831e-13)
(-0.01251541683 0.07225100031 3.044925423e-13)
(-0.01223127334 0.06540598012 2.75668377e-13)
(-0.0122953633 0.06484175257 2.769173779e-13)
(-0.01241063152 0.07784936836 3.280986594e-13)
(-0.01112392625 0.08444712631 3.559652573e-13)
(-0.0111500092 0.08343645982 3.563815909e-13)
(-0.01002565556 0.08631072283 0)
(-0.008839481987 0.0862956776 0)
(-0.007654789079 0.08628065159 0)
(-0.008246901744 0.08628816156 0)
(-0.004941861656 0.01737091209 7.738254482e-14)
(-0.00331465651 0.01108245156 4.937716902e-14)
(-0.009831407389 0.04080909878 1.816463646e-13)
(-0.008314620712 0.03255416627 1.449396159e-13)
(-0.008385729956 0.03249711632 1.466882171e-13)
(-0.007960523584 0.03199451811 1.385697113e-13)
(-0.01110557991 0.0490461692 2.182698466e-13)
(-0.01285392489 0.07025705123 3.125694148e-13)
(-0.01265529442 0.06408861978 2.851330283e-13)
(-0.01265759654 0.06349707638 2.864236626e-13)
(-0.01236408684 0.06429130333 2.782496455e-13)
(-0.01265808045 0.0751618619 3.34399175e-13)
(-0.01119212463 0.08041699868 3.578665142e-13)
(-0.01112638104 0.07934648152 3.580191699e-13)
(-0.0111770947 0.08242694403 3.568256801e-13)
(-0.01007829123 0.08183485954 0)
(-0.008890568163 0.08182309376 0)
(-0.008883637219 0.08238263381 0)
(-0.007704262682 0.08180820269 0)
(-0.007697463307 0.08236761455 0)
(-0.00829035527 0.08237513463 0)
(-0.008297232574 0.08181572379 0)
(-0.007678411249 0.0840442308 0)
(-0.008270965516 0.0840517465 0)
(-0.008277264587 0.08349284776 0)
(-0.007684580437 0.08348533037 0)
(-0.005326943712 0.08289684015 0)
(-0.005032885383 0.08289328 0)
(-0.005030009783 0.08317264199 0)
(-0.005324015821 0.08317622744 0)
(-0.004443735776 0.08316567553 0)
(-0.004446611038 0.08288633951 0)
(-0.004435205121 0.08400436032 0)
(-0.004437972765 0.08372530869 0)
(-0.00435021043 0.014490526 6.833422717e-14)
(-0.002834776478 0.008981237625 4.235500839e-14)
(-0.009041800226 0.03556619668 1.675881656e-13)
(-0.007563869946 0.02806459039 1.322830734e-13)
(-0.007069851889 0.02584743097 1.236510894e-13)
(-0.0082286971 0.03143374303 1.439126596e-13)
(-0.01030800869 0.04313828366 2.032263247e-13)
(-0.01222479714 0.06330704443 2.981503933e-13)