/*--------------------------------*- C++ -*----------------------------------*\
| =========                 |                                                 |
| \\      /  F ield         | OpenFOAM: The Open Source CFD Toolbox           |
|  \\    /   O peration     | Version:  v2012                                 |
|   \\  /    A nd           | Website:  www.openfoam.com                      |
|    \\/     M anipulation  |                                                 |
\*---------------------------------------------------------------------------*/
FoamFile
{
    version     2.0;
    format      ascii;
    class       surfaceVectorField;
    location    "1.34";
    object      Uf;
}
// * * * * * * * * * * * * * * * * * * * * * * * * * * * * * * * * * * * * * //

dimensions      [0 1 -1 0 0 0 0];


internalField   nonuniform List<vector> 
5975
(
(104.3611132 -29.05829853 -3.1631789e-19)
(103.6703661 -29.32385214 2.023368975e-19)
(103.6590058 -28.69160648 -5.266913489e-20)
(104.3603422 -28.54390741 -7.778751505e-20)
(103.4603235 -29.16468526 3.216753693e-20)
(107.6859259 -19.57282615 2.023302773e-19)
(108.3884919 -19.04419936 -4.066042097e-19)
(106.7830412 -18.09482913 -3.813400427e-19)
(107.6384111 -17.6859705 -2.701007528e-20)
(107.1096719 -19.25430917 -8.872204797e-20)
(108.4348041 -18.36963542 2.400520637e-19)
(107.8407776 -12.92631182 7.127571169e-19)
(107.4024941 -13.48040081 4.751542783e-19)
(106.757867 -12.82629616 6.705584273e-19)
(107.1460107 -12.36821243 3.63183097e-19)
(106.3902975 -9.261870211 0)
(106.1903949 -9.699435519 -3.846880868e-19)
(105.655359 -9.341774866 3.185564121e-19)
(105.8420113 -8.969484519 3.442132895e-19)
(104.8557202 -6.787127352 -5.120378508e-19)
(104.7757305 -7.133487075 2.260495107e-21)
(104.3397967 -6.914549383 -1.287644996e-20)
(104.4213799 -6.61428648 -4.705136901e-19)
(103.3775938 -5.262724327 -7.282626143e-20)
(103.3895892 -4.98665287 -3.766180836e-20)
(103.0172299 -5.111616461 -3.430434051e-20)
(103.0412687 -4.869533359 -6.499156737e-20)
(101.9723796 -3.509838196 -1.545334178e-20)
(101.9820811 -3.919805174 1.184006959e-20)
(101.4623513 -3.708967675 -3.299788304e-20)
(101.5028589 -3.374287811 -3.350868403e-20)
(101.1077769 -2.578631737 2.569515108e-22)
(101.099771 -2.897215071 0)
(100.7139636 -2.741520912 -1.11732711e-20)
(100.7649059 -2.476403383 0)
(99.84527629 -1.531467103 5.947201518e-21)
(99.72389868 -1.914561857 -9.656966666e-21)
(100.1811942 -2.197668919 0)
(100.4220559 -2.125351635 0)
(99.52477886 -0.9836289089 7.056321364e-21)
(99.36968432 -1.297585519 1.438193735e-20)
(99.33701255 -0.4808507113 -2.449759172e-21)
(99.14456263 -0.75839436 1.096296396e-21)
(99.02902421 -0.2497490312 6.33156794e-21)
(97.09621783 -19.42897285 2.767517807e-20)
(96.156201 -18.96792673 -5.843155894e-20)
(97.04199935 -18.12331246 6.043859231e-21)
(97.65618367 -18.67351543 3.076877202e-20)
(96.17454071 -18.49172083 8.064716585e-20)
(102.2117043 -15.65253093 2.254534954e-20)
(103.022722 -15.65919101 -1.633046426e-19)
(102.1824683 -14.70955368 8.470955714e-21)
(102.8016673 -14.75404922 -6.297600914e-20)
(103.9948412 -12.00498793 2.177187655e-19)
(103.5622518 -12.20990771 -6.860640219e-20)
(103.2470818 -11.61553897 3.618874825e-19)
(103.6014857 -11.45435097 -7.591624826e-20)
(103.6479505 -9.205653161 -2.7971438e-19)
(103.4023796 -9.449643748 2.729001589e-20)
(103.054322 -9.063444309 6.709862033e-22)
(103.2641724 -8.859540455 1.854272704e-19)
(102.8655282 -7.05241904 3.170318276e-19)
(102.7294989 -7.28917473 -7.059624471e-21)
(102.39971 -7.026493135 1.891119576e-19)
(102.521423 -6.813308519 1.246209149e-20)
(101.848561 -5.547079682 6.941372105e-20)
(101.9119799 -5.327766269 -2.847423563e-20)
(101.5536049 -5.352868945 9.074111035e-21)
(101.615662 -5.163952693 9.781734989e-20)
(100.9412183 -3.844179094 -4.560457455e-20)
(100.8634051 -4.198990573 -2.406948436e-20)
(100.4216039 -3.920656322 -4.261370398e-20)
(100.5230161 -3.642752225 -1.760348303e-20)
(100.3071338 -2.862711299 -2.860986788e-20)
(100.2333089 -3.149960221 1.035184869e-20)
(99.89452594 -2.946482735 -3.026807959e-20)
(99.9894889 -2.709096976 -1.573168559e-20)
(99.25933041 -1.672042557 -5.994833162e-22)
(99.08683035 -2.02612841 -2.754541865e-20)
(99.47517544 -2.376989673 -6.783234022e-21)
(99.7234988 -2.326114854 -4.246017373e-21)
(99.00015551 -1.075115938 9.485247606e-21)
(98.80777787 -1.382054606 1.780407501e-20)
(98.84577789 -0.5261365055 9.497039424e-21)
(98.62686109 -0.8102967573 3.698284162e-22)
(98.5328433 -0.2668234354 2.257927907e-21)
(98.25358228 -12.57601107 3.437117589e-20)
(97.91488013 -11.79947085 2.783542707e-20)
(98.52711486 -11.62993571 2.799808055e-20)
(98.76241839 -12.08823106 4.054642065e-20)
(100.6323835 -12.06022532 8.200267027e-20)
(100.2706312 -11.8038328 7.304988865e-20)
(100.335048 -11.30792264 5.823704996e-20)
(100.6180055 -11.49395601 -1.116013422e-20)
(101.4948107 -10.29333148 6.345402525e-21)
(101.2060173 -10.288011 -1.213382277e-19)
(101.055158 -9.853410705 -1.381412322e-20)
(101.2895145 -9.851318496 -1.413392939e-19)
(101.5268367 -8.455991832 -3.347508701e-19)
(101.320348 -8.551248323 -1.359430727e-19)
(101.0998846 -8.214863578 -1.360653619e-19)
(101.2730351 -8.130973748 4.446410419e-20)
(101.1461091 -6.785631574 4.597563862e-20)
(101.0102394 -6.925117341 4.25834638e-20)
(100.7724302 -6.663946749 -8.843037938e-20)
(100.8907847 -6.541497444 9.237148864e-20)
(100.4685945 -5.458166241 -1.207970825e-20)
(100.5534584 -5.30763105 1.669905377e-22)
(100.2395815 -5.258577943 -1.210914094e-20)
(100.320297 -5.121749819 -1.055222297e-20)
(99.91539893 -3.944291501 3.420494673e-21)
(99.79115716 -4.220542388 6.338664035e-21)
(99.43032393 -3.922717368 0)
(99.5626918 -3.701634892 2.7357012e-21)
(99.49040689 -2.993378116 -1.287681799e-20)
(99.37283097 -3.233205344 2.733277309e-21)
(99.08906158 -3.008574503 4.322008991e-21)
(99.2109838 -2.804218778 0)
(98.64594236 -1.736788172 -7.953994945e-21)
(98.44195844 -2.053969491 -1.189148966e-20)
(98.7702301 -2.436950271 -1.478867224e-21)
(99.01233818 -2.414304926 -1.189270767e-20)
(98.44414539 -1.121045847 9.170267409e-21)
(98.22922404 -1.413943632 1.826759741e-20)
(98.32222629 -0.5499002321 -6.158546653e-21)
(98.08847875 -0.8314612958 -1.036704068e-20)
(98.01431273 -0.2737772404 -6.533572293e-21)
(99.11702838 -9.489830218 3.286010052e-20)
(98.95773834 -9.030253378 3.293270938e-20)
(99.25848575 -8.940422469 4.243713829e-20)
(99.29644085 -9.188387767 -4.038010769e-20)
(99.78601914 -9.435155458 7.847959958e-20)
(99.6700988 -9.20784296 2.706969221e-20)
(99.67775839 -8.920682902 5.170131966e-20)
(99.76929038 -9.097230423 1.43920391e-20)
(100.0723088 -8.609352951 -1.030751055e-19)
(99.93169724 -8.529435383 6.760881237e-20)
(99.8319422 -8.228195263 4.731505979e-21)
(99.9469399 -8.288320087 -1.839786214e-20)
(100.042145 -7.461490477 -1.660861238e-19)
(99.90714658 -7.47817113 7.666389023e-20)
(99.75563913 -7.208055504 1.49121649e-20)
(99.86775227 -7.189500117 6.330496882e-20)
(99.78858103 -6.228109595 -6.070715024e-20)
(99.68026359 -6.29978043 5.43644806e-20)
(99.50353839 -6.068679758 -1.653422441e-20)
(99.59677095 -6.001851423 2.21759047e-20)
(99.3079795 -5.131651234 0)
(99.39199349 -5.0383494 0)
(99.13267259 -4.947455643 0)
(99.21178707 -4.855630458 0)
(98.97369246 -3.864625992 -1.477310473e-20)
(98.83431159 -4.065693764 -1.475898558e-20)
(98.54685445 -3.778671697 5.443592737e-21)
(98.687582 -3.6090388 -4.133185933e-20)
(98.70780005 -2.9953314 2.698327742e-20)
(98.57005369 -3.186200388 -3.649630285e-21)
(98.3335794 -2.957625455 2.605364335e-21)
(98.4677784 -2.786907348 1.275505007e-20)
(98.03384619 -1.736859912 1.499339047e-20)
(97.81640799 -2.01599672 2.459444472e-20)
(98.09210281 -2.399319397 3.036170468e-20)
(98.32064246 -2.411103105 -1.271222525e-20)
(97.88131612 -1.127038538 -1.687951278e-21)
(97.65715598 -1.401575892 -8.246215176e-21)
(97.78738379 -0.554331605 -1.072838309e-20)
(97.54995799 -0.8261701001 -1.195102791e-20)
(97.49160517 -0.2722357342 1.212465414e-21)
(99.58618333 -7.603563195 -1.003672783e-19)
(99.38685148 -7.28233897 -1.331800059e-19)
(99.6740349 -7.230324144 -3.051268742e-21)
(99.64373985 -7.390754321 4.866983162e-20)
(99.4806941 -7.625992672 2.355427278e-20)
(99.48872604 -7.44964059 4.433440573e-20)
(99.44358228 -7.262004149 2.357032055e-20)
(99.43099575 -7.405167619 -8.503164685e-20)
(99.28870289 -7.199990713 4.350766364e-21)
(99.24781203 -7.108729994 -4.912638369e-20)
(99.15278923 -6.893308109 -7.20224749e-21)
(99.18370841 -6.966377487 7.027636036e-20)
(99.05398765 -6.466121646 0)
(98.98734779 -6.44393926 1.033919084e-20)
(98.86274774 -6.230851431 -5.120057167e-20)
(98.91812139 -6.244794803 -1.184636985e-20)
(98.76267203 -5.568524368 0)
(98.6923728 -5.597010909 1.641113068e-21)
(98.55063342 -5.400595015 0)
(98.61218113 -5.371282468 0)
(98.37489153 -4.698951198 0)
(98.44362173 -4.644387802 0)
(98.23596357 -4.536024737 0)
(98.30147444 -4.477868809 0)
(98.15186064 -3.670976332 2.016224093e-20)
(98.01654662 -3.809630556 0)
(97.7851836 -3.54495508 0)
(97.9191842 -3.419277697 0)
(97.98427016 -2.898699503 -2.009271161e-20)
(97.84355589 -3.045971905 0)
(97.64452491 -2.822178337 0)
(97.77868263 -2.684289778 0)
(97.44528682 -1.688396153 -2.31029127e-21)
(97.22788822 -1.928990933 1.906566154e-20)
(97.4601577 -2.296655284 1.268421065e-20)
(97.66930643 -2.337238497 1.270515931e-20)
(97.33096437 -1.103110081 -1.904750971e-20)
(97.10852298 -1.353947208 -1.783555655e-20)
(97.2587127 -0.5432041068 2.421376972e-23)
(97.02530382 -0.8002100956 -1.208420588e-21)
(96.97951362 -0.2644793274 1.212373464e-21)
(99.86632357 -6.283741609 3.970458003e-20)
(99.55785275 -6.06140268 -5.620082576e-21)
(99.91510566 -6.018610365 -1.438572065e-21)
(99.87391552 -6.131933299 -1.574652898e-21)
(99.37709678 -6.321108546 5.706863401e-21)
(99.44895684 -6.184925928 -2.944510997e-21)
(99.36359839 -6.048588783 5.239357809e-21)
(99.29300731 -6.162484618 5.43660608e-21)
(98.83405321 -6.067905852 3.671226843e-20)
(98.85739849 -5.983435825 -2.613662571e-20)
(98.7491754 -5.821143012 -1.397333661e-21)
(98.72498092 -5.891045657 -1.699942348e-20)
(98.3837113 -5.567833105 -4.125805126e-24)
(98.36857783 -5.531934636 1.50989327e-20)
(98.2494219 -5.362058763 -4.093525444e-26)
(98.26094241 -5.389062074 -4.136707137e-24)
(98.0017921 -4.91109413 0)
(97.96585071 -4.915067491 0)
(97.84403628 -4.754575722 0)
(97.87636917 -4.747109771 0)
(97.6390561 -4.230123474 0)
(97.68895317 -4.20140866 0)
(97.5235163 -4.089079984 0)
(97.57216557 -4.053991804 0)
(97.44727847 -3.405950187 0)
(97.32824574 -3.497310228 0)
(97.13719694 -3.258610843 0)
(97.25411101 -3.167207179 0)
(97.33192935 -2.73271008 0)
(97.19994432 -2.84359875 0)
(97.03132094 -2.634083389 0)
(97.15663053 -2.523580484 0)
(96.89294995 -1.603508421 0)
(96.68448981 -1.809400195 0)
(96.8851879 -2.15169001 0)
(97.07232059 -2.212233475 0)
(96.80581481 -1.053671662 0)
(96.59200693 -1.281009765 0)
(96.74943731 -0.521114436 0)
(96.52630072 -0.7594602684 0)
(96.48960137 -0.2519214914 0)
(100.026328 -5.31654799 1.015019065e-20)
(99.69971987 -5.152963681 1.449982261e-20)
(100.0572351 -5.108223979 5.43276675e-21)
(100.0146093 -5.192452021 1.090336274e-22)
(99.32801605 -5.329591187 -1.36553763e-21)
(99.43496153 -5.22421787 -1.988566381e-21)
(99.31446346 -5.11752583 -1.305866535e-21)
(99.21212433 -5.207747643 4.832920573e-23)
(98.5330096 -5.153630002 -3.011139758e-22)
(98.59572106 -5.081059667 3.748751495e-22)
(98.47100024 -4.953639152 0)
(98.41143398 -5.015057013 0)
(97.90652825 -4.794732711 0)
(97.92815436 -4.756237766 0)
(97.8090008 -4.621689112 0)
(97.78840055 -4.652429703 0)
(97.43182751 -4.309152335 0)
(97.42409028 -4.300859169 0)
(97.31194687 -4.169205768 0)
(97.31974197 -4.173255622 0)
(97.05733542 -3.770237984 0)
(97.0884524 -3.7565153 0)
(96.95505675 -3.648717528 0)
(96.98685555 -3.628251846 0)
(96.85285528 -3.107044982 0)
(96.75678669 -3.166948753 0)
(96.59233026 -2.95454756 0)
(96.68818963 -2.889601999 0)
(96.7571444 -2.52920973 0)
(96.64054514 -2.611902057 0)
(96.49443353 -2.420802532 0)
(96.60609693 -2.33222832 0)
(96.38414586 -1.4961377 0)
(96.19183457 -1.672643635 0)
(96.36996614 -1.985720497 0)
(96.53561929 -2.055428273 0)
(96.31391415 -0.988183095 0)
(96.11483494 -1.1931635 0)
(96.26811088 -0.4908488881 0)
(96.059131 -0.709196024 0)
(96.02849846 -0.2358398736 0)
(100.1327623 -4.551501145 0)
(99.87102468 -4.437647179 0)
(100.1506748 -4.386071741 0)
(100.0959465 -4.456713361 0)
(99.27217466 -4.548841148 0)
(99.40015754 -4.46591399 0)
(99.25851549 -4.379317719 0)
(99.13453328 -4.451374885 0)
(98.31052127 -4.413688941 0)
(98.39968237 -4.35323144 0)
(98.26392771 -4.251408075 0)
(98.18004519 -4.30363733 0)
(97.55537084 -4.146059293 0)
(97.60339661 -4.109482497 0)
(97.48169673 -4.000846965 0)
(97.43733055 -4.031063884 0)
(96.99512147 -3.775552487 0)
(97.00985164 -3.761784111 0)
(96.90184013 -3.652903199 0)
(96.88960236 -3.662493434 0)
(96.59235453 -3.343034653 0)
(96.60604617 -3.337792806 0)
(96.4977669 -3.238971273 0)
(96.51350737 -3.227782357 0)
(96.35337463 -2.803726462 0)
(96.28248891 -2.844079392 0)
(96.13384026 -2.656457373 0)
(96.208098 -2.610370008 0)
(96.25592973 -2.310717562 0)
(96.15757642 -2.372636544 0)
(96.02739447 -2.200838351 0)
(96.12308834 -2.129345095 0)
(95.92196786 -1.378037699 0)
(95.74982167 -1.529722038 0)
(95.91234279 -1.81269286 0)
(96.05825737 -1.88443728 0)
(95.86030227 -0.9144187123 0)
(95.67931177 -1.098303836 0)
(95.82018451 -0.4554124733 0)
(95.62796456 -0.654252648 0)
(95.60068449 -0.2180559467 0)
(100.1894575 -3.936978107 -2.468501165e-35)
(99.97951238 -3.849190991 1.315754668e-35)
(100.1983616 -3.801151429 -4.794558803e-35)
(100.1350372 -3.85866847 -2.46879056e-35)
(99.21857691 -3.920325833 0)
(99.36164363 -3.854139001 0)
(99.20557784 -3.781885227 0)
(99.06644533 -3.840302509 0)
(98.13993505 -3.809803253 0)
(98.24741883 -3.75949013 0)
(98.10299193 -3.676053033 0)
(98.00185344 -3.720167928 0)
(97.28651934 -3.600941173 0)
(97.35388383 -3.567894749 0)
(97.22878858 -3.478555042 0)
(97.16662958 -3.506446205 0)
(96.65246818 -3.30965942 0)
(96.68493026 -3.294022043 0)
(96.57817799 -3.203104381 0)
(96.54980571 -3.214945958 0)
(96.21662201 -2.957316919 0)
(96.21517654 -2.957368235 0)
(96.12656309 -2.868504829 0)
(96.1284989 -2.862996884 0)
(95.93188078 -2.513876544 0)
(95.88538588 -2.541063786 0)
(95.74600553 -2.37666505 0)
(95.79968077 -2.343209822 0)
(95.82043777 -2.092295508 0)
(95.74103402 -2.139354279 0)
(95.62181111 -1.986218042 0)
(95.70077468 -1.927927126 0)
(95.50581371 -1.257363689 0)
(95.35554009 -1.388247985 0)
(95.50789686 -1.641957253 0)
(95.6360437 -1.712151092 0)
(95.44638382 -0.8376211219 0)
(95.28498317 -1.002236072 0)
(95.40831294 -0.4181217581 0)
(95.23388594 -0.5981275708 0)
(95.20787856 -0.1997913816 0)
(100.2157886 -3.42928534 -2.068533426e-35)
(100.0422907 -3.35994675 0)
(100.2189644 -3.316057811 0)
(100.1494087 -3.363327945 0)
(99.16741731 -3.403844316 0)
(99.32145031 -3.350171682 0)
(99.1549579 -3.289001384 0)
(99.0047463 -3.336906539 0)
(98.00262014 -3.309708264 0)
(98.12340946 -3.267738312 0)
(97.97215581 -3.198130966 0)
(97.85831716 -3.235304591 0)
(97.0734204 -3.140646155 0)
(97.15526946 -3.111560675 0)
(97.02678198 -3.03700813 0)
(96.95105485 -3.061907274 0)
(96.37739633 -2.905542337 0)
(96.42390797 -2.889949972 0)
(96.31695649 -2.813350179 0)
(96.27557365 -2.825601549 0)
(95.90844346 -2.614155511 0)
(95.89426215 -2.617024816 0)
(95.82073475 -2.538161032 0)
(95.81088575 -2.535874879 0)
(95.57463586 -2.245345284 0)
(95.55034771 -2.263538806 0)
(95.41646203 -2.120208842 0)
(95.45097049 -2.095151914 0)
(95.44211658 -1.88323779 0)
(95.38119895 -1.91970304 0)
(95.26929428 -1.784014869 0)
(95.33185855 -1.735721848 0)
(95.13308277 -1.139597033 0)
(95.00504235 -1.253263148 0)
(95.15114954 -1.479568348 0)
(95.26367074 -1.545842758 0)
(95.07145247 -0.7616772098 0)
(94.92996571 -0.9089741356 0)
(95.03279895 -0.3809649463 0)
(94.87626476 -0.5432867809 0)
(94.85000051 -0.18187132 0)
(100.2221994 -3.004433851 -3.122855405e-35)
(100.0756756 -2.949050173 1.438248626e-35)
(100.221509 -2.909124488 -3.122855405e-35)
(100.1473565 -2.948315155 -3.122496195e-35)
(99.1182796 -2.97347267 0)
(99.2804597 -2.929477807 0)
(99.1062781 -2.87711596 0)
(98.94770705 -2.916700184 0)
(97.88809461 -2.890985707 0)
(98.01890055 -2.855883734 0)
(97.86222482 -2.797039196 0)
(97.73873941 -2.828341565 0)
(96.89960246 -2.750172876 0)
(96.99252969 -2.724957873 0)
(96.86095555 -2.662023858 0)
(96.7746995 -2.683812603 0)
(96.15200155 -2.556115432 0)
(96.20974593 -2.541529907 0)
(96.1018836 -2.476488395 0)
(96.04994135 -2.488170878 0)
(95.65196537 -2.311845898 0)
(95.62706247 -2.315974677 0)
(95.56523633 -2.24657898 0)
(95.54530357 -2.246022963 0)
(95.27011865 -2.001421017 0)
(95.26557806 -2.013841927 0)
(95.13456715 -1.88902008 0)
(95.15167322 -1.869538056 0)
(95.11290254 -1.688818949 0)
(95.06931656 -1.717795701 0)
(94.96209375 -1.597998788 0)
(95.00918032 -1.557249403 0)
(94.80022755 -1.028273342 0)
(94.69384376 -1.127797146 0)
(94.83643812 -1.329046873 0)
(94.93538689 -1.390048151 0)
(94.73349837 -0.6891550616 0)
(94.61139837 -0.8210806842 0)
(94.69248293 -0.3452764826 0)
(94.55324323 -0.491346516 0)
(94.52564817 -0.1648354212 0)
(100.2152312 -2.645818117 2.655719393e-35)
(100.0895259 -2.601076084 0)
(100.2119263 -2.564988907 0)
(100.134284 -2.597558333 0)
(99.07090871 -2.611275519 0)
(99.23924636 -2.574963882 0)
(99.05933104 -2.529777112 0)
(98.89431218 -2.562640353 0)
(97.79003415 -2.537564164 0)
(97.92859668 -2.508170038 0)
(97.7675873 -2.45795223 0)
(97.63658091 -2.484277642 0)
(96.75446333 -2.417675715 0)
(96.85604595 -2.396050658 0)
(96.72177724 -2.342468288 0)
(96.62719993 -2.361259629 0)
(95.96397006 -2.254474506 0)
(96.03079956 -2.241357623 0)
(95.92172383 -2.185784609 0)
(95.8611295 -2.196389824 0)
(95.43563984 -2.047277757 0)
(95.40167432 -2.051727372 0)
(95.34906847 -1.991037478 0)
(95.32050522 -1.99128417 0)
(95.00869518 -1.782965628 0)
(95.02151423 -1.791872078 0)
(94.89168105 -1.683144845 0)
(94.89316455 -1.667302518 0)
(94.8255098 -1.51161133 0)
(94.79782069 -1.535353102 0)
(94.69342921 -1.429798302 0)
(94.7262234 -1.394744257 0)
(94.50334315 -0.9254684617 0)
(94.417441 -1.013446897 0)
(94.55843703 -1.192154016 0)
(94.64566202 -1.247250204 0)
(94.42975871 -0.6216406079 0)
(94.32598282 -0.7400678971 0)
(94.38525179 -0.3118978843 0)
(94.26228712 -0.4432950254 0)
(94.23265164 -0.1490182512 0)
(100.1989472 -2.341179746 1.023425246e-35)
(100.089676 -2.30492804 -3.973168355e-36)
(100.1936972 -2.272331711 1.023425246e-35)
(100.113546 -2.299339837 1.023545228e-35)
(99.02525718 -2.304385547 0)
(99.19831713 -2.27431127 0)
(99.01412069 -2.235129512 0)
(98.84403111 -2.262457355 0)
(97.70445833 -2.237680988 0)
(97.84917107 -2.213094267 0)
(97.68468551 -2.169981547 0)
(97.54768248 -2.192048104 0)
(96.63098336 -2.133880626 0)
(96.73946942 -2.115523634 0)
(96.60289415 -2.069638541 0)
(96.50161892 -2.085625518 0)
(95.80468161 -1.99447341 0)
(95.87895121 -1.983029631 0)
(95.76857919 -1.935330951 0)
(95.70081944 -1.944601437 0)
(95.25102385 -1.816936709 0)
(95.20935612 -1.821137591 0)
(95.1641376 -1.768348693 0)
(95.1281679 -1.768806182 0)
(94.78262568 -1.589406015 0)
(94.8106532 -1.596335159 0)
(94.68088008 -1.501558434 0)
(94.66845135 -1.488019996 0)
(94.57364612 -1.352491304 0)
(94.56034074 -1.372625448 0)
(94.45747271 -1.279704694 0)
(94.47726727 -1.248950896 0)
(94.23848158 -0.8322211353 0)
(94.17152909 -0.9108233323 0)
(94.31227884 -1.069481383 0)
(94.38942452 -1.118484963 0)
(94.15710158 -0.560011318 0)
(94.07025437 -0.6666925954 0)
(94.10845122 -0.2813150581 0)
(94.00047924 -0.3996587124 0)
(93.96836924 -0.1346040875 0)
(100.17552 -2.081483032 8.797758435e-36)
(100.0793941 -2.052265458 0)
(100.1687227 -2.022770818 0)
(100.0870735 -2.045028674 0)
(98.9814033 -2.043325509 0)
(99.15810665 -2.018414981 0)
(98.97073111 -1.984362372 0)
(98.79660293 -2.007052627 0)
(97.62874659 -1.982480535 0)
(97.77843193 -1.961984248 0)
(97.6111383 -1.924842526 0)
(97.46926368 -1.943237659 0)
(96.524333 -1.89143142 0)
(96.63842337 -1.87601857 0)
(96.49987942 -1.836575819 0)
(96.39312671 -1.849984171 0)
(95.66793265 -1.770775041 0)
(95.7483624 -1.761057501 0)
(95.63671066 -1.71998491 0)
(95.5629616 -1.727816413 0)
(95.09177708 -1.617303511 0)
(95.04353421 -1.620920598 0)
(95.00430317 -1.57524174 0)
(94.96195872 -1.575536346 0)
(94.58570195 -1.419387546 0)
(94.62704108 -1.42537717 0)
(94.49659578 -1.342689001 0)
(94.4718288 -1.330517543 0)
(94.35191831 -1.211292633 0)
(94.35151539 -1.22899659 0)
(94.24924246 -1.147211892 0)
(94.25733154 -1.119691103 0)
(94.00183425 -0.7488686659 0)
(93.95216847 -0.8199306116 0)
(94.09360635 -0.9608929284 0)
(94.16210531 -1.003867774 0)
(93.91227989 -0.5046472245 0)
(93.84083302 -0.601210698 0)
(93.85917367 -0.2537599915 0)
(93.76480891 -0.3606489619 0)
(93.72998738 -0.121674038 0)
(100.1463715 -1.860075034 0)
(100.0610377 -1.836759089 0)
(100.138329 -1.810080869 0)
(100.0561127 -1.828196589 0)
(98.93939881 -1.821034593 0)
(99.11887574 -1.800479818 0)
(98.92918086 -1.770857638 0)
(98.75183638 -1.789601085 0)
(97.56108561 -1.765199564 0)
(97.71485024 -1.748214309 0)
(97.54526246 -1.716159608 0)
(97.39937328 -1.731368259 0)
(96.43108033 -1.684481792 0)
(96.54978557 -1.671705226 0)
(96.40954752 -1.637718615 0)
(96.29825798 -1.648780414 0)
(95.54917096 -1.578857537 0)
(95.63474734 -1.57083131 0)
(95.52186802 -1.535381759 0)
(95.4430755 -1.54176272 0)
(94.95307076 -1.445124167 0)
(94.8991963 -1.447972945 0)
(94.86484583 -1.408650127 0)
(94.81700291 -1.408553083 0)
(94.41294843 -1.271230309 0)
(94.46594482 -1.276987346 0)
(94.33434179 -1.204782965 0)
(94.29865638 -1.193305181 0)
(94.15576166 -1.087284072 0)
(94.16686901 -1.103422302 0)
(94.06452214 -1.031412228 0)
(94.06214372 -1.006291582 0)
(93.78982139 -0.6753065477 0)
(93.75572765 -0.7403840795 0)
(93.89854489 -0.8658385647 0)
(93.95966382 -0.903001154 0)
(93.69207774 -0.4555963396 0)
(93.63443749 -0.543535077 0)
(93.63443064 -0.2292900217 0)
(93.5522286 -0.3262564903 0)
(93.51459259 -0.1102359316 0)
(100.1126641 -1.671777144 0)
(100.0365508 -1.653398078 0)
(100.1036571 -1.629363482 0)
(100.0215867 -1.643811039 0)
(98.89916333 -1.632068369 0)
(99.08067362 -1.615265863 0)
(98.88936048 -1.589511354 0)
(98.70948559 -1.604831499 0)
(97.50010488 -1.580525785 0)
(97.65725262 -1.566600618 0)
(97.48576869 -1.5389379 0)
(97.336533 -1.551341203 0)
(96.34865857 -1.508290001 0)
(96.47121326 -1.497888357 0)
(96.32950097 -1.46857927 0)
(96.21440952 -1.477497038 0)
(95.44492739 -1.41486161 0)
(95.53484437 -1.408463446 0)
(95.42080208 -1.377830931 0)
(95.33772836 -1.382783941 0)
(94.83111615 -1.297456431 0)
(94.77239462 -1.299430365 0)
(94.74204597 -1.265792927 0)
(94.6894412 -1.265153372 0)
(94.2602745 -1.143127153 0)
(94.32349377 -1.149144072 0)
(94.19040347 -1.086045287 0)
(94.14506227 -1.07476157 0)
(93.981243 -0.979416086 0)
(94.00258397 -0.9946374204 0)
(93.89966971 -0.9311834679 0)
(93.88797267 -0.9077970651 0)
(93.59912137 -0.611163545 0)
(93.57893366 -0.6716094691 0)
(93.72365033 -0.7835465389 0)
(93.77849498 -0.8151786671 0)
(93.49339152 -0.4126983976 0)
(93.44799955 -0.4933872343 0)
(93.43125917 -0.2078503149 0)
(93.35980503 -0.2963452161 0)
(93.31933823 -0.1002547621 0)
(100.0755327 -1.512439909 0)
(100.0076699 -1.498198229 0)
(100.0658411 -1.476729229 0)
(99.98434527 -1.487882489 0)
(98.86051739 -1.472194083 0)
(99.04342419 -1.458695203 0)
(98.85107434 -1.436358971 0)
(98.66925364 -1.448643812 0)
(97.44470291 -1.424285831 0)
(97.60467776 -1.413081701 0)
(97.43160956 -1.389259735 0)
(97.27955967 -1.39914516 0)
(96.27508106 -1.359042832 0)
(96.40088361 -1.350811945 0)
(96.25787192 -1.325562156 0)
(96.13956073 -1.332494561 0)
(95.35249845 -1.275564845 0)
(95.44611054 -1.270736283 0)
(95.33096974 -1.244271708 0)
(95.2442322 -1.247820662 0)
(94.72289391 -1.171739731 0)
(94.65997595 -1.172765934 0)
(94.63292658 -1.14424345 0)
(94.57617793 -1.14294842 0)
(94.12430499 -1.033332805 0)
(94.19650518 -1.039967786 0)
(94.06169338 -0.9847918646 0)
(94.00781171 -0.973313434 0)
(93.82499223 -0.8865380589 0)
(93.85541288 -0.9013483632 0)
(93.75154977 -0.8453684532 0)
(93.73158507 -0.8231638281 0)
(93.42670698 -0.5559401929 0)
(93.41883475 -0.6129502231 0)
(93.56587176 -0.7131713697 0)
(93.61541941 -0.7395629632 0)
(93.31330983 -0.3756819575 0)
(93.27866516 -0.450387862 0)
(93.24682758 -0.189324027 0)
(93.18475015 -0.2707086972 0)
(93.14148745 -0.0916707826 0)
(100.0360293 -1.378796789 0)
(99.97587676 -1.368041264 0)
(100.0258875 -1.349071623 0)
(99.94513667 -1.357246287 0)
(98.82320197 -1.338062704 0)
(99.0069537 -1.327519053 0)
(98.81404396 -1.308220253 0)
(98.63078707 -1.317771072 0)
(97.39393737 -1.293156408 0)
(97.55627958 -1.28440799 0)
(97.3818692 -1.263968761 0)
(97.22744306 -1.271562641 0)
(96.20874177 -1.233655833 0)
(96.33730503 -1.227429799 0)
(96.19312432 -1.20572974 0)
(96.07206707 -1.210806617 0)
(95.26970246 -1.158290206 0)
(95.36648002 -1.15497686 0)
(95.25028746 -1.132142209 0)
(95.16039676 -1.134311112 0)
(94.62590392 -1.065759076 0)
(94.55934403 -1.065784702 0)
(94.53499229 -1.041879239 0)
(94.47463714 -1.039839124 0)
(94.0022073 -0.9402407046 0)
(94.08231677 -0.9477655009 0)
(93.9456011 -0.8995058364 0)
(93.88415301 -0.8875113203 0)
(93.68408456 -0.807511433 0)
(93.72254778 -0.8223232567 0)
(93.61742263 -0.7728572422 0)
(93.59014111 -0.7513653011 0)
(93.26976669 -0.5090834001 0)
(93.27273016 -0.5637585938 0)
(93.42247503 -0.6538855011 0)
(93.46758837 -0.6753217324 0)
(93.14906869 -0.3442213746 0)
(93.12378496 -0.4141170504 0)
(93.07840466 -0.1735610789 0)
(93.02443149 -0.249113226 0)
(92.9784349 -0.08441469832 0)
(99.99503262 -1.268144814 -1.520604943e-36)
(99.94236666 -1.260352733 5.456292218e-37)
(99.98464543 -1.243806622 -2.957567844e-36)
(99.9045856 -1.249293989 -1.520430034e-36)
(98.78690524 -1.226963772 0)
(98.9710314 -1.219103336 0)
(98.7779552 -1.202525254 0)
(98.5937027 -1.209574498 0)
(97.34697068 -1.184456448 0)
(97.5112955 -1.177962782 0)
(97.33573539 -1.16052808 0)
(97.17929688 -1.16600118 0)
(96.14829724 -1.129620032 0)
(96.27922424 -1.12527369 0)
(96.13397256 -1.106704677 0)
(96.01055629 -1.110022976 0)
(95.19473137 -1.060832616 0)
(95.29424288 -1.058995516 0)
(95.17703458 -1.039350265 0)
(95.08440642 -1.040154301 0)
(94.53801397 -0.9777293597 0)
(94.46823504 -0.9767057825 0)
(94.44614041 -0.9570706216 0)
(94.38255146 -0.9542064022 0)
(93.89156604 -0.8624666147 0)
(93.97872976 -0.8711740359 0)
(93.83982934 -0.8289998342 0)
(93.77169842 -0.816096775 0)
(93.55593999 -0.7412620745 0)
(93.60152201 -0.7564482892 0)
(93.49485547 -0.7126386381 0)
(93.46112614 -0.6914196283 0)
(93.12588453 -0.470053899 0)
(93.13825794 -0.5233806565 0)
(93.29102086 -0.6048613463 0)
(93.33250752 -0.6215406263 0)
(92.99825737 -0.3179885266 0)
(92.98093492 -0.3841643905 0)
(92.92359637 -0.1604110285 0)
(92.87641144 -0.2313195775 0)
(92.82774495 -0.07841151141 0)
(99.95332054 -1.178257715 0)
(99.90813604 -1.173019354 0)
(99.94285978 -1.158814022 0)
(99.86326351 -1.161882278 0)
(98.75131966 -1.136707101 0)
(98.93542905 -1.131307953 0)
(98.7425003 -1.117184138 0)
(98.55762841 -1.121918253 0)
(97.30305731 -1.096036151 0)
(97.46903561 -1.091639676 0)
(97.29247529 -1.076889151 0)
(97.13433359 -1.080373571 0)
(96.09260772 -1.044910168 0)
(96.2255651 -1.042345824 0)
(96.07930781 -1.026552154 0)
(95.95385927 -1.028186126 0)
(95.12609922 -0.9813844619 0)
(95.22797772 -0.9809875657 0)
(95.10977602 -0.9641500079 0)
(95.01477187 -0.9636087669 0)
(94.45764385 -0.9061625079 0)
(94.38499714 -0.904186069 0)
(94.36486078 -0.8884386541 0)
(94.29838322 -0.884724427 0)
(93.79010182 -0.7989635494 0)
(93.88351431 -0.8089525852 0)
(93.74219617 -0.7721950823 0)
(93.66823362 -0.7579537326 0)
(93.43825766 -0.6868595455 0)
(93.49012093 -0.7027480418 0)
(93.38170527 -0.6638064435 0)
(93.34226984 -0.6425441477 0)
(92.99227151 -0.4383210773 0)
(93.0129659 -0.4914373431 0)
(93.1692609 -0.5655437616 0)
(93.20771393 -0.5778477874 0)
(92.85804077 -0.2966538571 0)
(92.84785289 -0.3601565665 0)
(92.77951237 -0.1497041209 0)
(92.73837454 -0.21713988 0)
(92.68711307 -0.07361090845 0)
(99.91152533 -1.107347808 0)
(99.87394356 -1.104362239 0)
(99.90112132 -1.092411315 0)
(99.82164664 -1.093288154 0)
(98.71615094 -1.065511608 0)
(98.89993297 -1.062401601 0)
(98.70739114 -1.050517972 0)
(98.52221178 -1.053077483 0)
(97.26150891 -1.026155326 0)
(97.42886091 -1.023743704 0)
(97.25141472 -1.011413616 0)
(97.09183075 -1.012999462 0)
(96.04064967 -0.9778699344 0)
(96.1753577 -0.9770256969 0)
(96.02813015 -0.9637100517 0)
(95.90092451 -0.9636999319 0)
(95.06247396 -0.9183950802 0)
(95.16639942 -0.9194298009 0)
(95.04719611 -0.9050683071 0)
(94.95013808 -0.9031677304 0)
(94.38327615 -0.8494759666 0)
(94.30822104 -0.8464995629 0)
(94.28943891 -0.8342028348 0)
(94.2206292 -0.8294843029 0)
(93.69587925 -0.7484999696 0)
(93.79463516 -0.7597014637 0)
(93.65108303 -0.7277433118 0)
(93.57188079 -0.7120128265 0)
(93.32894871 -0.6433180079 0)
(93.38631156 -0.6602600263 0)
(93.27572097 -0.6254831007 0)
(93.23149407 -0.6035954534 0)
(92.86857102 -0.4135250313 0)
(92.89566027 -0.4666610106 0)
(93.0552063 -0.5347294755 0)
(93.09172578 -0.5420667236 0)
(92.72809347 -0.2800109756 0)
(92.72242993 -0.3417186296 0)
(92.64592212 -0.1413841099 0)
(92.60815572 -0.2063097474 0)
(92.55429699 -0.06990495414 0)
(99.87013257 -1.054003327 -5.850487075e-36)
(99.84034083 -1.053046263 0)
(99.85989598 -1.043276988 -4.865072728e-36)
(99.78012386 -1.042150386 0)
(98.68113565 -1.011981413 0)
(98.86436188 -1.011033131 0)
(98.67237755 -1.001228083 0)
(98.48713716 -1.001710821 0)
(97.22168951 -0.9734577343 0)
(97.39018096 -0.9729621482 0)
(97.21193276 -0.9628409577 0)
(97.05112287 -0.9625770767 0)
(95.99148495 -0.9272051426 0)
(96.12771369 -0.9280564373 0)
(95.97952601 -0.9169760353 0)
(95.85078824 -0.9153273556 0)
(95.00258778 -0.8706683461 0)
(95.10830167 -0.8731630269 0)
(94.98806661 -0.8610140192 0)
(94.889203 -0.8577063842 0)
(94.31312831 -0.8067326515 0)
(94.23593776 -0.8024635685 0)
(94.21812165 -0.7935454642 0)
(94.14710588 -0.7877692202 0)
(93.60752163 -0.7098892386 0)