/*--------------------------------*- C++ -*----------------------------------*\
| =========                 |                                                 |
| \\      /  F ield         | OpenFOAM: The Open Source CFD Toolbox           |
|  \\    /   O peration     | Version:  v2012                                 |
|   \\  /    A nd           | Website:  www.openfoam.com                      |
|    \\/     M anipulation  |                                                 |
\*---------------------------------------------------------------------------*/
FoamFile
{
    version     2.0;
    format      ascii;
    class       pointVectorField;
    location    "1.61";
    object      pointDisplacement;
}
// * * * * * * * * * * * * * * * * * * * * * * * * * * * * * * * * * * * * * //

dimensions      [0 1 0 0 0 0 0];


internalField   nonuniform List<vector> 
6962
(
(0 0 0)
(0 0 0)
(0 0 0)
(0 0 0)
(0 0 0)
(0 0 0)
(0 0 0)
(0 0 0)
(0 0 0)
(0 0 0)
(-0.0009794186425 -8.209436725e-05 5.606626274e-15)
(0 0 0)
(0 0 0)
(0 0 0)
(0 0 0)
(0 0 0)
(0 0 0)
(0 0 0)
(0 0 0)
(0 0 0)
(0 0 0)
(0 0 0)
(0 0 0)
(0 0 0)
(0 0 0)
(-0.001741523522 -0.0004394186956 9.964251646e-15)
(-0.001587677365 -0.0003334677631 9.089951014e-15)
(-0.001358736401 -0.0002282446708 7.771561172e-15)
(-0.006762975735 -0.001226053859 4.243827512e-14)
(-0.007267114434 -0.001651019359 4.558853295e-14)
(-0.0110278456 -0.002607275615 7.263634139e-14)
(-0.01041004758 -0.001960505837 6.861178292e-14)
(-0.02218893824 -0.004738341763 1.718486464e-13)
(-0.02260839975 -0.00610580661 1.749156375e-13)
(-0.02572507054 -0.00731977599 2.112893194e-13)
(-0.02537450657 -0.005697346242 2.086664175e-13)
(-0.03026685243 -0.008227867532 3.059219544e-13)
(-0.03039253614 -0.01050253059 3.065880883e-13)
(-0.03027431384 -0.01133589443 3.307909502e-13)
(-0.03007482137 -0.008865257781 3.293754158e-13)
(-0.0244749518 -0.009848422305 0)
(-0.02455350798 -0.01249617609 0)
(-0.02174199686 -0.01258137439 0)
(-0.02170297902 -0.01125795127 0)
(-0.02166432647 -0.009934393752 0)
(-0.0132614718 -0.01018901342 0)
(-0.01327979305 -0.01085014585 0)
(-0.01258363664 -0.01087077673 0)
(-0.01256538258 -0.01020982695 0)
(0 0 0)
(0 0 0)
(0 0 0)
(0 0 0)
(0 0 0)
(0 0 0)
(0 0 0)
(0 0 0)
(0 0 0)
(0 0 0)
(0 0 0)
(0 0 0)
(0 0 0)
(0 0 0)
(-0.001651609786 -0.0006988656305 9.492406861e-15)
(-0.001866497624 -0.0007104569634 1.072752998e-14)
(-0.001994474338 -0.0006745351433 1.146305273e-14)
(-0.008051085957 -0.00295810009 5.072331444e-14)
(-0.00779255096 -0.003225803273 4.908573548e-14)
(-0.0116321123 -0.005029178086 7.691070003e-14)
(-0.01194154407 -0.004579613062 7.896461263e-14)
(-0.02365288094 -0.01046181995 1.835476215e-13)
(-0.02327717766 -0.01162579697 1.805222638e-13)
(-0.02636474705 -0.01391457388 2.16937579e-13)
(-0.02672901525 -0.01248908697 2.201155924e-13)
(-0.03105750712 -0.01769664374 3.138600491e-13)
(-0.03082736391 -0.01983544792 3.110151026e-13)
(-0.0304839891 -0.02125055257 3.330391518e-13)
(-0.03064099345 -0.01892545454 3.354122535e-13)
(-0.02447890922 -0.02047497176 0)
(-0.02456043123 -0.02312306524 0)
(-0.02174108823 -0.02320985919 0)
(-0.02170033669 -0.02188612001 0)
(-0.02165956622 -0.02056176572 0)
(-0.01320166023 -0.02082214379 0)
(-0.01324243071 -0.02214649809 0)
(-0.01183282072 -0.02218989318 0)
(-0.01181242601 -0.02152740847 0)
(-0.01179205024 -0.02086553888 0)
(-0.01249685524 -0.02084384134 0)
(0 0 0)
(0 0 0)
(0 0 0)
(0 0 0)
(0 0 0)
(0 0 0)
(0 0 0)
(0 0 0)
(0 0 0)
(0 0 0)
(0 0 0)
(0 0 0)
(0 0 0)
(0 0 0)
(-0.000385713046 -0.0002289457605 2.220446049e-15)
(-0.0006999067584 -0.0003856058147 4.024558464e-15)
(-0.001039879646 -0.0005285740597 5.981326545e-15)
(-0.005970544347 -0.003310645976 3.762268275e-14)
(-0.005100646887 -0.003068764665 3.216871214e-14)
(-0.008313525544 -0.005235350922 5.501155087e-14)
(-0.009405331735 -0.005455828163 6.221412274e-14)
(-0.02040029767 -0.01372348497 1.581790254e-13)
(-0.01891062648 -0.01382811872 1.467020949e-13)
(-0.0219778977 -0.01699630532 1.807998196e-13)
(-0.0234935389 -0.01671068683 1.931788063e-13)
(-0.02866293848 -0.02482288144 2.883804306e-13)
(-0.02740316918 -0.02579421535 2.757100104e-13)
(-0.02768299855 -0.02817170901 3.01175751e-13)
(-0.02875911343 -0.02693946917 3.129718706e-13)
(-0.02451796469 -0.0307413234 3.55590557e-13)
(-0.02416190324 -0.03282311128 3.497202528e-13)
(-0.02186455491 -0.03352359048 3.564371021e-13)
(-0.02197154626 -0.03113724839 3.59254293e-13)
(-0.01352778614 -0.03141574793 0)
(-0.01360932709 -0.03406445653 0)
(-0.0107900456 -0.03415124859 0)
(-0.01070850465 -0.03150253999 0)
(-0.01211817615 -0.03145914302 0)
(0 0 0)
(0 0 0)
(0 0 0)
(0 0 0)
(0 0 0)
(0 0 0)
(0 0 0)
(0 0 0)
(0 0 0)
(0 0 0)
(0 0 0)
(0 0 0)
(0 0 0)
(0 0 0)
(0 0 0)
(0 0 0)
(-9.47367122e-06 -6.42952332e-06 5.551115123e-17)
(-0.002268354517 -0.001686945217 1.432187702e-14)
(-0.001423722468 -0.001126313587 8.992806499e-15)
(-0.003312936637 -0.002749935531 2.198241589e-14)
(-0.004551606858 -0.003549328659 3.018418848e-14)
(-0.01328793907 -0.0120861974 1.034172747e-13)
(-0.0111904649 -0.01085403916 8.724965195e-14)
(-0.0138617271 -0.01423964865 1.146721607e-13)
(-0.01611100373 -0.01551271058 1.330185961e-13)
(-0.02199511338 -0.02579061358 2.220862383e-13)
(-0.01972606983 -0.02469682805 1.99673611e-13)
(-0.02063640933 -0.02791224146 2.257916076e-13)
(-0.02278056867 -0.02885669122 2.486344464e-13)
(-0.02139110736 -0.0359758547 3.095995682e-13)
(-0.01987207807 -0.03566424694 2.883110417e-13)
(-0.01857533486 -0.03750089245 3.028827189e-13)
(-0.01985145699 -0.03757171679 3.229638779e-13)
(-0.01320184177 -0.04030374595 3.447381269e-13)
(-0.01255992854 -0.04084372597 3.284872374e-13)
(-0.01010489953 -0.04133250528 3.318595398e-13)
(-0.01059176033 -0.04068436472 3.473193955e-13)
(0 0 0)
(0 0 0)
(0 0 0)
(0 0 0)
(0 0 0)
(0 0 0)
(0 0 0)
(0 0 0)
(0 0 0)
(0 0 0)
(0 0 0)
(0 0 0)
(0 0 0)
(0 0 0)
(0 0 0)
(0 0 0)
(0 0 0)
(-8.317154143e-06 -7.755621069e-06 5.551115123e-17)
(0 0 0)
(-8.564938153e-05 -8.822731614e-05 5.689893001e-16)
(-0.0005062303593 -0.0004963461747 3.358424649e-15)
(-0.005119244027 -0.005902422214 4.013456234e-14)
(-0.003410788719 -0.004141364416 2.679800826e-14)
(-0.005084544555 -0.006556212944 4.246603069e-14)
(-0.007098930623 -0.008685377142 5.914713164e-14)
(-0.01222786148 -0.01831704665 1.250943793e-13)
(-0.009736867011 -0.01540593776 1.000172167e-13)
(-0.0108068828 -0.01850532329 1.202232758e-13)
(-0.01331248189 -0.02156729859 1.473682287e-13)
(-0.01397893746 -0.03011741496 2.058631043e-13)
(-0.01177907509 -0.0268789379 1.746935929e-13)
(-0.01132909065 -0.02912500897 1.892513923e-13)
(-0.01334141644 -0.03235603441 2.210731598e-13)
(-0.009370319982 -0.03678006807 2.507022367e-13)
(-0.008047323197 -0.03363163793 2.181310688e-13)
(-0.006479444847 -0.03432350221 2.224193052e-13)
(-0.007552535319 -0.03745574721 2.550321065e-13)
(0 0 0)
(0 0 0)
(0 0 0)
(0 0 0)
(0 0 0)
(0 0 0)
(0 0 0)
(0 0 0)
(0 0 0)
(0 0 0)
(0 0 0)
(0 0 0)
(0 0 0)
(0 0 0)
(0 0 0)
(0 0 0)
(0 0 0)
(0 0 0)
(0 0 0)
(0 0 0)
(0 0 0)
(-0.0002197831597 -0.0003067028378 1.734723476e-15)
(0 0 0)
(-0.000159762967 -0.0002475772383 1.346145417e-15)
(-0.0007922799803 -0.001177170125 6.661338148e-15)
(-0.003385982037 -0.006222811925 3.522182546e-14)
(-0.001886316312 -0.003626055067 1.96925809e-14)
(-0.002543530142 -0.005311687646 2.883804306e-14)
(-0.004197093421 -0.00837088551 4.740652315e-14)
(-0.005524743922 -0.01481977075 8.397449403e-14)
(-0.003795487116 -0.01069956616 5.814793091e-14)
(-0.003859460271 -0.01232418105 6.697420396e-14)
(-0.00550163844 -0.01669063068 9.456324612e-14)
(-0.00409634525 -0.02060441115 1.166566843e-13)
(-0.002958352317 -0.01578546476 8.575085086e-14)
(-0.002369546372 -0.01633079615 8.869294188e-14)
(-0.003282764609 -0.02121518942 1.200706201e-13)
(0 0 0)
(0 0 0)
(0 0 0)
(0 0 0)
(0 0 0)
(0 0 0)
(0 0 0)
(0 0 0)
(0 0 0)
(0 0 0)
(0 0 0)
(0 0 0)
(0 0 0)
(0 0 0)
(0 0 0)
(0 0 0)
(0 0 0)
(0 0 0)
(0 0 0)
(0 0 0)
(0 0 0)
(0 0 0)
(0 0 0)
(0 0 0)
(0 0 0)
(0 0 0)
(0 0 0)
(0 0 0)
(-2.470579212e-05 -5.827158091e-05 2.775557562e-16)
(-0.0004429487388 -0.001425332089 6.911138328e-15)
(-4.984119125e-05 -0.0001665183164 7.771561172e-16)
(-0.0001088547228 -0.0004142876509 1.929012505e-15)
(-0.0005610209403 -0.002054123365 9.950373858e-15)
(-0.0005766522585 -0.003605472374 1.747213485e-14)
(-0.0001862314745 -0.001216542162 5.689893001e-15)
(-0.00015962894 -0.001370662802 6.411537967e-15)
(-0.0004724727287 -0.003870747759 1.874889133e-14)
(0 0 0)
(0 0 0)
(0 0 0)
(0 0 0)
(0 0 0)
(0 0 0)
(0 0 0)
(0 0 0)
(0 0 0)
(0 0 0)
(0 0 0)
(0 0 0)
(0 0 0)
(0 0 0)
(0 0 0)
(0 0 0)
(0 0 0)
(0 0 0)
(0 0 0)
(0 0 0)
(0 0 0)
(0 0 0)
(0 0 0)
(0 0 0)
(0 0 0)
(0 0 0)
(0 0 0)
(0 0 0)
(0 0 0)
(0 0 0)
(0 0 0)
(0 0 0)
(0 0 0)
(0 0 0)
(0 0 0)
(0 0 0)
(0 0 0)
(0 0 0)
(0 0 0)
(0 0 0)
(0 0 0)
(0 0 0)
(0 0 0)
(0 0 0)
(0 0 0)
(0 0 0)
(0 0 0)
(0 0 0)
(0 0 0)
(0 0 0)
(0 0 0)
(0 0 0)
(0 0 0)
(0 0 0)
(0 0 0)
(0 0 0)
(0 0 0)
(0 0 0)
(0 0 0)
(0 0 0)
(0 0 0)
(0 0 0)
(0 0 0)
(0 0 0)
(0 0 0)
(0 0 0)
(0 0 0)
(0 0 0)
(0 0 0)
(0 0 0)
(0 0 0)
(0 0 0)
(0 0 0)
(0 0 0)
(0 0 0)
(0 0 0)
(0 0 0)
(0 0 0)
(0 0 0)
(0 0 0)
(0 0 0)
(0 0 0)
(0 0 0)
(0 0 0)
(0 0 0)
(0 0 0)
(0 0 0)
(0 0 0)
(0 0 0)
(0 0 0)
(0 0 0)
(0 0 0)
(0 0 0)
(0 0 0)
(0 0 0)
(0 0 0)
(0 0 0)
(0 0 0)
(0 0 0)
(0 0 0)
(0 0 0)
(0 0 0)
(0 0 0)
(0 0 0)
(0 0 0)
(0 0 0)
(0 0 0)
(0 0 0)
(0 0 0)
(0 0 0)
(0 0 0)
(0 0 0)
(0 0 0)
(0 0 0)
(0 0 0)
(0 0 0)
(0 0 0)
(0 0 0)
(0 0 0)
(0 0 0)
(0 0 0)
(0 0 0)
(0 0 0)
(0 0 0)
(0 0 0)
(0 0 0)
(0 0 0)
(0 0 0)
(0 0 0)
(0 0 0)
(0 0 0)
(0 0 0)
(0 0 0)
(0 0 0)
(0 0 0)
(0 0 0)
(0 0 0)
(0 0 0)
(0 0 0)
(0 0 0)
(0 0 0)
(0 0 0)
(0 0 0)
(0 0 0)
(0 0 0)
(0 0 0)
(0 0 0)
(0 0 0)
(0 0 0)
(0 0 0)
(0 0 0)
(0 0 0)
(0 0 0)
(0 0 0)
(0 0 0)
(0 0 0)
(0 0 0)
(0 0 0)
(0 0 0)
(0 0 0)
(0 0 0)
(0 0 0)
(0 0 0)
(0 0 0)
(0 0 0)
(0 0 0)
(0 0 0)
(0 0 0)
(0 0 0)
(0 0 0)
(0 0 0)
(0 0 0)
(0 0 0)
(0 0 0)
(0 0 0)
(0 0 0)
(0 0 0)
(0 0 0)
(0 0 0)
(0 0 0)
(0 0 0)
(0 0 0)
(0 0 0)
(0 0 0)
(0 0 0)
(0 0 0)
(0 0 0)
(0 0 0)
(0 0 0)
(0 0 0)
(0 0 0)
(0 0 0)
(0 0 0)
(0 0 0)
(0 0 0)
(0 0 0)
(0 0 0)
(0 0 0)
(0 0 0)
(0 0 0)
(0 0 0)
(0 0 0)
(0 0 0)
(0 0 0)
(0 0 0)
(0 0 0)
(0 0 0)
(0 0 0)
(0 0 0)
(0 0 0)
(0 0 0)
(0 0 0)
(0 0 0)
(0 0 0)
(0 0 0)
(0 0 0)
(0 0 0)
(0 0 0)
(0 0 0)
(0 0 0)
(0 0 0)
(0 0 0)
(0 0 0)
(0 0 0)
(0 0 0)
(0 0 0)
(0 0 0)
(0 0 0)
(0 0 0)
(0 0 0)
(0 0 0)
(0 0 0)
(0 0 0)
(0 0 0)
(0 0 0)
(0 0 0)
(0 0 0)
(0 0 0)
(0 0 0)
(0 0 0)
(0 0 0)
(0 0 0)
(0 0 0)
(0 0 0)
(0 0 0)
(0 0 0)
(0 0 0)
(0 0 0)
(0 0 0)
(0 0 0)
(0 0 0)
(0 0 0)
(0 0 0)
(0 0 0)
(0 0 0)
(0 0 0)
(0 0 0)
(0 0 0)
(0 0 0)
(0 0 0)
(0 0 0)
(0 0 0)
(0 0 0)
(0 0 0)
(0 0 0)
(0 0 0)
(0 0 0)
(0 0 0)
(0 0 0)
(0 0 0)
(0 0 0)
(0 0 0)
(0 0 0)
(0 0 0)
(0 0 0)
(0 0 0)
(0 0 0)
(0 0 0)
(0 0 0)
(0 0 0)
(0 0 0)
(0 0 0)
(0 0 0)
(0 0 0)
(0 0 0)
(0 0 0)
(0 0 0)
(0 0 0)
(0 0 0)
(0 0 0)
(0 0 0)
(0 0 0)
(0 0 0)
(0 0 0)
(0 0 0)
(0 0 0)
(0 0 0)
(0 0 0)
(0 0 0)
(0 0 0)
(0 0 0)
(0 0 0)
(0 0 0)
(0 0 0)
(0 0 0)
(0 0 0)
(0 0 0)
(0 0 0)
(0 0 0)
(0 0 0)
(0 0 0)
(0 0 0)
(0 0 0)
(0 0 0)
(0 0 0)
(0 0 0)
(0 0 0)
(0 0 0)
(0 0 0)
(0 0 0)
(0 0 0)
(0 0 0)
(0 0 0)
(0 0 0)
(0 0 0)
(0 0 0)
(0 0 0)
(0 0 0)
(0 0 0)
(0 0 0)
(0 0 0)
(0 0 0)
(0 0 0)
(0 0 0)
(0 0 0)
(0 0 0)
(0 0 0)
(0 0 0)
(0 0 0)
(0 0 0)
(0 0 0)
(0 0 0)
(0 0 0)
(0 0 0)
(0 0 0)
(0 0 0)
(0 0 0)
(0 0 0)
(0 0 0)
(0 0 0)
(0 0 0)
(0 0 0)
(0 0 0)
(0 0 0)
(0 0 0)
(0 0 0)
(0 0 0)
(0 0 0)
(0 0 0)
(0 0 0)
(0 0 0)
(0 0 0)
(0 0 0)
(0 0 0)
(0 0 0)
(0 0 0)
(0 0 0)
(0 0 0)
(0 0 0)
(0 0 0)
(0 0 0)
(0 0 0)
(0 0 0)
(0 0 0)
(0 0 0)
(0 0 0)
(0 0 0)
(0 0 0)
(0 0 0)
(0 0 0)
(0 0 0)
(0 0 0)
(0 0 0)
(0 0 0)
(0 0 0)
(0 0 0)
(0 0 0)
(0 0 0)
(0 0 0)
(0 0 0)
(0 0 0)
(0 0 0)
(0 0 0)
(0 0 0)
(0 0 0)
(0 0 0)
(0 0 0)
(0 0 0)
(0 0 0)
(0 0 0)
(0 0 0)
(0 0 0)
(0 0 0)
(0 0 0)
(0 0 0)
(0 0 0)
(0 0 0)
(0 0 0)
(0 0 0)
(0 0 0)
(0 0 0)
(0 0 0)
(0 0 0)
(0 0 0)
(0 0 0)
(0 0 0)
(0 0 0)
(0 0 0)
(0 0 0)
(0 0 0)
(0 0 0)
(0 0 0)
(0 0 0)
(0 0 0)
(0 0 0)
(0 0 0)
(0 0 0)
(0 0 0)
(0 0 0)
(0 0 0)
(0 0 0)
(0 0 0)
(0 0 0)
(0 0 0)
(0 0 0)
(0 0 0)
(0 0 0)
(0 0 0)
(0 0 0)
(0 0 0)
(0 0 0)
(0 0 0)
(0 0 0)
(0 0 0)
(0 0 0)
(0 0 0)
(0 0 0)
(0 0 0)
(0 0 0)
(0 0 0)
(0 0 0)
(0 0 0)
(0 0 0)
(0 0 0)
(0 0 0)
(0 0 0)
(0 0 0)
(0 0 0)
(0 0 0)
(0 0 0)
(0 0 0)
(0 0 0)
(0 0 0)
(0 0 0)
(0 0 0)
(0 0 0)
(0 0 0)
(0 0 0)
(0 0 0)
(0 0 0)
(0 0 0)
(0 0 0)
(0 0 0)
(0 0 0)
(0 0 0)
(0 0 0)
(0 0 0)
(0 0 0)
(0 0 0)
(0 0 0)
(0 0 0)
(0 0 0)
(0 0 0)
(0 0 0)
(0 0 0)
(0 0 0)
(0 0 0)
(0 0 0)
(0 0 0)
(0 0 0)
(0 0 0)
(0 0 0)
(0 0 0)
(0 0 0)
(0 0 0)
(0 0 0)
(0 0 0)
(0 0 0)
(0 0 0)
(0 0 0)
(0 0 0)
(0 0 0)
(0 0 0)
(0 0 0)
(0 0 0)
(0 0 0)
(0 0 0)
(0 0 0)
(0 0 0)
(0 0 0)
(0 0 0)
(0 0 0)
(0 0 0)
(0 0 0)
(0 0 0)
(0 0 0)
(0 0 0)
(0 0 0)
(0 0 0)
(0 0 0)
(0 0 0)
(0 0 0)
(0 0 0)
(0 0 0)
(0 0 0)
(0 0 0)
(0 0 0)
(0 0 0)
(0 0 0)
(0 0 0)
(0 0 0)
(0 0 0)
(0 0 0)
(0 0 0)
(0 0 0)
(0 0 0)
(0 0 0)
(0 0 0)
(0 0 0)
(0 0 0)
(0 0 0)
(0 0 0)
(0 0 0)
(0 0 0)
(0 0 0)
(0 0 0)
(0 0 0)
(0 0 0)
(0 0 0)
(0 0 0)
(0 0 0)
(0 0 0)
(0 0 0)
(0 0 0)
(0 0 0)
(0 0 0)
(0 0 0)
(0 0 0)
(0 0 0)
(0 0 0)
(0 0 0)
(0 0 0)
(0 0 0)
(0 0 0)
(0 0 0)
(0 0 0)
(0 0 0)
(0 0 0)
(0 0 0)
(0 0 0)
(0 0 0)
(0 0 0)
(0 0 0)
(0 0 0)
(0 0 0)
(0 0 0)
(0 0 0)
(0 0 0)
(0 0 0)
(0 0 0)
(0 0 0)
(0 0 0)
(0 0 0)
(0 0 0)
(0 0 0)
(0 0 0)
(0 0 0)
(0 0 0)
(0 0 0)
(0 0 0)
(0 0 0)
(0 0 0)
(0 0 0)
(0 0 0)
(0 0 0)
(0 0 0)
(0 0 0)
(0 0 0)
(0 0 0)
(0 0 0)
(0 0 0)
(0 0 0)
(0 0 0)
(0 0 0)
(0 0 0)
(0 0 0)
(0 0 0)
(0 0 0)
(0 0 0)
(0 0 0)
(0 0 0)
(0 0 0)
(0 0 0)
(0 0 0)
(0 0 0)
(0 0 0)
(0 0 0)
(0 0 0)
(0 0 0)
(0 0 0)
(0 0 0)
(0 0 0)
(0 0 0)
(0 0 0)
(0 0 0)
(0 0 0)
(0 0 0)
(0 0 0)
(0 0 0)
(-0.01254716541 -0.009548075615 0)
(-0.01324319312 -0.009527263987 0)
(-0.01247646053 -0.02018135663 0)
(-0.01318126553 -0.02015965909 0)
(-0.02162614707 -0.008610205969 0)
(-0.02158772163 -0.007286025761 0)
(-0.02439737224 -0.007200392172 0)
(-0.01322502043 -0.008864957154 0)
(-0.01461940762 -0.008823077402 0)
(-0.01465660282 -0.01014729548 0)
(-0.01311524898 -0.004893232187 0)
(-0.02161879575 -0.01923741142 0)
(-0.02178742897 -0.01794515363 0)
(-0.02460248122 -0.01785498225 0)
(-0.01316088976 -0.0194977895 0)
(-0.01457056126 -0.01945439252 0)
(-0.01461133174 -0.02077874682 0)
(-0.01469377719 -0.01147083693 0)
(-0.01329840012 -0.01151256245 0)
(-0.01341241401 -0.01548409524 0)
(-0.01271589421 -0.01550492202 0)
(-0.0126964468 -0.01484320856 0)
(-0.01339296471 -0.01482232027 0)
(-0.007832104751 -0.0156511451 0)
(-0.007800909119 -0.01532301199 0)
(-0.008161420784 -0.01531117473 0)
(-0.008185099657 -0.01564033966 0)
(-0.007651352432 -0.01035993637 0)
(-0.00802614103 -0.01034685918 0)
(-0.00804242899 -0.01067594378 0)
(-0.007673054392 -0.01068848488 0)
(-0.01207740568 -0.03013478872 0)
(-0.01348701567 -0.03009139364 0)
(-0.007636934896 -0.01002980906 0)
(-0.008014982209 -0.01001638526 0)
(-0.01313354091 -0.005555412208 0)
(-0.01243751509 -0.005576285348 0)
(-0.007281350411 -0.01037249678 0)
(-0.007260095583 -0.01004307252 0)
(-0.007564183117 -0.02099200027 0)
(-0.007544915887 -0.02032393952 0)
(-0.007894151963 -0.02031503534 0)
(-0.00824571416 -0.02030729095 0)
(-0.008267599388 -0.02097219259 0)
(-0.008211473699 -0.01596905219 0)
(-0.007864579833 -0.01597923881 0)
(-0.01343210178 -0.01614561659 0)
(-0.01273551668 -0.01616632223 0)
(-0.007561324963 -0.01598715845 0)
(-0.007526403124 -0.01565938634 0)
(-0.006861082005 -0.02101364536 0)
(-0.006846188282 -0.02034544997 0)
(-0.007197482113 -0.02033278822 0)
(-0.007309705127 -0.01070034792 0)
(-0.007489817627 -0.01533197329 0)
(-0.004098225529 -0.01328530106 0)
(-0.003738298711 -0.01329773602 0)
(-0.003716181329 -0.01297049327 0)
(-0.004073264397 -0.01295808429 0)
(-0.007853339932 -0.01299373119 0)
(-0.008179047181 -0.01298573606 0)
(-0.008191065277 -0.01331612195 0)
(-0.007871188416 -0.0133235066 0)
(-0.0105597621 -0.01291891023 0)
(-0.01057840228 -0.01358040226 0)
(-0.009889491027 -0.0136003791 0)
(-0.009871160305 -0.01293893912 0)
(-0.01063602718 -0.01556624198 0)
(-0.009946992908 -0.01558622261 0)
(-0.009936689574 -0.01525553766 0)
(-0.009927126279 -0.01492489149 0)
(-0.01061645864 -0.01490459383 0)
(-0.01048484839 -0.0102714753 0)
(-0.01050334471 -0.01093229448 0)
(-0.009812897555 -0.01095238018 0)
(-0.009793853307 -0.01029176258 0)
(-0.009852031821 -0.01227758526 0)
(-0.01054106231 -0.01225748161 0)
(-0.007829922256 -0.01266505079 0)
(-0.008161948203 -0.012656307 0)
(-0.007668007787 -0.007701555184 0)
(-0.008006477349 -0.007692120466 0)
(-0.008019250633 -0.008023037239 0)
(-0.007684587243 -0.008032108501 0)
(-0.01041136552 -0.007622518638 0)
(-0.01042991297 -0.008284998645 0)
(-0.009739531116 -0.008305205472 0)
(-0.009720862535 -0.007642790765 0)
(-0.009775576523 -0.009630074653 0)
(-0.01046657161 -0.009609787377 0)
(-0.01035569862 -0.005638281032 0)
(-0.009664094096 -0.00565877178 0)
(-0.009701961163 -0.006980814216 0)
(-0.0103927736 -0.006960594133 0)
(-0.007649086146 -0.007371320252 0)
(-0.007992048921 -0.007361439358 0)
(-0.007332331342 -0.007710719204 0)
(-0.007307368278 -0.007381039681 0)
(-0.007354938025 -0.00804065598 0)
(-0.01065595343 -0.01622750971 0)
(-0.009967588213 -0.01624722346 0)
(-0.009957044512 -0.01591673061 0)
(-0.01057044102 -0.01829379531 0)
(-0.00987828342 -0.0182883204 0)
(-0.009955070119 -0.01791659604 0)
(-0.009989296612 -0.01757438112 0)
(-0.01067857236 -0.01756424431 0)
(-0.007795761438 -0.01834959896 0)
(-0.007914004853 -0.01797432025 0)
(-0.008242407334 -0.01796987479 0)
(-0.008132543411 -0.01835314597 0)
(-0.007623179013 -0.01826717421 0)
(-0.00770169958 -0.01796577137 0)
(-0.004344073959 -0.01856243801 0)
(-0.004328573824 -0.01823314444 0)
(-0.004661154891 -0.01823023275 0)
(-0.004676864638 -0.01855933515 0)
(-0.004189149464 -0.0159359989 0)
(-0.004532193666 -0.01592876302 0)
(-0.004546812299 -0.01625882257 0)
(-0.0042049794 -0.01626540546 0)
(-0.007531422765 -0.01300124022 0)
(-0.007500835161 -0.01267345782 0)
(-0.004421910998 -0.0129254321 0)
(-0.004519537322 -0.01319524484 0)
(-0.004174088428 -0.01560656867 0)
(-0.004519615811 -0.01559839437 0)
(-0.004438789554 -0.01361610113 0)
(-0.004104217873 -0.01361975138 0)
(-0.007559096604 -0.01332997431 0)
(-0.00375036983 -0.01362984424 0)
(-0.00384963745 -0.01594177149 0)
(-0.003832382341 -0.01561327079 0)
(-0.02190417012 -0.02850727638 0)
(-0.02465612983 -0.02834999736 3.585604036e-13)
(-0.01344626413 -0.02876765446 0)
(-0.01485593564 -0.02872425748 0)
(-0.01626560714 -0.0286808605 0)
(-0.01634712915 -0.03132895398 0)
(-0.01465210221 -0.02210310111 0)
(-0.01336472319 -0.02611894586 0)
(-0.0119551132 -0.02616234095 0)
(-0.01191434273 -0.02483798665 0)
(-0.01332395272 -0.02479459157 0)
(-0.007726141753 -0.02629253056 0)
(-0.00768537128 -0.02496817626 0)
(-0.009094999723 -0.02492478061 0)
(-0.009135770196 -0.0262491349 0)
(-0.008288259078 -0.02163528484 0)
(-0.007583878033 -0.02165635363 0)
(-0.007802533715 -0.01432558404 0)
(-0.008156778256 -0.01431437071 0)
(-0.008142506156 -0.0146487676 0)
(-0.007773798252 -0.01466116503 0)
(-0.009216994158 -0.01428154707 0)
(-0.009224267337 -0.014613803 0)
(-0.008871003671 -0.01462467828 0)
(-0.008867598176 -0.014292057 0)
(-0.009254583047 -0.01560655344 0)
(-0.00890260924 -0.01561732745 0)
(-0.008888870701 -0.01528705609 0)
(-0.00924305326 -0.01527602938 0)
(-0.006879503622 -0.02167803792 0)
(-0.006316488705 -0.02633592696 0)
(-0.006275718232 -0.02501157267 0)
(-0.007590020711 -0.006383087522 0)
(-0.007230779027 -0.006394577831 0)
(-0.007206467533 -0.006065863374 0)
(-0.00757114167 -0.006053836404 0)
(-0.007678495919 -0.009029242971 0)
(-0.007653598795 -0.009363905388 0)
(-0.007291516679 -0.009375729422 0)
(-0.007342401192 -0.009038419868 0)
(-0.007858863675 -0.01872575981 0)
(-0.00740352469 -0.01880750487 0)
(-0.01032061738 -0.01892273091 0)
(-0.009614582145 -0.01894446632 0)
(-0.009666204843 -0.01863933533 0)
(-0.01038231723 -0.02090893775 0)
(-0.009677308763 -0.02093002585 0)
(-0.009656563923 -0.02026816763 0)
(-0.01036173799 -0.02024645872 0)
(-0.009266843404 -0.01593680873 0)
(-0.008917691577 -0.01594724958 0)
(-0.009303362363 -0.01692906036 0)
(-0.008962684048 -0.01693874779 0)
(-0.008949049596 -0.01660785752 0)
(-0.009292063474 -0.01659803663 0)
(-0.007962965635 -0.0169647218 0)
(-0.007932545042 -0.01663576442 0)
(-0.008266272508 -0.01662709139 0)
(-0.00829003183 -0.01695686954 0)
(-0.003867714927 -0.0162701853 0)
(-0.00429599426 -0.01791065684 0)
(-0.007670688288 -0.01697162622 0)
(-0.007636285502 -0.01664291457 0)
(-0.005630550274 -0.01722727052 0)
(-0.005606870982 -0.01690149198 0)
(-0.005934491052 -0.01688063133 0)
(-0.006039019369 -0.01714204273 0)
(-0.004744208954 -0.02108189217 0)
(-0.004724441672 -0.02041938815 0)
(-0.005431035701 -0.02039640412 0)
(-0.005449702401 -0.02105955773 0)
(-0.004722371618 -0.01887834626 0)
(-0.004388793128 -0.0188824585 0)
(-0.007751999579 -0.01167647503 0)
(-0.007406758494 -0.0116865492 0)
(-0.007374397895 -0.01135697427 0)
(-0.007725149506 -0.01134629946 0)
(-0.00742225348 -0.01469347545 0)
(-0.007391306605 -0.01441662278 0)
(-0.004049127823 -0.0119066518 0)
(-0.003953359201 -0.01163918312 0)
(-0.003975307683 -0.01232433945 0)
(-0.009186545431 -0.01295847584 0)
(-0.009195862678 -0.01328912959 0)
(-0.008856164769 -0.01329866369 0)
(-0.00884690714 -0.01296794654 0)
(-0.008865274365 -0.01396057226 0)
(-0.009209639615 -0.01395064819 0)
(-0.007848286713 -0.01398898659 0)
(-0.008178329608 -0.01398042699 0)
(-0.008102332908 -0.0116658131 0)
(-0.008122735579 -0.01199655657 0)
(-0.007778527896 -0.01200659893 0)
(-0.00914462706 -0.01163483416 0)
(-0.009155268252 -0.01196649384 0)
(-0.008812012112 -0.01197644534 0)
(-0.008799650477 -0.01164490019 0)
(-0.008835944217 -0.01263783602 0)
(-0.009176622532 -0.01262814859 0)
(-0.007609511554 -0.006712011954 0)
(-0.007255954524 -0.006722957837 0)
(-0.007372289777 -0.008703295937 0)
(-0.007695062902 -0.008695391132 0)
(-0.008304525557 -0.01728767178 0)
(-0.007983459138 -0.01729441578 0)
(-0.009310482219 -0.01726033588 0)
(-0.008970913015 -0.01727005074 0)
(-0.009182700466 -0.01830757908 0)
(-0.008832545573 -0.01832143718 0)
(-0.008922077542 -0.01794771962 0)
(-0.009266149402 -0.01793626532 0)
(-0.005753766265 -0.01851811684 0)
(-0.005701209611 -0.01820430995 0)
(-0.006095778842 -0.01817677048 0)
(-0.006249185342 -0.01845170032 0)
(-0.00597502358 -0.01755505644 0)
(-0.005643005576 -0.01755745824 0)
(-0.007703002016 -0.01729947862 0)
(-0.005544647296 -0.01589346925 0)
(-0.00564648192 -0.01615878094 0)
(-0.005238654914 -0.01624386582 0)
(-0.005217915376 -0.01591497983 0)
(-0.00528319883 -0.01723599354 0)
(-0.005265051326 -0.01690770503 0)
(-0.004259535062 -0.01725414644 0)
(-0.00423993065 -0.01692473294 0)
(-0.004578513857 -0.01692058978 0)
(-0.004595632242 -0.01725044923 0)
(-0.007438547031 -0.01201614174 0)
(-0.004217969215 -0.01236575592 0)
(-0.004135862269 -0.01461406175 0)
(-0.0044839864 -0.01460543808 0)
(-0.004494795569 -0.01493715417 0)
(-0.004147261953 -0.01494575966 0)
(-0.00519183475 -0.01558939836 0)
(-0.005442305414 -0.01562688021 0)
(-0.004127143557 -0.01428185032 0)
(-0.004478630007 -0.01427164546 0)
(-0.007548782615 -0.01399414323 0)
(-0.009102744668 -0.0103123612 0)
(-0.009111975785 -0.01064221718 0)
(-0.008763194924 -0.01065270818 0)
(-0.008752491304 -0.01032302067 0)
(-0.008787223541 -0.01131323391 0)
(-0.00913336696 -0.01130307039 0)
(-0.008081741914 -0.01133495228 0)
(-0.008025835035 -0.009018919499 0)
(-0.008017184169 -0.009351911936 0)
(-0.009068371447 -0.008987809964 0)
(-0.0090760487 -0.00931919147 0)
(-0.008728680721 -0.009329577401 0)
(-0.008722783531 -0.008998017954 0)
(-0.008742804985 -0.009992378287 0)
(-0.009092568146 -0.00998179548 0)
(-0.006962700995 -0.01038255273 0)
(-0.006930229726 -0.01005618287 0)
(-0.006899019212 -0.009744366363 0)
(-0.007258976455 -0.009711119695 0)
(-0.007636533565 -0.009697772566 0)
(-0.007898631988 -0.01630716084 0)
(-0.007598609804 -0.01631448839 0)
(-0.007698395971 -0.01101685977 0)
(-0.007341526759 -0.01102821547 0)
(-0.007030645348 -0.01103680088 0)
(-0.006995222428 -0.01070935205 0)
(-0.007776966684 -0.01499348576 0)
(-0.00745428448 -0.01500594397 0)
(-0.003856485206 -0.01136860838 0)
(-0.003694227025 -0.01090954787 0)
(-0.009032504895 -0.007662750565 0)
(-0.009042269769 -0.007993944663 0)
(-0.008699380808 -0.008003823285 0)
(-0.008689369886 -0.007672636761 0)
(-0.008716332732 -0.00866647555 0)
(-0.00906014248 -0.008656507012 0)
(-0.008030862371 -0.008686223325 0)
(-0.007946990236 -0.006371790303 0)
(-0.007961870993 -0.006701164508 0)
(-0.008992965642 -0.006340390186 0)
(-0.009002690749 -0.006670292531 0)
(-0.008657654548 -0.006680421967 0)
(-0.008647193189 -0.006350603857 0)
(-0.008678930273 -0.007341525006 0)
(-0.009022616996 -0.007331560255 0)
(-0.006999029732 -0.007719625403 0)
(-0.006968316245 -0.0073905539 0)
(-0.006937228958 -0.007061740186 0)
(-0.007281651933 -0.007051691199 0)
(-0.007629335516 -0.007041357122 0)
(-0.00769545744 -0.008363207001 0)
(-0.007371240676 -0.008371217819 0)
(-0.007054351407 -0.008378448925 0)
(-0.00702859058 -0.008048855531 0)
(-0.007974178981 -0.01762896685 0)
(-0.008295512279 -0.01762289191 0)
(-0.008626434797 -0.01761430523 0)
(-0.008579739381 -0.01795948997 0)
(-0.008481161417 -0.01833736494 0)
(-0.00661144583 -0.01843907038 0)
(-0.006494082526 -0.01810213788 0)
(-0.006809123477 -0.01847386755 0)
(-0.00772176093 -0.01763242766 0)
(-0.004612817795 -0.0175788905 0)
(-0.004277973097 -0.01758267229 0)
(-0.005297429454 -0.01756544933 0)
(-0.005395639399 -0.01853141993 0)
(-0.005346803727 -0.01821608238 0)
(-0.007236787613 -0.01300815565 0)
(-0.007202347474 -0.0126812307 0)
(-0.007169078416 -0.01235334613 0)
(-0.007469906395 -0.01234519336 0)
(-0.007804608586 -0.01233618247 0)
(-0.004019858851 -0.01264270271 0)
(-0.004319127843 -0.01264130909 0)
(-0.004691984235 -0.01365226771 0)
(-0.004792618459 -0.01391958661 0)
(-0.004461779924 -0.0139427013 0)
(-0.004114475326 -0.01395154602 0)
(-0.007874557932 -0.01365495915 0)
(-0.007573749309 -0.01366034066 0)
(-0.007306903328 -0.01366153654 0)
(-0.007272293345 -0.0133360945 0)
(-0.003786900163 -0.01462326535 0)
(-0.003774887265 -0.01429244831 0)
(-0.006818605666 -0.005748279308 0)
(-0.006847010558 -0.006077360311 0)
(-0.006532543008 -0.006086856537 0)
(-0.006501611864 -0.005757914875 0)
(-0.006876067464 -0.006405620828 0)
(-0.006563374295 -0.006414754577 0)
(-0.007037906587 -0.009044468988 0)
(-0.006871328701 -0.009468090719 0)
(-0.006825763265 -0.009014180793 0)
(-0.00895772336 -0.01866360887 0)
(-0.00859772654 -0.01867776995 0)
(-0.008927739715 -0.01962564493 0)
(-0.008572739477 -0.01963411086 0)
(-0.008557365645 -0.01930272001 0)
(-0.008914291692 -0.0192948105 0)
(-0.007522537341 -0.01964181338 0)
(-0.007498172125 -0.01929715385 0)
(-0.00784213784 -0.01930565162 0)
(-0.007865549009 -0.01964172066 0)
(-0.008239076087 -0.01629766533 0)
(-0.008585832732 -0.01628742136 0)
(-0.008606402896 -0.01661760555 0)
(-0.00862415108 -0.01694812288 0)
(-0.005576099376 -0.0165775326 0)
(-0.005826649548 -0.01661599713 0)
(-0.007195820697 -0.01964202015 0)
(-0.007209194669 -0.0192746492 0)
(-0.006132002974 -0.0197012452 0)
(-0.006134610434 -0.01936314377 0)
(-0.006503677255 -0.0193370051 0)
(-0.006493268264 -0.01968088804 0)
(-0.006268527464 -0.01880119383 0)
(-0.005888789853 -0.01880611138 0)
(-0.007101440136 -0.01169484021 0)
(-0.007066686719 -0.01136533894 0)
(-0.006662714932 -0.007398853622 0)
(-0.006629230568 -0.007070175273 0)
(-0.006696026591 -0.007727722 0)
(-0.006906271329 -0.006733538183 0)
(-0.006595826184 -0.006742294875 0)
(-0.007066628337 -0.008709442548 0)
(-0.006795291036 -0.008711146117 0)
(-0.006762533036 -0.008385462353 0)
(-0.006729282889 -0.008056592082 0)
(-0.008634655993 -0.01727935577 0)
(-0.005680110977 -0.0178779594 0)
(-0.006022347962 -0.0178713025 0)
(-0.006346085719 -0.01785333204 0)
(-0.006225848662 -0.01759345093 0)
(-0.005249857785 -0.01657717062 0)
(-0.004905402097 -0.01658315697 0)
(-0.004892710177 -0.01625088314 0)
(-0.004876830078 -0.01592104714 0)
(-0.007135449258 -0.01202436439 0)
(-0.004857338647 -0.01525810363 0)
(-0.004838128408 -0.01493009412 0)
(-0.005166601589 -0.01490834522 0)
(-0.005267725011 -0.01517195483 0)
(-0.004813119502 -0.01460392551 0)
(-0.005064210014 -0.014641142 0)
(-0.00486481671 -0.01559041482 0)
(-0.004891336304 -0.0141842554 0)
(-0.007338645514 -0.01396262344 0)
(-0.01041683561 -0.001456129836 6.866729407e-14)
(-0.006721793068 -0.0009079728382 4.218847494e-14)
(-0.02201774309 -0.003450408818 1.706690345e-13)
(-0.01833754652 -0.002756931897 1.342814748e-13)
(-0.01818838484 -0.003716050632 1.331296184e-13)
(-0.02519409788 -0.004137489024 2.074174166e-13)
(-0.0300915964 -0.005954292842 3.047562203e-13)
(-0.02933923382 -0.00540730241 2.758904216e-13)
(-0.02952232475 -0.007470639211 2.771533003e-13)
(-0.02991427122 -0.006421671823 3.283762151e-13)
(-0.02695782554 -0.007058385761 3.562705686e-13)
(-0.02706739116 -0.009693167503 3.566869022e-13)
(-0.02432091695 -0.004552881563 0)
(-0.02151206599 -0.004638490534 0)
(-0.01870672122 -0.004723991566 0)
(-0.02010884 -0.004681258093 0)
(-0.0117459457 -0.003928194502 7.743805597e-14)
(-0.007868482337 -0.002523143658 4.941880238e-14)
(-0.02349853571 -0.009039978109 1.817990203e-13)
(-0.01983045445 -0.007258074046 1.45064516e-13)
(-0.02000988029 -0.00841323975 1.468131172e-13)
(-0.01896613214 -0.004884099486 1.386807336e-13)
(-0.0266081105 -0.01080537803 2.184502579e-13)
(-0.03106040563 -0.01536026595 3.128330928e-13)
(-0.03048812787 -0.01402437239 2.853828285e-13)
(-0.03052776468 -0.01617501407 2.86659585e-13)
(-0.02971719448 -0.009555257482 2.784994457e-13)
(-0.03068433736 -0.01644568452 3.346906086e-13)
(-0.02731389588 -0.01770581368 3.581718255e-13)
(-0.02720506484 -0.02032490843 3.583244812e-13)
(-0.02717960625 -0.0123343053 3.571309914e-13)
(-0.02463415569 -0.01515186963 0)
(-0.02182149654 -0.01522977641 0)
(-0.02178150679 -0.01390478237 0)
(-0.01901232666 -0.01531502577 0)
(-0.01897265394 -0.01399032983 0)
(-0.02037661808 -0.01394753955 0)
(-0.02041647534 -0.01527222981 0)
(-0.01885689218 -0.01002002068 0)
(-0.02026005666 -0.009977255015 0)
(-0.02029852278 -0.0113007567 0)
(-0.01889505074 -0.01134353183 0)
(-0.01333571645 -0.01283671523 0)
(-0.01263938118 -0.01285753633 0)