/*--------------------------------*- C++ -*----------------------------------*\
| =========                 |                                                 |
| \\      /  F ield         | OpenFOAM: The Open Source CFD Toolbox           |
|  \\    /   O peration     | Version:  v2012                                 |
|   \\  /    A nd           | Website:  www.openfoam.com                      |
|    \\/     M anipulation  |                                                 |
\*---------------------------------------------------------------------------*/
FoamFile
{
    version     2.0;
    format      ascii;
    class       pointVectorField;
    location    "0.49";
    object      pointDisplacement;
}
// * * * * * * * * * * * * * * * * * * * * * * * * * * * * * * * * * * * * * //

dimensions      [0 1 0 0 0 0 0];


internalField   nonuniform List<vector> 
6962
(
(0 0 0)
(0 0 0)
(0 0 0)
(0 0 0)
(0 0 0)
(0 0 0)
(0 0 0)
(0 0 0)
(0 0 0)
(0 0 0)
(-0.0001954802771 -0.0002867478506 5.606626274e-15)
(0 0 0)
(0 0 0)
(0 0 0)
(0 0 0)
(0 0 0)
(0 0 0)
(0 0 0)
(0 0 0)
(0 0 0)
(0 0 0)
(0 0 0)
(0 0 0)
(0 0 0)
(0 0 0)
(-0.0003474934066 -0.0005683980641 9.950373858e-15)
(-0.00031681732 -0.0005048065384 9.076073226e-15)
(-0.0002711544678 -0.0004206211833 7.771561172e-15)
(-0.001347489649 -0.00229486805 4.241051954e-14)
(-0.001447522963 -0.002532069382 4.554689959e-14)
(-0.002193370993 -0.004033484386 7.256695245e-14)
(-0.002071386957 -0.003708751494 6.854239398e-14)
(-0.004387510702 -0.009282916623 1.716682352e-13)
(-0.004466661921 -0.009705589529 1.747491041e-13)
(-0.005067567191 -0.01172155688 2.110811526e-13)
(-0.005003630783 -0.01126969568 2.084721284e-13)
(-0.005909632072 -0.01651712243 3.056166431e-13)
(-0.005924678265 -0.01700400242 3.062688991e-13)
(-0.005877676298 -0.01834620039 3.304440055e-13)
(-0.005850175121 -0.01778405781 3.290423489e-13)
(-0.004702251366 -0.01941580457 0)
(-0.004704910807 -0.01994467614 0)
(-0.004143321004 -0.01994785607 0)
(-0.004142040998 -0.01968351213 0)
(-0.004140834562 -0.01941914317 0)
(-0.002462392943 -0.01942864407 0)
(-0.002462798739 -0.01956069461 0)
(-0.002323746145 -0.01956138917 0)
(-0.002323352863 -0.01942937542 0)
(0 0 0)
(0 0 0)
(0 0 0)
(0 0 0)
(0 0 0)
(0 0 0)
(0 0 0)
(0 0 0)
(0 0 0)
(0 0 0)
(0 0 0)
(0 0 0)
(0 0 0)
(0 0 0)
(-0.0003295228193 -0.0005974207234 9.478529073e-15)
(-0.0003723809298 -0.0006593168081 1.071365219e-14)
(-0.000397910144 -0.0006876421761 1.146305273e-14)
(-0.001602487656 -0.00304130415 5.066780329e-14)
(-0.001550933144 -0.00301568981 4.904410211e-14)
(-0.002310632055 -0.004724151668 7.68274333e-14)
(-0.00237241197 -0.00473433327 7.88813459e-14)
(-0.004660266445 -0.0109966626 1.833672103e-13)
(-0.004583980187 -0.01108118334 1.803418526e-13)
(-0.005172590272 -0.01331420418 2.167155344e-13)
(-0.005247536241 -0.01318519794 2.198935478e-13)
(-0.006020751994 -0.01879633978 3.135408599e-13)
(-0.005968263509 -0.01908408395 3.106959134e-13)
(-0.005872453579 -0.02043516903 3.326922071e-13)
(-0.005912094766 -0.02008782497 3.350653088e-13)
(-0.004650785791 -0.0215368577 0)
(-0.004654035534 -0.02206581165 0)
(-0.004090874661 -0.02206927155 0)
(-0.004089250166 -0.02180485601 0)
(-0.004087624917 -0.0215403176 0)
(-0.00239816687 -0.02155069715 0)
(-0.00239979212 -0.02181523556 0)
(-0.00211822397 -0.02181696544 0)
(-0.002117410968 -0.0216846348 0)
(-0.00211659872 -0.02155242703 0)
(-0.002257382795 -0.02155156209 0)
(0 0 0)
(0 0 0)
(0 0 0)
(0 0 0)
(0 0 0)
(0 0 0)
(0 0 0)
(0 0 0)
(0 0 0)
(0 0 0)
(0 0 0)
(0 0 0)
(0 0 0)
(0 0 0)
(-7.698701694e-05 -0.0001526581282 2.220446049e-15)
(-0.0001396828301 -0.0002710436494 4.024558464e-15)
(-0.0002075085597 -0.0003938361548 5.967448757e-15)
(-0.001188708327 -0.002477922663 3.758104938e-14)
(-0.001015804591 -0.002165069617 3.212707878e-14)
(-0.001652516717 -0.003703681488 5.495603972e-14)
(-0.00186888801 -0.004096453752 6.21447338e-14)
(-0.004016625042 -0.01040913801 1.58012492e-13)
(-0.003724853106 -0.009870692439 1.465494393e-13)
(-0.004311184352 -0.01216367369 1.806194083e-13)
(-0.004606772239 -0.01271105159 1.929845173e-13)
(-0.005536914522 -0.01897018552 2.880751193e-13)
(-0.005293576985 -0.01854355662 2.754185768e-13)
(-0.005315267651 -0.02025651809 3.008704397e-13)
(-0.005523205996 -0.02058838382 3.126665593e-13)
(-0.00461263534 -0.02339772845 3.552297345e-13)
(-0.004538408189 -0.02352661149 3.493733081e-13)
(-0.004068477333 -0.02398079606 3.560762796e-13)
(-0.004098142859 -0.02364232075 3.589073483e-13)
(-0.002411167356 -0.02366675871 0)
(-0.002414417855 -0.02419583554 0)
(-0.001851269268 -0.02419929536 0)
(-0.001848018769 -0.02367021854 0)
(-0.002129599206 -0.02366848859 0)
(0 0 0)
(0 0 0)
(0 0 0)
(0 0 0)
(0 0 0)
(0 0 0)
(0 0 0)
(0 0 0)
(0 0 0)
(0 0 0)
(0 0 0)
(0 0 0)
(0 0 0)
(0 0 0)
(0 0 0)
(0 0 0)
(-1.891201175e-06 -3.910681886e-06 5.551115123e-17)
(-0.0004522828665 -0.001027638037 1.430799923e-14)
(-0.0002839919841 -0.0006585920402 8.978928712e-15)
(-0.0006600242338 -0.001609911882 2.19685381e-14)
(-0.0009062135794 -0.002165501687 3.015643291e-14)
(-0.002624380008 -0.007417853665 1.03334008e-13)
(-0.002213035312 -0.006386303275 8.715250743e-14)
(-0.002731127875 -0.008392563626 1.145611384e-13)
(-0.003169500425 -0.009539089684 1.32893696e-13)
(-0.004260912521 -0.01592184078 2.218641937e-13)
(-0.003828756542 -0.01460963979 1.994515664e-13)
(-0.003980098439 -0.01652085991 2.25569563e-13)
(-0.004384850617 -0.01782359188 2.483707684e-13)
(-0.004017684501 -0.02219698003 3.092803791e-13)
(-0.0037394861 -0.02109653851 2.880196082e-13)
(-0.003456931779 -0.02216379807 3.025635298e-13)
(-0.003687907866 -0.02315638902 3.22630811e-13)
(-0.00232137096 -0.02472583505 3.443911822e-13)
(-0.002211184712 -0.02404495384 3.281541705e-13)
(-0.001714735476 -0.02429423412 3.315264729e-13)
(-0.001795293828 -0.02491465804 3.469724508e-13)
(0 0 0)
(0 0 0)
(0 0 0)
(0 0 0)
(0 0 0)
(0 0 0)
(0 0 0)
(0 0 0)
(0 0 0)
(0 0 0)
(0 0 0)
(0 0 0)
(0 0 0)
(0 0 0)
(0 0 0)
(0 0 0)
(0 0 0)
(-1.66032753e-06 -4.083575408e-06 5.551115123e-17)
(0 0 0)
(-1.709698042e-05 -4.508325361e-05 5.828670879e-16)
(-0.000101023051 -0.0002614115124 3.358424649e-15)
(-0.001017024465 -0.003116341865 4.010680676e-14)
(-0.0006786230602 -0.002119784066 2.677025268e-14)
(-0.00100933136 -0.003358700958 4.241051954e-14)
(-0.001406474508 -0.004590543983 5.90777427e-14)
(-0.002393357946 -0.009707728265 1.249556014e-13)
(-0.001912238603 -0.007910985054 9.993395e-14)
(-0.002111850345 -0.009507619949 1.200983757e-13)
(-0.002591402175 -0.01143680742 1.472155731e-13)
(-0.002661547069 -0.01597557801 2.056410597e-13)
(-0.00225535876 -0.01381604006 1.745270595e-13)
(-0.002148846271 -0.01496685471 1.890571033e-13)
(-0.002514470647 -0.01715678557 2.208511152e-13)
(-0.001678911316 -0.01946001366 2.504524366e-13)
(-0.001456528926 -0.01725309119 2.179090242e-13)
(-0.00113750434 -0.01759379472 2.221833828e-13)
(-0.001309236325 -0.01979795982 2.547684286e-13)
(0 0 0)
(0 0 0)
(0 0 0)
(0 0 0)
(0 0 0)
(0 0 0)
(0 0 0)
(0 0 0)
(0 0 0)
(0 0 0)
(0 0 0)
(0 0 0)
(0 0 0)
(0 0 0)
(0 0 0)
(0 0 0)
(0 0 0)
(0 0 0)
(0 0 0)
(0 0 0)
(0 0 0)
(-4.3864452e-05 -0.0001447951903 1.734723476e-15)
(0 0 0)
(-3.188671914e-05 -0.0001141811605 1.346145417e-15)
(-0.0001580079501 -0.0005558859299 6.64746036e-15)
(-0.0006716466493 -0.002941922254 3.519406988e-14)
(-0.0003751813521 -0.001673539633 1.966482532e-14)
(-0.0005047970156 -0.002452194186 2.882416528e-14)
(-0.0008300899364 -0.003958868403 4.7351012e-14)
(-0.001078526826 -0.007012800728 8.387734951e-14)
(-0.0007456543748 -0.004942157729 5.809241976e-14)
(-0.0007544937434 -0.005692709589 6.690481502e-14)
(-0.001067374739 -0.007897980543 9.446610161e-14)
(-0.0007706926271 -0.009743769045 1.16545662e-13)
(-0.000564398369 -0.00728867635 8.565370635e-14)
(-0.0004450278493 -0.007538577619 8.859579737e-14)
(-0.0006054768511 -0.01002896064 1.1994572e-13)
(0 0 0)
(0 0 0)
(0 0 0)
(0 0 0)
(0 0 0)
(0 0 0)
(0 0 0)
(0 0 0)
(0 0 0)
(0 0 0)
(0 0 0)
(0 0 0)
(0 0 0)
(0 0 0)
(0 0 0)
(0 0 0)
(0 0 0)
(0 0 0)
(0 0 0)
(0 0 0)
(0 0 0)
(0 0 0)
(0 0 0)
(0 0 0)
(0 0 0)
(0 0 0)
(0 0 0)
(0 0 0)
(-4.93165745e-06 -2.524028751e-05 2.775557562e-16)
(-8.824068103e-05 -0.0006174785939 6.89726054e-15)
(-9.947287306e-06 -7.078710351e-05 7.771561172e-16)
(-2.171555301e-05 -0.0001761178663 1.942890293e-15)
(-0.0001116127427 -0.0008899213412 9.93649607e-15)
(-0.0001139368622 -0.001562030827 1.744437927e-14)
(-3.704862909e-05 -0.0005171788485 5.689893001e-15)
(-3.17034379e-05 -0.0005826932872 6.411537967e-15)
(-9.295992876e-05 -0.001676892445 1.873501354e-14)
(0 0 0)
(0 0 0)
(0 0 0)
(0 0 0)
(0 0 0)
(0 0 0)
(0 0 0)
(0 0 0)
(0 0 0)
(0 0 0)
(0 0 0)
(0 0 0)
(0 0 0)
(0 0 0)
(0 0 0)
(0 0 0)
(0 0 0)
(0 0 0)
(0 0 0)
(0 0 0)
(0 0 0)
(0 0 0)
(0 0 0)
(0 0 0)
(0 0 0)
(0 0 0)
(0 0 0)
(0 0 0)
(0 0 0)
(0 0 0)
(0 0 0)
(0 0 0)
(0 0 0)
(0 0 0)
(0 0 0)
(0 0 0)
(0 0 0)
(0 0 0)
(0 0 0)
(0 0 0)
(0 0 0)
(0 0 0)
(0 0 0)
(0 0 0)
(0 0 0)
(0 0 0)
(0 0 0)
(0 0 0)
(0 0 0)
(0 0 0)
(0 0 0)
(0 0 0)
(0 0 0)
(0 0 0)
(0 0 0)
(0 0 0)
(0 0 0)
(0 0 0)
(0 0 0)
(0 0 0)
(0 0 0)
(0 0 0)
(0 0 0)
(0 0 0)
(0 0 0)
(0 0 0)
(0 0 0)
(0 0 0)
(0 0 0)
(0 0 0)
(0 0 0)
(0 0 0)
(0 0 0)
(0 0 0)
(0 0 0)
(0 0 0)
(0 0 0)
(0 0 0)
(0 0 0)
(0 0 0)
(0 0 0)
(0 0 0)
(0 0 0)
(0 0 0)
(0 0 0)
(0 0 0)
(0 0 0)
(0 0 0)
(0 0 0)
(0 0 0)
(0 0 0)
(0 0 0)
(0 0 0)
(0 0 0)
(0 0 0)
(0 0 0)
(0 0 0)
(0 0 0)
(0 0 0)
(0 0 0)
(0 0 0)
(0 0 0)
(0 0 0)
(0 0 0)
(0 0 0)
(0 0 0)
(0 0 0)
(0 0 0)
(0 0 0)
(0 0 0)
(0 0 0)
(0 0 0)
(0 0 0)
(0 0 0)
(0 0 0)
(0 0 0)
(0 0 0)
(0 0 0)
(0 0 0)
(0 0 0)
(0 0 0)
(0 0 0)
(0 0 0)
(0 0 0)
(0 0 0)
(0 0 0)
(0 0 0)
(0 0 0)
(0 0 0)
(0 0 0)
(0 0 0)
(0 0 0)
(0 0 0)
(0 0 0)
(0 0 0)
(0 0 0)
(0 0 0)
(0 0 0)
(0 0 0)
(0 0 0)
(0 0 0)
(0 0 0)
(0 0 0)
(0 0 0)
(0 0 0)
(0 0 0)
(0 0 0)
(0 0 0)
(0 0 0)
(0 0 0)
(0 0 0)
(0 0 0)
(0 0 0)
(0 0 0)
(0 0 0)
(0 0 0)
(0 0 0)
(0 0 0)
(0 0 0)
(0 0 0)
(0 0 0)
(0 0 0)
(0 0 0)
(0 0 0)
(0 0 0)
(0 0 0)
(0 0 0)
(0 0 0)
(0 0 0)
(0 0 0)
(0 0 0)
(0 0 0)
(0 0 0)
(0 0 0)
(0 0 0)
(0 0 0)
(0 0 0)
(0 0 0)
(0 0 0)
(0 0 0)
(0 0 0)
(0 0 0)
(0 0 0)
(0 0 0)
(0 0 0)
(0 0 0)
(0 0 0)
(0 0 0)
(0 0 0)
(0 0 0)
(0 0 0)
(0 0 0)
(0 0 0)
(0 0 0)
(0 0 0)
(0 0 0)
(0 0 0)
(0 0 0)
(0 0 0)
(0 0 0)
(0 0 0)
(0 0 0)
(0 0 0)
(0 0 0)
(0 0 0)
(0 0 0)
(0 0 0)
(0 0 0)
(0 0 0)
(0 0 0)
(0 0 0)
(0 0 0)
(0 0 0)
(0 0 0)
(0 0 0)
(0 0 0)
(0 0 0)
(0 0 0)
(0 0 0)
(0 0 0)
(0 0 0)
(0 0 0)
(0 0 0)
(0 0 0)
(0 0 0)
(0 0 0)
(0 0 0)
(0 0 0)
(0 0 0)
(0 0 0)
(0 0 0)
(0 0 0)
(0 0 0)
(0 0 0)
(0 0 0)
(0 0 0)
(0 0 0)
(0 0 0)
(0 0 0)
(0 0 0)
(0 0 0)
(0 0 0)
(0 0 0)
(0 0 0)
(0 0 0)
(0 0 0)
(0 0 0)
(0 0 0)
(0 0 0)
(0 0 0)
(0 0 0)
(0 0 0)
(0 0 0)
(0 0 0)
(0 0 0)
(0 0 0)
(0 0 0)
(0 0 0)
(0 0 0)
(0 0 0)
(0 0 0)
(0 0 0)
(0 0 0)
(0 0 0)
(0 0 0)
(0 0 0)
(0 0 0)
(0 0 0)
(0 0 0)
(0 0 0)
(0 0 0)
(0 0 0)
(0 0 0)
(0 0 0)
(0 0 0)
(0 0 0)
(0 0 0)
(0 0 0)
(0 0 0)
(0 0 0)
(0 0 0)
(0 0 0)
(0 0 0)
(0 0 0)
(0 0 0)
(0 0 0)
(0 0 0)
(0 0 0)
(0 0 0)
(0 0 0)
(0 0 0)
(0 0 0)
(0 0 0)
(0 0 0)
(0 0 0)
(0 0 0)
(0 0 0)
(0 0 0)
(0 0 0)
(0 0 0)
(0 0 0)
(0 0 0)
(0 0 0)
(0 0 0)
(0 0 0)
(0 0 0)
(0 0 0)
(0 0 0)
(0 0 0)
(0 0 0)
(0 0 0)
(0 0 0)
(0 0 0)
(0 0 0)
(0 0 0)
(0 0 0)
(0 0 0)
(0 0 0)
(0 0 0)
(0 0 0)
(0 0 0)
(0 0 0)
(0 0 0)
(0 0 0)
(0 0 0)
(0 0 0)
(0 0 0)
(0 0 0)
(0 0 0)
(0 0 0)
(0 0 0)
(0 0 0)
(0 0 0)
(0 0 0)
(0 0 0)
(0 0 0)
(0 0 0)
(0 0 0)
(0 0 0)
(0 0 0)
(0 0 0)
(0 0 0)
(0 0 0)
(0 0 0)
(0 0 0)
(0 0 0)
(0 0 0)
(0 0 0)
(0 0 0)
(0 0 0)
(0 0 0)
(0 0 0)
(0 0 0)
(0 0 0)
(0 0 0)
(0 0 0)
(0 0 0)
(0 0 0)
(0 0 0)
(0 0 0)
(0 0 0)
(0 0 0)
(0 0 0)
(0 0 0)
(0 0 0)
(0 0 0)
(0 0 0)
(0 0 0)
(0 0 0)
(0 0 0)
(0 0 0)
(0 0 0)
(0 0 0)
(0 0 0)
(0 0 0)
(0 0 0)
(0 0 0)
(0 0 0)
(0 0 0)
(0 0 0)
(0 0 0)
(0 0 0)
(0 0 0)
(0 0 0)
(0 0 0)
(0 0 0)
(0 0 0)
(0 0 0)
(0 0 0)
(0 0 0)
(0 0 0)
(0 0 0)
(0 0 0)
(0 0 0)
(0 0 0)
(0 0 0)
(0 0 0)
(0 0 0)
(0 0 0)
(0 0 0)
(0 0 0)
(0 0 0)
(0 0 0)
(0 0 0)
(0 0 0)
(0 0 0)
(0 0 0)
(0 0 0)
(0 0 0)
(0 0 0)
(0 0 0)
(0 0 0)
(0 0 0)
(0 0 0)
(0 0 0)
(0 0 0)
(0 0 0)
(0 0 0)
(0 0 0)
(0 0 0)
(0 0 0)
(0 0 0)
(0 0 0)
(0 0 0)
(0 0 0)
(0 0 0)
(0 0 0)
(0 0 0)
(0 0 0)
(0 0 0)
(0 0 0)
(0 0 0)
(0 0 0)
(0 0 0)
(0 0 0)
(0 0 0)
(0 0 0)
(0 0 0)
(0 0 0)
(0 0 0)
(0 0 0)
(0 0 0)
(0 0 0)
(0 0 0)
(0 0 0)
(0 0 0)
(0 0 0)
(0 0 0)
(0 0 0)
(0 0 0)
(0 0 0)
(0 0 0)
(0 0 0)
(0 0 0)
(0 0 0)
(0 0 0)
(0 0 0)
(0 0 0)
(0 0 0)
(0 0 0)
(0 0 0)
(0 0 0)
(0 0 0)
(0 0 0)
(0 0 0)
(0 0 0)
(0 0 0)
(0 0 0)
(0 0 0)
(0 0 0)
(0 0 0)
(0 0 0)
(0 0 0)
(0 0 0)
(0 0 0)
(0 0 0)
(0 0 0)
(0 0 0)
(0 0 0)
(0 0 0)
(0 0 0)
(0 0 0)
(0 0 0)
(0 0 0)
(0 0 0)
(0 0 0)
(0 0 0)
(0 0 0)
(0 0 0)
(0 0 0)
(0 0 0)
(0 0 0)
(0 0 0)
(0 0 0)
(0 0 0)
(0 0 0)
(0 0 0)
(0 0 0)
(0 0 0)
(0 0 0)
(0 0 0)
(0 0 0)
(0 0 0)
(0 0 0)
(0 0 0)
(0 0 0)
(0 0 0)
(0 0 0)
(0 0 0)
(0 0 0)
(0 0 0)
(0 0 0)
(0 0 0)
(0 0 0)
(0 0 0)
(0 0 0)
(0 0 0)
(0 0 0)
(0 0 0)
(0 0 0)
(0 0 0)
(0 0 0)
(0 0 0)
(0 0 0)
(0 0 0)
(0 0 0)
(0 0 0)
(0 0 0)
(0 0 0)
(0 0 0)
(0 0 0)
(0 0 0)
(0 0 0)
(0 0 0)
(0 0 0)
(0 0 0)
(0 0 0)
(0 0 0)
(0 0 0)
(0 0 0)
(0 0 0)
(0 0 0)
(0 0 0)
(0 0 0)
(0 0 0)
(0 0 0)
(0 0 0)
(0 0 0)
(0 0 0)
(0 0 0)
(0 0 0)
(0 0 0)
(0 0 0)
(0 0 0)
(0 0 0)
(0 0 0)
(0 0 0)
(0 0 0)
(0 0 0)
(0 0 0)
(0 0 0)
(0 0 0)
(0 0 0)
(0 0 0)
(0 0 0)
(0 0 0)
(0 0 0)
(0 0 0)
(0 0 0)
(0 0 0)
(0 0 0)
(0 0 0)
(0 0 0)
(0 0 0)
(0 0 0)
(0 0 0)
(0 0 0)
(0 0 0)
(0 0 0)
(0 0 0)
(0 0 0)
(0 0 0)
(0 0 0)
(0 0 0)
(0 0 0)
(0 0 0)
(0 0 0)
(0 0 0)
(0 0 0)
(0 0 0)
(0 0 0)
(0 0 0)
(0 0 0)
(0 0 0)
(0 0 0)
(0 0 0)
(0 0 0)
(0 0 0)
(0 0 0)
(0 0 0)
(0 0 0)
(0 0 0)
(0 0 0)
(0 0 0)
(0 0 0)
(0 0 0)
(0 0 0)
(0 0 0)
(0 0 0)
(0 0 0)
(0 0 0)
(0 0 0)
(0 0 0)
(0 0 0)
(0 0 0)
(0 0 0)
(0 0 0)
(0 0 0)
(0 0 0)
(0 0 0)
(0 0 0)
(0 0 0)
(0 0 0)
(0 0 0)
(0 0 0)
(0 0 0)
(0 0 0)
(0 0 0)
(0 0 0)
(-0.002322970886 -0.01929720187 0)
(-0.002461998679 -0.0192964706 0)
(-0.002256569793 -0.02141923145 0)
(-0.002397353868 -0.02141836651 0)
(-0.004139725667 -0.01915465074 0)
(-0.004138567625 -0.0188901586 0)
(-0.004699788214 -0.01888688265 0)
(-0.00246162831 -0.01916418639 0)
(-0.002740150575 -0.01916268411 0)
(-0.002741062878 -0.01942717775 0)
(-0.00245924893 -0.01837089986 0)
(-0.004085999668 -0.02127577918 0)
(-0.004126013059 -0.02101867689 0)
(-0.004688334116 -0.02101452176 0)
(-0.002396541621 -0.02128615874 0)
(-0.002678122058 -0.02128442879 0)
(-0.002679747307 -0.0215489672 0)
(-0.002741974351 -0.01969153624 0)
(-0.002463255268 -0.01969300286 0)
(-0.002466482374 -0.02048627189 0)
(-0.002327356284 -0.02048700377 0)
(-0.002326728568 -0.02035483173 0)
(-0.002465854582 -0.02035408756 0)
(-0.001351844635 -0.02049217378 0)
(-0.001347231638 -0.0204265258 0)
(-0.001419247107 -0.02042593591 0)
(-0.001422354703 -0.02049175287 0)
(-0.001341786133 -0.01943517243 0)
(-0.00141665734 -0.01943440526 0)
(-0.001418290122 -0.01950016985 0)
(-0.001344502173 -0.01950085664 0)
(-0.002127973957 -0.02340395018 0)
(-0.002409542106 -0.0234022203 0)
(-0.00134053181 -0.01936920892 0)
(-0.001416055153 -0.01936838859 0)
(-0.002459643722 -0.01850315934 0)
(-0.002320616004 -0.0185039029 0)
(-0.001267872856 -0.01943585999 0)
(-0.001265250369 -0.01937000319 0)
(-0.001272104764 -0.02155687811 0)
(-0.001271544223 -0.02142344005 0)
(-0.001341294688 -0.02142338015 0)
(-0.001411503738 -0.02142356317 0)
(-0.001412602359 -0.02155638356 0)
(-0.001426002472 -0.0205574928 0)
(-0.001356713201 -0.02055782019 0)
(-0.002467159011 -0.02061840677 0)
(-0.002328020484 -0.02061911415 0)
(-0.001296145315 -0.02055790969 0)
(-0.001290786801 -0.02049231544 0)
(-0.001131661038 -0.02155774096 0)
(-0.0011319741 -0.02142429753 0)
(-0.001202153766 -0.02142349774 0)
(-0.001271920199 -0.01950143772 0)
(-0.001285094459 -0.02042678468 0)
(-0.0006182052473 -0.02000159587 0)
(-0.0005463035736 -0.02000230794 0)
(-0.0005434981954 -0.01993688231 0)
(-0.0006148321358 -0.01993616145 0)
(-0.001369150811 -0.01996186479 0)
(-0.001434200509 -0.01996187063 0)
(-0.001434974638 -0.02002787396 0)
(-0.001371091673 -0.02002777494 0)
(-0.001909714082 -0.01996023939 0)
(-0.001910181765 -0.02009236327 0)
(-0.001772578505 -0.02009296291 0)
(-0.001772172332 -0.01996085095 0)
(-0.001911918301 -0.02048901546 0)
(-0.001774290467 -0.02048961526 0)
(-0.001773860071 -0.02042356067 0)
(-0.001773577195 -0.02035751746 0)
(-0.001911266086 -0.02035685585 0)
(-0.0019077801 -0.01943144937 0)
(-0.00190822238 -0.01956343825 0)
(-0.001770312021 -0.01956405207 0)
(-0.001769759385 -0.01943210074 0)
(-0.001771606503 -0.01982875225 0)
(-0.001909234186 -0.01982812788 0)
(-0.001366092967 -0.01989614582 0)
(-0.001432407543 -0.0198960333 0)
(-0.001358182943 -0.01890464786 0)
(-0.001425787047 -0.01890442911 0)
(-0.001426709299 -0.01897054212 0)
(-0.001359866685 -0.01897070703 0)
(-0.001906139194 -0.01890236266 0)
(-0.001906583512 -0.01903468328 0)
(-0.001768685591 -0.0190353216 0)
(-0.001768216775 -0.01890301342 0)
(-0.001769365197 -0.01929993955 0)
(-0.001907385912 -0.01929928818 0)
(-0.001904785593 -0.01850603988 0)
(-0.001766642234 -0.01850672885 0)
(-0.001767699339 -0.01877079155 0)
(-0.001905683269 -0.0187701527 0)
(-0.001356030141 -0.01883864071 0)
(-0.001424533274 -0.01883835501 0)
(-0.00129113767 -0.0189048263 0)
(-0.001287776284 -0.01883890031 0)
(-0.001294027464 -0.01897079205 0)
(-0.001912643785 -0.02062110089 0)
(-0.001775150805 -0.02062165071 0)
(-0.001774671488 -0.02055563328 0)
(-0.001885414869 -0.02103310601 0)
(-0.001747288803 -0.02102860959 0)
(-0.001764443177 -0.02095479189 0)
(-0.001772957525 -0.02088665493 0)
(-0.00191058515 -0.02088802112 0)
(-0.0013313211 -0.02103059995 0)
(-0.001356767613 -0.02095627668 0)
(-0.001422337817 -0.02095700428 0)
(-0.001398524528 -0.02103296403 0)
(-0.001297279383 -0.02101329951 0)
(-0.001314434031 -0.02095352635 0)
(-0.0006413259735 -0.02105610863 0)
(-0.0006398514667 -0.02099030621 0)
(-0.0007062481644 -0.02099136049 0)
(-0.0007077654492 -0.02105712579 0)
(-0.0006233187861 -0.02053111588 0)
(-0.0006918251643 -0.02053135852 0)
(-0.0006931199585 -0.0205973095 0)
(-0.0006248585648 -0.02059694248 0)
(-0.001304859995 -0.01996178057 0)
(-0.001300366635 -0.01989620558 0)
(-0.0006845817226 -0.0199313586 0)
(-0.0007027409123 -0.01998569264 0)
(-0.0006219325945 -0.02046528834 0)
(-0.0006909392241 -0.02046535588 0)
(-0.000684554315 -0.02006929747 0)
(-0.0006177566638 -0.02006838082 0)
(-0.001308767095 -0.02002753118 0)
(-0.000547079816 -0.0200686553 0)
(-0.00055552462 -0.02053059855 0)
(-0.0005536959257 -0.02046494575 0)
(-0.004097375659 -0.0231274252 0)
(-0.004648477723 -0.02306507849 3.581995811e-13)
(-0.002407917612 -0.02313780476 0)
(-0.002689498049 -0.02313607481 0)
(-0.002971078485 -0.02313434486 0)
(-0.002974328229 -0.02366329881 0)
(-0.002681372556 -0.02181350561 0)
(-0.002404667113 -0.02260872793 0)
(-0.002123098963 -0.02261045781 0)
(-0.002121473714 -0.02234591939 0)
(-0.002403041864 -0.02234418952 0)
(-0.001278366254 -0.02261564761 0)
(-0.001276741004 -0.02235110919 0)
(-0.00155831284 -0.0223493793 0)
(-0.00155993809 -0.02261391771 0)
(-0.001413465264 -0.02168883677 0)
(-0.001272768901 -0.02168957829 0)
(-0.0013524607 -0.02022744957 0)
(-0.001423222198 -0.0202269534 0)
(-0.001418729143 -0.02029362803 0)
(-0.00134507497 -0.02029428943 0)
(-0.001635000145 -0.02022561543 0)
(-0.001634818004 -0.02029196868 0)
(-0.001564253949 -0.02029240221 0)
(-0.001565209867 -0.02022599505 0)
(-0.001635987152 -0.02049026835 0)
(-0.001565681048 -0.02049068801 0)
(-0.001564562959 -0.02042469908 0)
(-0.001635311168 -0.02042423985 0)
(-0.001132070835 -0.0216904427 0)
(-0.0009967895031 -0.02261737754 0)
(-0.0009951642537 -0.02235283912 0)
(-0.001349100402 -0.01864110139 0)
(-0.001277340125 -0.01864162828 0)
(-0.001274104045 -0.01857589811 0)
(-0.001346951266 -0.01857529082 0)
(-0.001353747518 -0.01916970271 0)
(-0.001347132429 -0.01923637809 0)
(-0.001274803567 -0.01923695762 0)
(-0.001286618694 -0.01916988167 0)
(-0.001342066405 -0.02110599105 0)
(-0.001250779864 -0.02112006807 0)
(-0.001832457917 -0.02115741155 0)
(-0.001691428103 -0.021158278 0)
(-0.001703232334 -0.02109762844 0)
(-0.001835005997 -0.02155415705 0)
(-0.001694184306 -0.02155489935 0)
(-0.001693298337 -0.02142269203 0)
(-0.001834156134 -0.02142182664 0)
(-0.001636810277 -0.0205562468 0)
(-0.001567069072 -0.02055661384 0)
(-0.001639220031 -0.02075447742 0)
(-0.001571173823 -0.02075473574 0)
(-0.001570079554 -0.02068862379 0)
(-0.001638592591 -0.02068835032 0)
(-0.001371504712 -0.02075500403 0)
(-0.001367050464 -0.02068919534 0)
(-0.001433704311 -0.02068910531 0)
(-0.001436824949 -0.02075504507 0)
(-0.0005575178842 -0.02059623805 0)
(-0.0006349344791 -0.02092577825 0)
(-0.001313132905 -0.02075494487 0)
(-0.001307882613 -0.02068916565 0)
(-0.0009046691577 -0.0207959386 0)
(-0.0009015448259 -0.02073079754 0)
(-0.0009670395834 -0.02072824486 0)
(-0.0009866177076 -0.02078093596 0)
(-0.0007088026783 -0.02156095325 0)
(-0.0007081150032 -0.02142862184 0)
(-0.0008492624913 -0.02142750892 0)
(-0.0008497272984 -0.02155996458 0)
(-0.0007152798134 -0.02112102342 0)
(-0.0006486781289 -0.02112020386 0)
(-0.001355401055 -0.0196984453 0)
(-0.001286442227 -0.01969875838 0)
(-0.001281603796 -0.01963281688 0)
(-0.001351665465 -0.01963241102 0)
(-0.001274748596 -0.02029900981 0)
(-0.001269933082 -0.0202435985 0)
(-0.0006151848947 -0.01972617936 0)
(-0.000597384971 -0.01967232232 0)
(-0.0005983966169 -0.01980918581 0)
(-0.001635428782 -0.01996138387 0)
(-0.001635662511 -0.02002742738 0)
(-0.001567812743 -0.02002765992 0)
(-0.001567591226 -0.01996160405 0)
(-0.001566376098 -0.02015982007 0)
(-0.001635159373 -0.02015953265 0)
(-0.001363248088 -0.02016049052 0)
(-0.001429165946 -0.02016040502 0)
(-0.001425379173 -0.01969803995 0)
(-0.001427825084 -0.01976415588 0)
(-0.001359072677 -0.01976446769 0)
(-0.001633570911 -0.01969698205 0)
(-0.001634063949 -0.01976323285 0)
(-0.001565501915 -0.01976353121 0)
(-0.001564664917 -0.0196972948 0)
(-0.001567026353 -0.01989566088 0)
(-0.001635072561 -0.01989540256 0)
(-0.00135137326 -0.01870684976 0)
(-0.001280750303 -0.01870729593 0)
(-0.001294232337 -0.01910313872 0)
(-0.001358695946 -0.01910314816 0)
(-0.00143809116 -0.02082114367 0)
(-0.001373973913 -0.02082091093 0)
(-0.001639012109 -0.02082063422 0)
(-0.001571187141 -0.02082090347 0)
(-0.001608357418 -0.02102903308 0)
(-0.001538399199 -0.02103007726 0)
(-0.0015581073 -0.0209559244 0)
(-0.00162683954 -0.02095533011 0)
(-0.0009229151075 -0.02105419432 0)
(-0.0009139680539 -0.02099130077 0)
(-0.0009928585454 -0.02098774424 0)
(-0.001022126161 -0.02104337394 0)
(-0.0009718133303 -0.0208630578 0)
(-0.0009055315262 -0.02086190452 0)
(-0.001317970452 -0.02082054232 0)
(-0.000894082024 -0.02052929265 0)
(-0.000913103314 -0.02058274899 0)
(-0.0008312836263 -0.02059772626 0)
(-0.0008287613431 -0.02053197943 0)
(-0.0008352957517 -0.02079597161 0)
(-0.0008332878941 -0.02073035677 0)
(-0.0006308856646 -0.02079456107 0)
(-0.0006285925438 -0.02072871453 0)
(-0.0006961933098 -0.02072955253 0)
(-0.0006979880326 -0.02079547586 0)
(-0.00129116639 -0.01976470057 0)
(-0.0006466276107 -0.01981864571 0)
(-0.0006191833429 -0.02026699838 0)
(-0.000688710487 -0.020266989 0)
(-0.0006892367756 -0.02033325188 0)
(-0.0006198275864 -0.02033326054 0)
(-0.0008251567418 -0.0204668659 0)
(-0.0008749657677 -0.02047557886 0)
(-0.0006190767402 -0.0202006469 0)
(-0.0006892827707 -0.02020033845 0)
(-0.001303442434 -0.02016004698 0)
(-0.001631714474 -0.01943281368 0)
(-0.001631934934 -0.01949869754 0)
(-0.001562267526 -0.0194990764 0)
(-0.001561752329 -0.01943321894 0)
(-0.001563815481 -0.01963103391 0)
(-0.001632954852 -0.01963070743 0)
(-0.00142289625 -0.01963189967 0)
(-0.001423126334 -0.01916935019 0)
(-0.00141976217 -0.01923577214 0)
(-0.001631367069 -0.01916826742 0)
(-0.00163126988 -0.01923444812 0)
(-0.001561884996 -0.01923481297 0)
(-0.001562338356 -0.0191686055 0)
(-0.001561444879 -0.01936717588 0)
(-0.001631308803 -0.01936678352 0)
(-0.001204221751 -0.0194363002 0)
(-0.001199345469 -0.01937099788 0)
(-0.001194649266 -0.01930860658 0)
(-0.001266659353 -0.0193037407 0)
(-0.001342084476 -0.01930293326 0)
(-0.00136189739 -0.02062344009 0)
(-0.001301977653 -0.02062342731 0)
(-0.001347945526 -0.01956652409 0)
(-0.00127665945 -0.01956703578 0)
(-0.001214566051 -0.01956722066 0)
(-0.001209105933 -0.01950168848 0)
(-0.001344073213 -0.02036063542 0)
(-0.00127960536 -0.02036153528 0)
(-0.0005793796912 -0.01961783988 0)
(-0.000549250754 -0.01952541462 0)
(-0.001630724097 -0.01890361239 0)
(-0.001631044514 -0.01896976595 0)
(-0.001562556126 -0.01897005156 0)
(-0.001562186562 -0.0189038983 0)
(-0.001562681134 -0.01910239871 0)
(-0.001631353751 -0.01910209968 0)
(-0.001425765793 -0.01910296956 0)
(-0.001420406213 -0.01864060187 0)
(-0.001421756697 -0.01870641734 0)
(-0.001629334791 -0.01863947801 0)
(-0.001629653623 -0.01870537354 0)
(-0.001560735418 -0.01870569866 0)
(-0.001560269218 -0.01863981632 0)
(-0.001561731064 -0.01883775785 0)
(-0.001630379107 -0.01883745897 0)
(-0.001224567677 -0.01890496496 0)
(-0.001220055529 -0.01883913205 0)
(-0.001215467505 -0.01877334876 0)
(-0.001284262916 -0.01877303669 0)
(-0.001353710539 -0.01877268374 0)
(-0.001360408192 -0.01903684695 0)
(-0.001295655914 -0.01903685157 0)
(-0.001232370021 -0.01903673659 0)
(-0.00122884898 -0.01897082387 0)
(-0.00137047648 -0.02088764088 0)
(-0.001434643705 -0.02088800847 0)
(-0.001500737267 -0.02088792189 0)
(-0.001489719548 -0.02095659031 0)
(-0.001468185445 -0.02103152849 0)
(-0.001094494588 -0.02104263443 0)
(-0.001072726002 -0.02097480638 0)
(-0.001133779457 -0.02105055193 0)
(-0.001320077427 -0.0208870904 0)
(-0.0006998031358 -0.02086111645 0)
(-0.0006329503442 -0.02086022471 0)
(-0.0008365160692 -0.02086180017 0)
(-0.0008513684308 -0.02105508851 0)
(-0.0008431716033 -0.02099190775 0)
(-0.001246017523 -0.01996171202 0)
(-0.001240750989 -0.01989628923 0)
(-0.00123572292 -0.01983068066 0)
(-0.00129580755 -0.01983053269 0)
(-0.001362657611 -0.01983038002 0)
(-0.0006057233889 -0.01987294942 0)
(-0.0006654636115 -0.0198741429 0)
(-0.000734913516 -0.0200777613 0)
(-0.0007536853388 -0.02013161237 0)
(-0.0006875370993 -0.02013459913 0)
(-0.0006181724451 -0.02013465667 0)
(-0.001370134321 -0.02009394864 0)
(-0.001310067182 -0.02009354357 0)
(-0.001256799486 -0.02009247006 0)
(-0.00125149176 -0.02002734242 0)
(-0.0005494860893 -0.02026711939 0)
(-0.0005487151183 -0.02020103004 0)
(-0.001198249453 -0.01851060181 0)
(-0.001202300763 -0.01857642526 0)
(-0.001139487101 -0.01857677431 0)
(-0.001134930871 -0.01851096625 0)
(-0.001206486249 -0.01864208816 0)
(-0.001144028531 -0.01864237358 0)
(-0.001225812558 -0.01916959173 0)
(-0.001190480877 -0.01925332647 0)
(-0.001183618203 -0.01916250307 0)
(-0.001561701773 -0.02109898946 0)
(-0.001489777639 -0.02110004571 0)
(-0.001550986351 -0.02129086209 0)
(-0.001480087528 -0.02129080618 0)
(-0.001478648545 -0.02122458576 0)
(-0.001549929018 -0.02122476221 0)
(-0.001270431836 -0.02128717927 0)
(-0.001267263442 -0.02121826625 0)
(-0.001335876382 -0.02122165381 0)
(-0.001338896595 -0.02128884751 0)
(-0.001429895905 -0.02062321892 0)
(-0.00149915807 -0.02062287941 0)
(-0.001501640163 -0.02068888453 0)
(-0.001503557357 -0.02075494227 0)
(-0.0008969959399 -0.02066598471 0)
(-0.0009468160031 -0.02067489421 0)
(-0.001205218965 -0.02128561393 0)
(-0.001209694904 -0.02121235334 0)
(-0.0009925922751 -0.02129220385 0)
(-0.0009947753127 -0.02122473244 0)
(-0.001068568696 -0.02122133009 0)
(-0.001064800061 -0.02128991711 0)
(-0.001024268187 -0.02111322711 0)
(-0.0009484492931 -0.0211123413 0)
(-0.001225460648 -0.01969891186 0)
(-0.001220144254 -0.0196329733 0)
(-0.00115901743 -0.01883928588 0)
(-0.00115395029 -0.01877351782 0)
(-0.001164049165 -0.01890509102 0)
(-0.001210902352 -0.0187076882 0)
(-0.001148895189 -0.01870790942 0)
(-0.001233192824 -0.01910286249 0)
(-0.001179026176 -0.01910186824 0)
(-0.00117408929 -0.01903670146 0)
(-0.001169069842 -0.01897089624 0)
(-0.001504025293 -0.02082110721 0)
(-0.0009113616282 -0.02092605824 0)
(-0.0009797040404 -0.02092641247 0)
(-0.001044409685 -0.02092441757 0)
(-0.001021688609 -0.02087195467 0)
(-0.0008318806845 -0.02066430819 0)
(-0.0007630987218 -0.02066380921 0)
(-0.0007621993832 -0.02059742574 0)
(-0.0007606517039 -0.02053151318 0)
(-0.00123062837 -0.01976485133 0)
(-0.0007600212492 -0.0203990954 0)
(-0.0007577999003 -0.02033353103 0)
(-0.0008234693046 -0.02033080525 0)
(-0.0008423570104 -0.02038391836 0)
(-0.000754412099 -0.02026830558 0)
(-0.00080434615 -0.02027696863 0)
(-0.0007598797306 -0.02046546069 0)
(-0.0007720876885 -0.02018492507 0)
(-0.001261654572 -0.02015272237 0)
(-0.002073205135 -0.003611106274 6.861178292e-14)
(-0.001339478427 -0.002219199056 4.214684157e-14)
(-0.004356840453 -0.00896841463 1.70502501e-13)
(-0.003636778807 -0.007058374435 1.341565747e-13)
(-0.00360562426 -0.007193281181 1.330047184e-13)
(-0.004972685133 -0.01089715125 2.072231275e-13)
(-0.005885006183 -0.01600582184 3.044509089e-13)
(-0.005756797664 -0.01449069949 2.756128659e-13)
(-0.005784702677 -0.01496422007 2.768618668e-13)
(-0.005829922264 -0.01724658019 3.280431482e-13)
(-0.005214257251 -0.01871549501 3.559097461e-13)
(-0.005222919314 -0.01926215793 3.563260798e-13)
(-0.004697546907 -0.01835806994 0)
(-0.004136486048 -0.01836134492 0)
(-0.003576125547 -0.01836461559 0)
(-0.003856195215 -0.01836298094 0)
(-0.002334400009 -0.004530277727 7.735478924e-14)
(-0.001566516926 -0.002891669883 4.937716902e-14)
(-0.004633911775 -0.01062745933 1.81618609e-13)
(-0.003922318381 -0.008481523503 1.449118603e-13)
(-0.00395510616 -0.008797593389 1.466604616e-13)
(-0.003756804712 -0.007697150616 1.385558335e-13)
(-0.005229482951 -0.01276776719 2.182282133e-13)
(-0.006032247469 -0.01828029274 3.125139036e-13)
(-0.005946212077 -0.01667615585 2.850775171e-13)
(-0.005944669961 -0.0171683119 2.863681514e-13)
(-0.005814737173 -0.01544656436 2.782080122e-13)
(-0.005932796326 -0.01955779738 3.343436639e-13)
(-0.005231554376 -0.02093477695 3.57811003e-13)
(-0.005196856462 -0.02146376093 3.579497809e-13)
(-0.005232034355 -0.01981086638 3.567562912e-13)
(-0.00470794867 -0.02047514275 0)
(-0.00414616558 -0.02047686166 0)
(-0.004144699306 -0.0202121994 0)
(-0.003585042834 -0.02048006329 0)
(-0.003583638372 -0.02021546209 0)
(-0.003864076649 -0.02021382517 0)
(-0.003865517972 -0.02047842615 0)
(-0.003580056379 -0.0194224287 0)