/*--------------------------------*- C++ -*----------------------------------*\
| =========                 |                                                 |
| \\      /  F ield         | OpenFOAM: The Open Source CFD Toolbox           |
|  \\    /   O peration     | Version:  v2012                                 |
|   \\  /    A nd           | Website:  www.openfoam.com                      |
|    \\/     M anipulation  |                                                 |
\*---------------------------------------------------------------------------*/
FoamFile
{
    version     2.0;
    format      ascii;
    class       volVectorField;
    location    "0.49";
    object      U;
}
// * * * * * * * * * * * * * * * * * * * * * * * * * * * * * * * * * * * * * //

dimensions      [0 1 -1 0 0 0 0];


internalField   nonuniform List<vector> 
3259
(
(101.2109796 -0.1757105465 6.475781982e-21)
(101.1565344 -0.5309920879 1.023168879e-19)
(101.0513784 -0.8992934123 -2.061786242e-19)
(100.8790482 -1.3089366 -6.149490394e-22)
(100.5720442 -1.605062663 -1.632530602e-21)
(100.203914 -2.068782003 0)
(99.71145154 -2.64631786 1.107789231e-19)
(99.12341542 -3.20333457 -2.37573477e-19)
(98.291477 -4.015551382 2.50620277e-19)
(97.09299112 -5.042669196 1.641120317e-20)
(95.44898077 -6.373304038 0)
(93.6357734 -7.690502801 -1.166659678e-19)
(101.5582476 -0.1895972322 0)
(101.513713 -0.5739952504 0)
(101.428126 -0.9708286555 0)
(101.287399 -1.410978032 0)
(101.0188635 -1.7533546 0)
(100.7124774 -2.263514049 0)
(100.3220335 -2.896101503 -5.31687879e-20)
(99.85628139 -3.502464226 -2.062734016e-19)
(99.21502304 -4.37396087 1.132443e-19)
(98.27909157 -5.498882023 -5.718431282e-20)
(97.03789388 -7.09786201 -8.24531448e-20)
(95.69708973 -9.447781317 -1.463850473e-19)
(101.927227 -0.1981980601 0)
(101.8934616 -0.6008894077 0)
(101.8296773 -1.01515004 0)
(101.7223843 -1.467574907 0)
(101.4926053 -1.836477079 0)
(101.2593708 -2.366707779 0)
(100.97123 -3.003409078 0)
(100.6242206 -3.635667599 0)
(100.1844038 -4.493164678 1.976401684e-21)
(99.54426831 -5.581136799 0)
(98.87132204 -7.06335291 2.212197926e-20)
(98.33554051 -9.188213594 2.229445416e-19)
(102.3080497 -0.201688653 0)
(102.2845889 -0.6117406024 0)
(102.2417428 -1.032480398 0)
(102.1662445 -1.483519847 0)
(101.9736714 -1.864494279 0)
(101.8063088 -2.391014631 0)
(101.608335 -3.002473416 -1.613541719e-22)
(101.3637366 -3.628391257 0)
(101.0833239 -4.417662029 2.338392104e-19)
(100.6678336 -5.361190698 -1.034574849e-21)
(100.3254353 -6.507517452 9.975390965e-20)
(97.35974435 -7.432391372 -4.286604675e-20)
(102.6913102 -0.2006798793 0)
(102.6768722 -0.6083900292 0)
(102.6519524 -1.025824797 0)
(102.6038061 -1.464647251 0)
(102.4447642 -1.845286212 0)
(102.3323634 -2.349923085 0)
(102.2057526 -2.915868689 0)
(102.0386155 -3.50316924 1.71827895e-20)
(101.8552709 -4.202554288 3.168280453e-20)
(101.5615846 -4.968380935 4.714455261e-19)
(101.312298 -5.785715637 -1.797626209e-19)
(95.97763222 -6.015642498 -1.132839449e-19)
(103.0687483 -0.1959619606 0)
(103.0617571 -0.5933835269 0)
(103.0510869 -0.9994615379 0)
(103.0246865 -1.417542046 0)
(102.894139 -1.78741246 0)
(102.8230652 -2.258524569 0)
(102.7463298 -2.769432721 0)
(102.6276697 -3.29644349 0)
(102.491361 -3.890165947 0)
(102.2275129 -4.49731554 0)
(101.9838101 -5.088473593 -1.466295865e-19)
(95.32993084 -5.081144663 -1.364281907e-20)
(103.4338243 -0.1883451297 0)
(103.432634 -0.5693396347 0)
(103.4324983 -0.9579234999 0)
(103.4220139 -1.349622497 0)
(103.3136065 -1.70111519 0)
(103.2704604 -2.132701891 0)
(103.2235897 -2.586350962 0)
(103.1290797 -3.048320907 0)
(103.0024327 -3.53735121 0)
(102.7252908 -4.013353426 2.302274935e-21)
(102.4104728 -4.446695036 -1.919052286e-21)
(95.6006435 -4.441263885 -4.319085892e-20)
(103.7817062 -0.178632244 0)
(103.7846824 -0.5388338626 0)
(103.79152 -0.9056556717 0)
(103.7914371 -1.26801435 0)
(103.6989624 -1.596359372 0)
(103.6720153 -1.986323971 0)
(103.6392859 -2.386744564 0)
(103.5505601 -2.784694519 0)
(103.4110515 -3.185727357 0)
(103.1047438 -3.557952666 0)
(102.6785641 -3.87591689 0)
(96.10258127 -3.891231124 0)
(104.1091309 -0.1675789104 0)
(104.1147608 -0.5042692177 0)
(104.1253648 -0.8467099242 0)
(104.1308251 -1.178860014 0)
(104.0489439 -1.481586899 0)
(104.0287226 -1.830782307 0)
(103.9975797 -2.183436066 0)
(103.9036824 -2.522843305 0)
(103.7390013 -2.85240806 0)
(103.3970011 -3.146818617 0)
(102.8501382 -3.383036355 0)
(96.56344927 -3.409965387 0)
(104.4142033 -0.155838446 0)
(104.4211922 -0.4677240161 0)
(104.432889 -0.7845742304 0)
(104.4398441 -1.08698088 0)
(104.3644577 -1.363427518 0)
(104.3437452 -1.674491575 0)
(104.3054273 -1.984400813 0)
(104.19969 -2.273022637 0)
(104.0042743 -2.545282936 0)
(103.6257298 -2.781204579 0)
(102.96059 -2.959371014 0)
(96.97278267 -2.996663363 0)
(104.6962011 -0.1439350116 0)
(104.7035022 -0.4308553037 0)
(104.714226 -0.7220477028 0)
(104.7195182 -0.9960393363 0)
(104.6474221 -1.246778074 0)
(104.6211507 -1.523165154 0)
(104.5697925 -1.794587101 0)
(104.4486031 -2.040958399 0)
(104.2208843 -2.267326998 0)
(103.8076326 -2.458846275 0)
(103.0301053 -2.594605914 0)
(97.3290149 -2.641390979 0)
(104.9553357 -0.1322690737 0)
(104.962133 -0.3949026477 0)
(104.97038 -0.661216576 0)
(104.9717107 -0.9086887494 0)
(104.9004603 -1.135054345 0)
(104.8653042 -1.380392003 0)
(104.7978131 -1.61745245 0)
(104.6587125 -1.829186279 0)
(104.3995388 -2.018805061 0)
(103.9543167 -2.176238022 0)
(103.0718693 -2.280220856 0)
(97.63540253 -2.335047033 0)
(105.1924826 -0.1211355103 0)
(105.1981588 -0.3607533532 0)
(105.2028852 -0.6035515988 0)
(105.1986818 -0.8267497992 0)
(105.1264703 -1.030507102 0)
(105.0803474 -1.248285791 0)
(104.9952744 -1.45562878 0)
(104.8371284 -1.638453907 0)
(104.5484397 -1.798651384 0)
(104.0738351 -1.929592803 0)
(103.0945744 -2.009308175 0)
(97.89742326 -2.07061734 0)
(105.4089669 -0.1107421705 0)
(105.4130719 -0.3290152151 0)
(105.4135913 -0.5500377707 0)
(105.4028471 -0.7513838974 0)
(105.3283927 -0.9345023379 0)
(105.2701279 -1.128082155 0)
(105.1669097 -1.310022331 0)
(104.9896875 -1.468583167 0)
(104.6739197 -1.605144445 0)
(104.1719833 -1.715192408 0)
(103.1041749 -1.776184977 0)
(98.12159502 -1.84251442 0)
(105.6064192 -0.1012256992 0)
(105.6086388 -0.3000756593 0)
(105.6045377 -0.5012877893 0)
(105.5866684 -0.6832549835 0)
(105.5090585 -0.8477927799 0)
(105.4381131 -1.020310367 0)
(105.3168157 -1.180668301 0)
(105.121104 -1.318820588 0)
(104.7808042 -1.436311038 0)
(104.2530658 -1.529635105 0)
(103.105232 -1.576235355 0)
(98.31484373 -1.64612519 0)
(105.7866727 -0.09266700725 0)
(105.7867975 -0.2741531052 0)
(105.7778622 -0.4576349142 0)
(105.7525863 -0.6226666484 0)
(105.6711827 -0.7706644523 0)
(105.587435 -0.9250012939 0)
(105.4485083 -1.067103362 0)
(105.2352179 -1.188089595 0)
(104.8727823 -1.290125045 0)
(104.3204129 -1.369921458 0)
(103.1014735 -1.405688323 0)
(98.48378793 -1.477528321 0)
(105.9516379 -0.08510758921 0)
(105.9495365 -0.2513474598 0)
(105.935693 -0.419219463 0)
(105.9029368 -0.5696926037 0)
(105.8172884 -0.7031225117 0)
(105.7208769 -0.8419075708 0)
(105.5649569 -0.9686162413 0)
(105.3351695 -1.075223895 0)
(104.9527061 -1.164720462 0)
(104.3767224 -1.233561693 0)
(103.0957919 -1.261473555 0)
(98.6340068 -1.333676468 0)
(106.1033135 -0.07856019306 0)
(106.0989043 -0.2316751529 0)
(106.0801657 -0.3860497051 0)
(106.0399933 -0.5242475279 0)
(105.9497193 -0.645000622 0)
(105.8409386 -0.7706425459 0)
(105.6686144 -0.8842011097 0)
(105.4235779 -0.9791237168 0)
(105.0228686 -1.058438871 0)
(104.4242955 -1.118477762 0)
(103.0901994 -1.140972994 0)
(98.76980062 -1.212203457 0)
(106.2434983 -0.07302517874 0)
(106.236747 -0.2151111309 0)
(106.2131841 -0.3580520626 0)
(106.1657506 -0.4862154957 0)
(106.0706331 -0.5960281196 0)
(105.9498876 -0.710705434 0)
(105.7618886 -0.812973168 0)
(105.5025487 -0.8987253777 0)
(105.0851635 -0.969833443 0)
(104.4651149 -1.022920104 0)
(103.0859261 -1.041913993 0)
(98.89421325 -1.111142271 0)
(106.3746631 -0.06847804337 0)
(106.365509 -0.2015796308 0)
(106.3371738 -0.3350983904 0)
(106.2826425 -0.455281992 0)
(106.1820693 -0.5559013464 0)
(106.0497643 -0.6615432991 0)
(105.8470281 -0.7546085761 0)
(105.5739046 -0.8330063622 0)
(105.1412171 -0.8976433847 0)
(104.5008808 -0.9453995132 0)
(103.0836138 -0.9623569761 0)
(99.0093049 -1.028878822 0)
(106.4966032 -0.06494450179 0)
(106.485138 -0.1910947109 0)
(106.452176 -0.3171009791 0)
(106.3908046 -0.4316833177 0)
(106.2859099 -0.5242197752 0)
(106.142414 -0.6226472324 0)
(105.9259174 -0.7092911375 0)
(105.6393752 -0.7809474462 0)
(105.1924921 -0.8407840847 0)
(104.5330459 -0.8846475976 0)
(103.0835187 -0.9006771766 0)
(99.11652236 -0.9641066982 0)
(106.6189232 -0.06227583274 0)
(106.6047642 -0.1833767761 0)
(106.5669591 -0.3038246301 0)
(106.4980292 -0.4132934616 0)
(106.3844872 -0.5008610748 0)
(106.229454 -0.5939593718 0)
(105.999595 -0.6761613411 0)
(105.7005534 -0.7420368595 0)
(105.2402861 -0.798394589 0)
(104.5628416 -0.8396138599 0)
(103.0856744 -0.8555552228 0)
(99.21690328 -0.9157941367 0)
(106.7133712 -0.06090399829 0)
(106.6975003 -0.1791331856 0)
(106.6559786 -0.2960968381 0)
(106.5824239 -0.4051299567 0)
(106.4771779 -0.485161788 0)
(106.3122451 -0.5748660349 0)
(106.0695185 -0.6544983787 0)
(105.7586621 -0.7156980737 0)
(105.2857195 -0.7697553522 0)
(104.5913127 -0.8094094742 0)
(103.0900427 -0.8259477799 0)
(99.31127948 -0.8831549018 0)
(106.8945247 -0.05948992525 0)
(106.8749084 -0.1759025733 0)
(106.8260996 -0.290496255 0)
(106.7392441 -0.394935572 0)
(106.5637666 -0.4779720823 0)
(106.3882301 -0.5655723859 0)
(106.1341135 -0.6445193285 0)
(105.8147838 -0.7014672693 0)
(105.3297166 -0.7542539326 0)
(104.6193224 -0.7932383012 0)
(103.0966233 -0.8110151288 0)
(99.40022491 -0.8657366743 0)
(93.5446097 -7.595033807 0)
(95.44852578 -9.197606668 -3.10887882e-19)
(95.10692875 -6.149370195 4.137737121e-22)
(93.66338784 -7.412600292 -3.898678654e-20)
(96.60722578 -6.97818871 -4.940783241e-19)
(95.51767517 -8.895837395 -3.997994841e-22)
(93.84730057 -7.582552364 -1.075323004e-19)
(94.3581614 -8.333160196 1.112446182e-19)
(91.2467794 -8.985478314 -6.009685457e-19)
(91.55314305 -8.234347313 1.532362351e-22)
(98.681936 -9.317403486 8.199161437e-20)
(91.54051505 -8.182391726 3.504065415e-19)
(90.74694164 -8.168055891 4.89963693e-19)
(80.06461037 -8.804333599 0)
(91.24428365 -9.054028664 4.971795521e-22)
(94.47751089 -8.439663496 -2.216727031e-19)
(89.68491339 -8.937407881 0)
(49.23427305 -8.181859971 0)
(90.74274905 -8.215396527 -9.489715516e-22)
(89.69699223 -8.869164204 0)
(89.58925763 -28.1201138 -1.771517698e-19)
(91.67600974 -8.620315761 -6.559621758e-20)
(93.35499828 -8.466686974 -1.334118651e-19)
(93.63737255 -8.804089421 3.257845173e-20)
(93.01422589 -8.060192683 0)
(93.26756622 -8.360531119 -1.356344988e-19)
(91.67362918 -8.553836215 0)
(91.57960978 -7.902760467 2.576235552e-19)
(92.69261005 -7.687170918 -1.379530637e-19)
(92.93315562 -7.964033449 0)
(92.61220531 -7.595575733 2.787640532e-19)
(91.54480501 -7.860699413 2.549089558e-19)
(91.11054938 -7.880564189 0)
(91.14453117 -7.919353681 -8.140234311e-19)
(93.74158725 -8.924814193 -9.658411688e-20)
(94.0754929 -9.31125664 -2.301234399e-19)
(91.82091279 -9.981616213 0)
(91.47268371 -10.04321598 -2.321038195e-18)
(89.97324207 -23.09313703 -1.169598532e-19)
(89.75416837 -26.1328899 0)
(90.84394451 -8.500953 1.099716906e-18)
(82.81580956 -26.81255373 1.090980855e-18)
(89.4754188 -26.42341933 -5.146786587e-21)
(84.14879926 -26.91835868 -9.07756117e-19)
(90.83940062 -8.574559507 5.771826117e-19)
(90.24317894 -28.05175356 -3.516011716e-20)
(92.23842581 -26.60998572 -6.98794474e-22)
(98.43199005 -7.138132264 9.359051567e-20)
(98.26815789 -8.853196572 6.867603643e-20)
(95.8728303 -9.034292138 3.638665851e-21)
(97.02259132 -9.601620068 0)
(81.22666447 -8.342812727 -1.19514146e-20)
(77.82838884 -8.535777567 -1.053290036e-21)
(91.36700305 -8.846251627 -1.150560185e-19)
(92.89494524 -8.801625581 2.133094379e-19)
(92.9927256 -8.994040098 -5.669130698e-23)
(53.36444986 -8.390736813 1.284724213e-19)
(77.88346238 -11.60856742 -1.142440826e-20)
(90.98810029 -7.658387789 2.573159539e-19)
(91.01420225 -8.034745928 -1.239904311e-19)
(90.01389812 -8.834452347 -2.602953233e-18)
(94.0469401 -9.507447523 3.783100761e-18)
(94.45503846 -10.07513748 -2.709662817e-21)
(93.03016157 -9.061560816 4.26434073e-19)
(93.16754936 -9.27095603 1.086515178e-19)
(91.31945963 -9.329346736 -1.020153685e-18)
(92.22554481 -26.25341239 1.511571944e-21)
(89.75307409 -9.228289719 1.099484543e-18)
(67.73024469 -21.25730884 -1.77422308e-18)
(88.37015068 -18.52173144 8.11827829e-21)
(89.86575555 -22.57646231 5.273480015e-19)
(85.76286397 -9.3998091 1.816805133e-17)
(90.83930141 -8.366150993 5.171359919e-19)
(89.91592589 -8.813615721 2.905083233e-18)
(92.77034901 -8.579974638 0)
(92.86098835 -8.743755255 -2.190370652e-19)
(91.49567406 -8.788461334 -1.791928346e-18)
(91.66076 -8.415550131 -4.967333587e-19)
(92.64530631 -8.370440171 1.111409044e-19)
(92.73964629 -8.519505166 -1.12726596e-19)
(91.00645996 -7.718862219 0)
(91.16170581 -8.039558268 1.246086941e-18)
(91.32474276 -9.437414708 0)
(93.21924351 -9.337132042 5.381322171e-20)
(93.28961892 -9.500438108 -5.819086726e-18)
(70.87324468 -20.58628797 0)
(69.32269316 -21.18199432 1.516728335e-18)
(89.7291258 -9.371460886 4.656215903e-21)
(72.24802144 -23.06022495 0)
(76.42781617 -23.03523801 1.484671186e-21)
(90.12129945 -24.98184766 -6.412655492e-22)
(90.87234462 -8.379917381 0)
(83.26422251 -27.07843987 -4.828863182e-18)
(88.08534856 -27.03979722 6.783154288e-21)
(72.72836304 -23.38266633 -3.003499139e-19)
(87.29928055 -27.10660346 -4.208389253e-21)
(90.13378675 -8.771879234 -1.703225774e-18)
(92.50718316 -8.172861721 1.110743561e-19)
(92.61125165 -8.316672616 0)
(91.63494039 -8.382953148 -9.826410518e-19)
(91.61400611 -8.042865553 -3.573130899e-19)
(92.38547314 -7.981123185 1.665712541e-19)
(92.47496354 -8.118659784 -2.213196341e-19)
(89.28882417 -8.044818338 -1.455935885e-19)
(89.34690951 -8.008245148 1.109554448e-18)
(90.78139303 -8.120831056 -2.393605208e-19)
(89.69248821 -9.02251305 -8.221273919e-20)
(90.75552503 -8.274343979 -3.817638318e-19)
(89.28224209 -8.196300365 0)
(89.26980249 -8.104491817 1.49680434e-19)
(89.73068625 -8.800336361 -1.399730256e-18)
(92.24707279 -7.805716404 -1.128856994e-19)
(92.35402795 -7.933069864 7.001401948e-21)
(91.6321919 -8.018968741 -9.931082217e-19)
(91.44163767 -7.706766186 5.877501359e-22)
(92.09733816 -7.615590345 -3.853524746e-22)
(92.20916889 -7.755822532 0)
(90.37876341 -7.873978455 -1.400818019e-19)
(90.32771329 -7.831138748 5.557683081e-19)
(91.0711348 -7.835246803 -6.651156686e-19)
(91.16960949 -7.957018245 2.737465774e-19)
(90.44133385 -7.937867194 2.89823602e-19)
(90.41693617 -7.906900465 7.099892119e-19)
(90.94535308 -9.622356217 1.808276823e-18)
(92.22733566 -9.507299176 -1.736224886e-18)
(92.21978979 -9.746666027 3.084943269e-18)
(44.29088599 -14.8499428 3.731485812e-17)
(89.12986838 -9.80118038 -1.3063903e-18)
(90.11219843 -24.59839154 -2.147211315e-19)
(77.50785419 -22.75522079 4.288204768e-20)
(79.42121064 -22.03380967 0)
(89.41882949 -8.395336543 -1.240126598e-18)
(89.44821486 -8.327400694 0)
(90.85952663 -8.439875011 0)
(83.38682563 -26.95758126 8.741200156e-19)
(79.25427019 -26.06043821 0)
(79.94891824 -26.08484167 6.358282793e-19)
(85.64404542 -27.10608893 0)
(90.80271938 -8.651486517 -1.775637613e-20)
(89.39929662 -8.542972934 0)
(89.41758732 -8.472936834 -1.892490741e-18)
(91.7232149 -27.76987837 -1.410421669e-20)
(88.8991917 -7.483624225 2.358833952e-18)
(88.88091011 -7.543926216 1.585031205e-19)
(88.62615511 -7.894647378 2.516837329e-17)
(90.87696239 -8.067821329 -9.580102796e-19)
(89.52010396 -7.988018975 -3.590585403e-21)
(89.77807544 -7.973270333 -7.031233267e-18)
(93.08099636 -9.543417034 -1.782817735e-19)
(92.57749078 -10.02150676 0)
(79.08330621 -8.898405982 -5.669390852e-19)
(91.279178 -9.229132533 -1.010872358e-18)
(92.20703669 -9.258654628 5.894959313e-19)
(92.24962033 -9.34628124 -1.197365907e-19)
(89.71603699 -9.130908836 1.317405828e-18)
(68.44360332 -21.67825641 -2.720657572e-19)
(67.80121394 -21.79258535 2.837141175e-18)
(46.25536214 -3.148616231 -1.726920805e-18)
(66.9596567 -16.44970769 0)
(70.9478054 -19.99806775 2.272367029e-18)
(89.43929017 -8.297143113 7.510432117e-20)
(89.34844339 -8.276362273 -1.206598193e-18)
(90.79079003 -8.332555856 1.159720923e-18)
(89.78738674 -8.792401866 2.385046452e-18)
(88.99951041 -7.791253903 8.01658361e-20)
(89.0767694 -7.828265634 1.278357499e-18)
(88.8827692 -7.632212649 -1.503555527e-19)
(88.92453181 -7.725082259 -1.364133026e-18)
(90.39730621 -8.004117983 0)
(90.414833 -7.971385239 -4.399924196e-19)
(91.16952854 -7.991857499 3.405625322e-19)
(89.149376 -7.894502699 2.526532411e-19)
(89.12308101 -7.89184989 7.785878834e-21)
(89.13043877 -7.853696411 -7.992516943e-20)
(89.16442078 -7.87417271 -4.856222255e-19)
(92.28424396 -9.427919598 -1.188507471e-19)
(92.3599412 -9.531187723 0)
(91.44142959 -9.579599268 3.801509006e-21)
(71.76530548 -21.03135003 4.339013229e-21)
(61.58748625 -18.88184384 0)
(58.62665987 -17.77660566 1.806377139e-19)
(62.63712052 -19.79209247 9.078190363e-18)
(62.95279972 -19.52285505 7.734332332e-19)
(70.77792311 -21.10704824 -1.151106797e-18)
(89.84462734 -9.533453698 -4.84522292e-21)
(73.68563498 -23.00243003 1.05787005e-18)
(81.04730735 -24.4548747 3.773057004e-20)
(80.10101441 -24.66637474 1.473766473e-21)
(90.8746284 -8.399824409 5.291527379e-19)
(89.48379831 -8.291012193 1.216028398e-18)
(89.49175614 -8.285631108 -7.563948065e-20)
(83.65076661 -27.12176268 1.304705276e-18)
(76.0228746 -24.5960076 -1.222109412e-19)
(76.49854486 -24.85340569 -1.840346068e-20)
(79.05927397 -24.63053223 -1.523540561e-21)
(77.3820458 -24.55839991 -3.156618655e-21)
(71.97067885 -23.45391795 -3.502379207e-19)
(75.77856907 -24.86521195 3.548385052e-19)
(86.51036728 -27.22160454 -3.7448957e-20)
(79.53102596 -25.86940682 -4.554699732e-19)
(80.84604099 -25.86929049 2.043406727e-19)
(88.86310688 -8.69281872 0)
(89.36765392 -8.577913575 0)
(90.77843936 -8.71642916 1.114760807e-18)
(98.94706227 -3.109669264 2.516308494e-19)
(98.32385505 -3.685401855 6.439504298e-20)
(98.06882687 -3.898788363 -6.452288036e-20)
(97.16542976 -4.619884421 0)
(96.81387867 -4.891095023 0)
(95.58148988 -5.811550775 -4.958241299e-21)
(99.67164601 -3.442471062 0)
(99.18556827 -4.071576038 6.831102695e-19)
(98.5341599 -3.795568204 -2.480436219e-19)
(98.98229525 -4.306186054 -2.324818181e-19)
(98.2581511 -5.108833011 0)
(97.4293508 -4.761131724 0)
(97.9757943 -5.41741078 -3.056968624e-20)
(96.98427873 -6.513105357 -4.840889344e-19)
(95.9078498 -6.009143718 -1.422327854e-19)
(95.81987 -6.581269203 1.67549651e-19)
(95.33208052 -7.162734672 -1.27170854e-19)
(94.74078596 -6.793600603 -1.325218654e-19)
(93.9256545 -7.954946368 -1.176092516e-19)
(93.47763058 -8.266975557 0)
(93.20843797 -7.972041079 -1.30129886e-19)
(100.4335566 -3.616314978 0)
(100.0932165 -4.247921525 9.654969634e-20)
(99.40477896 -4.137021005 -2.239403588e-19)
(99.94584893 -4.483698095 -1.978556004e-19)
(99.42942364 -5.286085309 2.415817332e-20)
(98.54058114 -5.185815464 2.778358676e-20)
(99.23586862 -5.593618634 2.458618261e-20)
(98.62269569 -6.689476295 0)
(97.3733122 -6.619587972 0)
(97.5017531 -7.157780099 3.248098642e-19)
(97.24866959 -7.671216604 1.045543385e-19)
(96.49322047 -7.705748394 1.088104707e-19)
(96.11521036 -9.570876914 0)
(95.92008535 -10.34505265 0)
(95.07827449 -9.994293194 1.12054825e-19)
(101.1836952 -3.64246586 -8.410174754e-20)
(100.9654717 -4.2354426 8.117897559e-20)
(100.3185352 -4.260195143 -1.79814823e-21)
(100.8703215 -4.450442421 0)
(100.5282938 -5.170625009 2.137174714e-21)
(99.71694532 -5.28115263 -1.184317294e-19)
(100.4063873 -5.437244332 1.990795983e-19)
(100.0778573 -6.337342103 1.085095739e-19)
(99.01847546 -6.638287653 -9.764676859e-20)
(100.0122838 -6.675348449 -1.094914658e-19)
(100.0790332 -7.78525372 0)
(98.92954743 -8.655052708 -2.349641184e-19)
(97.68162124 -7.861437858 -3.98852957e-20)
(101.8775012 -3.543972373 -1.724324313e-20)
(101.7378701 -4.080005041 0)
(101.168264 -4.209427016 -8.089479439e-20)
(101.6747883 -4.267838365 0)
(101.4443946 -4.865841541 -3.304841991e-20)
(100.7772823 -5.10751982 0)
(101.3611606 -5.077290502 -2.462604976e-19)
(101.1368809 -5.73976122 6.742558719e-21)
(100.3819912 -6.203483159 -9.860539307e-20)
(101.0990859 -5.966285905 0)
(100.2481538 -6.594353669 1.14191733e-19)
(100.260845 -7.481023301 -6.195551097e-20)
(96.29387883 -6.322527602 -7.79850898e-20)
(102.4887615 -3.353394804 0)
(102.3931296 -3.81622785 3.433753651e-20)
(101.9132386 -4.022138473 -1.324273312e-19)
(102.3448345 -3.974245848 -2.795550194e-20)
(102.1538268 -4.456179122 -1.045794286e-19)
(101.6404234 -4.770400985 -2.395373922e-19)
(102.0792941 -4.618206625 -2.546111859e-20)
(101.8687981 -5.100384436 1.663644371e-19)
(101.3455088 -5.579261675 -2.204277289e-19)
(101.8411181 -5.258088392 -3.205552112e-19)
(99.31624094 -5.515289012 -1.187354769e-19)
(100.0830547 -6.309315844 -1.376189403e-20)
(95.38710837 -5.276850238 1.33393781e-19)
(103.0116308 -3.112727063 0)
(102.9300879 -3.497872555 0)
(102.5379484 -3.739522021 -6.95589625e-21)
(102.885177 -3.626455722 0)
(102.6931581 -4.008566528 0)
(102.3026006 -4.345732451 -1.110268614e-19)
(102.6132294 -4.13311672 3.876005433e-20)
(102.3801017 -4.49144285 -9.050803292e-21)
(102.0142876 -4.944085675 0)
(102.3228524 -4.601241236 -6.370124805e-20)
(98.37726011 -4.662506493 1.091889875e-20)
(99.03749111 -5.278111042 1.101680946e-19)
(95.48492566 -4.587556217 9.062756939e-20)
(103.4520481 -2.851119656 0)
(103.3655862 -3.168878824 0)
(103.0477271 -3.415570716 0)
(103.3172523 -3.272380364 0)
(103.1075157 -3.572268478 0)
(102.8071197 -3.896839235 0)
(103.019139 -3.667838019 0)
(102.74033 -3.935622149 0)
(102.4819792 -4.346803166 3.355664816e-20)
(102.6223507 -4.011346108 0)
(98.1246883 -4.021633802 0)
(98.24785744 -4.487280779 -5.194196811e-21)
(95.97982758 -4.022183594 0)
(103.8211799 -2.58768498 0)
(103.718694 -2.849841794 0)
(103.4608728 -3.087647507 0)
(103.6635228 -2.933482539 0)
(103.4288374 -3.171011739 0)
(103.1954871 -3.468347679 0)
(103.330685 -3.245292138 0)
(102.9955064 -3.447017043 0)
(102.8125025 -3.806928639 0)
(102.8139583 -3.499322312 0)
(98.11215518 -3.489135136 0)
(98.11552935 -3.87997971 0)
(96.45283855 -3.523635719 0)
(104.1304672 -2.33422319 0)
(104.0063902 -2.551296387 0)
(103.7961543 -2.773021589 0)
(103.9430041 -2.619385198 0)
(103.6815817 -2.809783315 0)
(103.4976584 -3.076900526 0)
(103.5734908 -2.868431208 0)
(103.178883 -3.023257473 0)
(103.0470913 -3.335344701 0)
(102.9374573 -3.059391973 0)
(98.15378733 -3.041672862 0)
(98.11833972 -3.3698638 0)
(96.87547253 -3.094141064 0)
(104.3903156 -2.097366295 0)
(104.2424968 -2.278117509 0)
(104.0697813 -2.480519795 0)
(104.1706596 -2.334035592 0)
(103.8833829 -2.48854751 0)
(103.7362421 -2.725788125 0)
(103.7658402 -2.535562541 0)
(103.3115812 -2.655917517 0)
(103.2161709 -2.926443189 0)
(103.0157517 -2.680771199 0)
(98.2328293 -2.664024621 0)
(98.17053633 -2.941294305 0)
(97.2448108 -2.725307196 0)
(104.6094141 -1.880394946 0)
(104.4378747 -2.031867729 0)
(104.2947929 -2.2140197 0)
(104.3579505 -2.078218383 0)
(104.0468538 -2.205142932 0)
(103.9274391 -2.414257628 0)
(103.920461 -2.2433682 0)
(103.4075389 -2.337628199 0)
(103.3385783 -2.572007601 0)
(103.0634966 -2.354496922 0)
(98.33819445 -2.343037335 0)
(98.25705948 -2.578898055 0)
(97.56320403 -2.40745636 0)
(104.7951572 -1.684365509 0)
(104.6009975 -1.812308495 0)
(104.4813904 -1.974510042 0)
(104.5136294 -1.851117659 0)
(104.1809966 -1.956651847 0)
(104.0828496 -2.139870562 0)
(104.0461556 -1.988089583 0)
(103.4763768 -2.062195092 0)
(103.4269861 -2.264974717 0)
(103.0903268 -2.073289852 0)
(98.46196251 -2.068921693 0)
(98.3676618 -2.270440577 0)
(97.83573332 -2.133120465 0)
(104.9536995 -1.50931085 0)
(104.7385317 -1.618288965 0)
(104.6375542 -1.761466622 0)
(104.6444602 -1.651127467 0)
(104.2922777 -1.739881003 0)
(104.2107511 -1.899611324 0)
(104.149195 -1.765960419 0)
(103.5249142 -1.82430438 0)
(103.4901923 -1.999394861 0)
(103.1027379 -1.831190134 0)
(98.59843495 -1.834208756 0)
(98.49508075 -2.006801003 0)
(98.06872487 -1.89639739 0)
(105.0900097 -1.354594342 0)
(104.8556599 -1.448239326 0)
(104.7695514 -1.573597081 0)
(104.7556081 -1.476318581 0)
(104.3853965 -1.551712357 0)
(104.3171055 -1.690275787 0)
(104.2341998 -1.573492848 0)
(103.5582579 -1.619448271 0)
(103.5345001 -1.770153963 0)
(103.1055511 -1.623332119 0)
(98.74289322 -1.633118991 0)
(98.63397734 -1.780982258 0)
(98.26905574 -1.692477214 0)
(105.2081285 -1.219198087 0)
(104.9564183 -1.300403937 0)
(104.8822482 -1.409266729 0)
(104.8510161 -1.324656989 0)
(104.4638884 -1.389273605 0)
(104.4062722 -1.508794199 0)
(104.3047069 -1.407574632 0)
(103.5805446 -1.443866425 0)
(103.5647203 -1.572938236 0)
(103.1026912 -1.445749515 0)
(98.89078393 -1.461068066 0)
(98.77972128 -1.587538494 0)
(98.44350166 -1.517257065 0)
(105.3113581 -1.101955446 0)
(105.0439624 -1.173059354 0)
(104.9794379 -1.266707928 0)
(104.9337219 -1.1942182 0)
(104.5305285 -1.250090916 0)
(104.481565 -1.352381323 0)
(104.363548 -1.265582175 0)
(103.5952301 -1.294509359 0)
(103.5848081 -1.404170557 0)
(103.0972677 -1.295208037 0)
(99.03775029 -1.314559918 0)
(98.92777177 -1.422156709 0)
(98.59795127 -1.367457066 0)
(105.4024387 -1.001735634 0)
(105.1208056 -1.06464397 0)
(105.0640892 -1.14423834 0)
(105.0061343 -1.083298587 0)
(104.5876093 -1.132101648 0)
(104.545613 -1.218680286 0)
(104.413108 -1.145354408 0)
(103.60512 -1.168865087 0)
(103.5980572 -1.260966253 0)
(103.0915104 -1.16900449 0)
(99.18022925 -1.190991289 0)
(99.07390347 -1.281606255 0)
(98.73702107 -1.240586819 0)
(105.4835886 -0.9174813456 0)
(105.1890016 -0.9737601603 0)
(105.1385932 -1.040331147 0)
(105.0702354 -0.9903990177 0)
(104.6370975 -1.033554999 0)
(104.6006224 -1.105704692 0)
(104.4554459 -1.045063653 0)
(103.6123616 -1.064762036 0)
(103.6071093 -1.140898221 0)
(103.0868273 -1.064778928 0)
(99.31578086 -1.088262138 0)
(99.21483649 -1.163429515 0)
(98.86405548 -1.134587235 0)
(105.5566908 -0.8481533358 0)
(105.2502806 -0.8991669892 0)
(105.204907 -0.9536303354 0)
(105.1277066 -0.9142148486 0)
(104.6806948 -0.9529689406 0)
(104.6484875 -1.011778097 0)
(104.4923298 -0.963162073 0)
(103.6184897 -0.980333423 0)
(103.6139494 -1.041877662 0)
(103.0839887 -0.9805131581 0)
(99.44296455 -1.004625695 0)
(99.3483948 -1.065625137 0)
(98.9813229 -1.047758734 0)
(105.6234602 -0.7927420311 0)
(105.3061879 -0.8397695359 0)
(105.2647032 -0.8829320559 0)
(105.1800473 -0.8536116586 0)
(104.7198906 -0.8890750196 0)
(104.6908524 -0.935475282 0)
(104.5252715 -0.8983237566 0)
(103.6245626 -0.9139835047 0)
(103.6199807 -0.9621068716 0)
(103.0833308 -0.9144982715 0)
(99.56122825 -0.9386384413 0)
(99.47337001 -0.9865238738 0)
(99.09040166 -0.9787198737 0)
(105.6855935 -0.7505938708 0)
(105.3581177 -0.7947031325 0)
(105.3194935 -0.8271884937 0)
(105.2286001 -0.807676624 0)
(104.7559815 -0.840825979 0)
(104.7291577 -0.8755830775 0)
(104.555555 -0.8494497372 0)
(103.6312824 -0.8643987594 0)
(103.6261602 -0.9000616889 0)
(103.0849272 -0.8653451149 0)
(99.67065483 -0.8891513715 0)
(99.58939648 -0.9247594315 0)
(99.19240995 -0.9263761644 0)
(105.7443568 -0.7211605327 0)
(105.4072578 -0.7632668223 0)
(105.3706215 -0.7855917092 0)
(105.2745275 -0.7756610914 0)
(104.7900893 -0.8073419462 0)
(104.764654 -0.8311020843 0)
(104.5842686 -0.8156144053 0)
(103.6391327 -0.8305038287 0)
(103.6331223 -0.8544908184 0)
(103.0887457 -0.8319449056 0)
(99.7717957 -0.8552721161 0)
(99.69668653 -0.8792475773 0)
(99.28822114 -0.8898774918 0)
(105.8008936 -0.7039488635 0)
(105.454638 -0.7448668299 0)
(105.4192302 -0.7574653981 0)
(105.3188344 -0.7569291538 0)
(104.8231827 -0.7878577618 0)
(104.7984219 -0.8011868048 0)
(104.6123483 -0.79601383 0)
(103.6485186 -0.8114192878 0)
(103.6413165 -0.8243739403 0)
(103.0947887 -0.8134238631 0)
(99.86556855 -0.8363783901 0)
(99.79587731 -0.849161708 0)
(99.37866844 -0.8686425925 0)
(105.8628998 -0.6983354138 0)
(105.5065544 -0.738845235 0)
(105.4662718 -0.7422437659 0)
(105.3674159 -0.7507417177 0)
(104.8599597 -0.7813529019 0)
(104.8313518 -0.7850806805 0)
(104.6440119 -0.789573635 0)
(103.6616311 -0.8063640361 0)
(103.6511189 -0.8088602139 0)
(103.1046832 -0.8093525668 0)
(99.96315469 -0.8328646029 0)
(99.88768469 -0.8339170807 0)
(99.4741109 -0.8623113252 0)
(93.12268435 -7.877430211 1.317481628e-19)
(92.87161282 -7.602516184 1.080595626e-21)
(93.28089215 -7.340892592 0)
(94.84495347 -9.855582324 -2.259234902e-19)
(94.40094877 -9.375635428 6.244401844e-20)
(94.98806054 -8.903787406 -1.0562028e-19)
(91.3311519 -19.0335366 1.656430903e-19)
(94.56241162 -6.659898155 0)
(94.07411028 -6.267472253 2.873125477e-19)
(94.7881115 -5.914846237 -1.49622985e-19)
(93.15905071 -6.914951852 4.890443236e-19)
(93.8313597 -6.419802503 1.904555456e-21)
(94.32119611 -6.846100396 -1.393525785e-19)
(96.22990761 -7.628180275 0)
(95.55169801 -7.278651861 1.228809115e-19)
(96.21708453 -6.779978554 2.553869426e-19)
(94.706207 -8.284120635 -9.953048069e-20)
(95.33289673 -7.517362012 -1.232332289e-19)
(96.04645991 -7.915305903 0)
(94.50220795 -6.986378782 -1.367336573e-19)
(95.10537073 -7.392728206 0)
(94.46651351 -8.107688472 9.868609184e-20)
(93.87694135 -8.697516767 2.487972164e-19)
(93.5718612 -8.370151906 1.280666276e-19)
(94.02748824 -8.055866392 -1.168992179e-19)
(91.26110665 -8.931929315 2.348662561e-19)
(92.12929696 -8.963860896 -2.239383662e-19)
(92.13899804 -9.025997287 6.847429913e-19)
(92.00821909 -8.227509357 1.080754313e-21)
(92.03501777 -8.278942913 -1.171009708e-19)
(91.57417297 -8.28845127 2.386298521e-19)
(82.017403 -7.609698571 -1.33620363e-19)
(81.49528871 -8.321951392 9.026326752e-20)
(97.47812652 -9.569373356 -9.411708548e-20)
(80.27910861 -11.20329301 7.472449101e-20)
(85.60237018 -10.89529015 1.229029938e-19)
(91.80678704 -18.1521783 0)
(92.96582936 -15.94579819 -7.284712705e-20)
(91.54563624 -8.12938165 -2.310858195e-19)