/*--------------------------------*- C++ -*----------------------------------*\
| =========                 |                                                 |
| \\      /  F ield         | OpenFOAM: The Open Source CFD Toolbox           |
|  \\    /   O peration     | Version:  v2012                                 |
|   \\  /    A nd           | Website:  www.openfoam.com                      |
|    \\/     M anipulation  |                                                 |
\*---------------------------------------------------------------------------*/
FoamFile
{
    version     2.0;
    format      ascii;
    class       volScalarField;
    location    "0.7";
    object      nut;
}
// * * * * * * * * * * * * * * * * * * * * * * * * * * * * * * * * * * * * * //

dimensions      [0 2 -1 0 0 0 0];


internalField   nonuniform List<scalar> 
3259
(
1.148231941
1.148001468
1.148500164
1.150346753
1.152931713
1.158953486
1.058230998
0.8689722538
0.6855158285
0.5537774686
0.4642839883
0.3979815971
1.148245175
1.148058912
1.148728133
1.150875931
1.153967793
1.160491914
1.110410091
0.9197689999
0.7545098896
0.6218729742
0.5190731434
0.2781152461
1.148317924
1.148168719
1.148996469
1.151452801
1.154921707
1.161831433
1.166298973
1.005046223
0.8561348393
0.732298777
0.6320308191
0.104514058
1.14850925
1.148396613
1.149359763
1.152081475
1.155864284
1.162974532
1.167083297
1.136257375
1.002642695
0.91141167
0.80411548
0.06071362114
1.148673591
1.148583685
1.149657693
1.152640662
1.156735272
1.163941647
1.167539203
1.158703486
1.124295646
1.031285793
0.7046944444
0.03446825751
1.148901126
1.148833077
1.149992493
1.153176563
1.157493262
1.16466993
1.167683859
1.157809883
1.117855364
0.9969812636
0.5148474852
0.02960524169
1.149039574
1.148982063
1.150204853
1.153582516
1.1581187
1.165192889
1.167601854
1.156574003
1.112528428
0.9595157812
0.3458842018
0.03476059389
1.149225
1.149184902
1.150456852
1.153964511
1.158613921
1.165543924
1.167309942
1.155073468
1.106353609
0.9228249326
0.28331123
0.04059524337
1.149292275
1.149266556
1.150580493
1.154222243
1.159003245
1.165768232
1.166889717
1.153302426
1.09881174
0.8742050604
0.2414331244
0.0479852898
1.149421563
1.149425367
1.150785831
1.154512379
1.159316965
1.165913804
1.166403201
1.151292053
1.089311878
0.8125496875
0.2078816189
0.05832807489
1.149419862
1.149454867
1.15086848
1.154708581
1.15959268
1.166026375
1.165911589
1.149071131
1.076703431
0.7483008508
0.1800710037
0.07208357007
1.149511267
1.149594908
1.151076268
1.154995349
1.159855652
1.166142522
1.165454673
1.146645589
1.059437112
0.6898545332
0.1579942893
0.08879076983
1.14946153
1.14959387
1.151150763
1.155191386
1.16012857
1.166282886
1.165037244
1.143914081
1.037622014
0.6408266706
0.1415525192
0.1064772327
1.149542045
1.149739345
1.151388143
1.155518098
1.160415632
1.166454895
1.164638518
1.140649336
1.013480507
0.6014960909
0.129681117
0.1230664222
1.14946798
1.149725602
1.151467144
1.155729744
1.160726737
1.166659503
1.164225588
1.136660823
0.9894415
0.5706274912
0.1220080432
0.1376020229
1.149559791
1.149893605
1.151746304
1.156110591
1.161055864
1.166895048
1.163757189
1.131869312
0.9670249443
0.5467928758
0.117103881
0.1496516414
1.149481404
1.149880879
1.15183467
1.156335107
1.161411094
1.167156489
1.163188302
1.126387534
0.946903145
0.5286169607
0.1142556314
0.1594097119
1.149593652
1.150077119
1.152157139
1.156773657
1.161780527
1.167436068
1.162478601
1.120420666
0.9291953227
0.5149476548
0.1129233852
0.1672323165
1.149529048
1.150078445
1.152260114
1.15700479
1.162173863
1.167723828
1.161601006
1.114187075
0.9137739768
0.504848477
0.1128118151
0.1735779161
1.149652806
1.150292838
1.152614103
1.15749639
1.162574659
1.168009521
1.160545299
1.107872959
0.9004291799
0.4975185888
0.1137104892
0.178839512
1.149627364
1.150329054
1.152746348
1.157735838
1.162995504
1.168281916
1.159315565
1.101616055
0.888913749
0.492330022
0.1154173608
0.1833179329
1.149733926
1.150533617
1.153104221
1.158259802
1.163415644
1.168532265
1.157927998
1.095510846
0.8789438033
0.4888021914
0.1177821098
0.1872330092
1.14977817
1.150631381
1.153286866
1.158528029
1.163851563
1.168755017
1.156419597
1.089618241
0.8702853502
0.4865607256
0.120694898
0.1907260812
1.149943302
1.150921601
1.153775388
1.159232087
1.164296131
1.168960923
1.154889554
1.083995104
0.862791404
0.4853723268
0.1240736822
0.1938866948
0.4019118232
0.3198551062
0.4544292652
0.4123973758
0.5024940763
0.3893463663
0.4067295641
0.3698981169
0.03096048806
0.05061053823
0.2815192602
0.05157037793
0.03252780863
0.004764190994
0.03066948926
0.365718765
0.01924308025
0.01153266795
0.03218036536
0.01956760656
0.01399462813
0.04579603364
0.1863266375
0.1746965921
0.2023501881
0.1910386883
0.04612934161
0.06735634032
0.2181969379
0.2064645284
0.2220769977
0.06862760533
0.04933533376
0.0483436606
0.17014888
0.161859903
0.02471114824
0.0123608477
0.01715816452
0.01411318491
0.03077548263
0.013052253
0.01411023038
0.01365808187
0.03081274876
0.01426669648
0.01482588573
0.5938942732
0.3767929568
0.3806069529
0.2555250727
0.00905972925
0.005372748808
0.03402252501
0.09663388448
0.09164727251
0.01257756382
0.0182561549
0.05144257438
0.03962079145
0.004393076903
0.1255245864
0.1097949378
0.0899568859
0.08593882884
0.03035408527
0.01539685854
0.0190152269
0.01218720967
0.01749706507
0.01921492952
0.002819374129
0.03172988543
0.02062499392
0.1046528997
0.09839619321
0.037891287
0.0482526349
0.1114946369
0.1063489516
0.05080927122
0.04447034543
0.02926795861
0.08346001869
0.07540574221
0.01394945826
0.01320610698
0.01824500713
0.01259580435
0.01439935405
0.01483683658
0.03162222997
0.009573975039
0.0142523974
0.0124719863
0.01448871521
0.0214629027
0.1183170289
0.1131281742
0.04872947965
0.0591109126
0.1260811202
0.1201229644
0.02033499176
0.02063171002
0.03337532517
0.01918861184
0.03197815125
0.0198855377
0.02006647165
0.01960046535
0.1337599665
0.128067703
0.06226939653
0.07147412398
0.1405247948
0.1354514123
0.0326848224
0.03274050239
0.04968198677
0.04803316392
0.03229251706
0.03223304609
0.02337587399
0.03724715461
0.03653666755
0.009163195299
0.01489340015
0.01569189452
0.01457833151
0.01431101277
0.01895845688
0.01919934938
0.03122298873
0.01327649373
0.009640676734
0.01307823243
0.01374703979
0.02923266992
0.01845157349
0.01904423662
0.01384830484
0.02055081999
0.02035629169
0.01605463831
0.03547399703
0.02123299057
0.02215655773
0.04353343129
0.03040808604
0.002969248906
0.03035519611
0.04629368769
0.04596321307
0.01898012351
0.0121054495
0.008919644108
0.003366701641
0.01401831735
0.01447687288
0.01964235109
0.01981145879
0.03191289259
0.02001989296
0.01989892426
0.01985553731
0.02015216697
0.02008693349
0.03059436247
0.03056137411
0.04605618273
0.01908933455
0.02013697919
0.01962050185
0.0196896002
0.04439034211
0.0438500671
0.0290499818
0.01420024979
0.01151613599
0.01122545138
0.008534824177
0.01169426884
0.01342690432
0.01880483049
0.01336057998
0.01472152209
0.01441924229
0.03133936429
0.01931545407
0.0195174509
0.01307051255
0.01276281806
0.01285830415
0.01383260042
0.01351311648
0.009114210732
0.009404563907
0.01424679367
0.0129588359
0.01362023338
0.01568529926
0.01933192399
0.02923859128
0.8560636336
0.7134249571
0.6719925416
0.569135712
0.5408212222
0.4707362247
0.9011559104
0.7718429197
0.7264076542
0.7327929403
0.6298828798
0.5825426305
0.6001181261
0.51894063
0.4789700369
0.4745101053
0.444618858
0.4453772424
0.3857921607
0.2402984156
0.2522595419
0.9784550229
0.8607353067
0.7927419148
0.8250109772
0.7251195517
0.6521461339
0.6966626957
0.6199504422
0.5401218544
0.5380350076
0.5093190322
0.4906881835
0.2739380528
0.1402286868
0.156426157
1.095341136
0.9915080982
0.8900194069
0.9610046843
0.8820382303
0.7582852254
0.8602491272
0.8103316296
0.6579043484
0.8099432051
0.2643042063
0.3541621603
0.06987611132
1.158897382
1.13736272
1.030676832
1.125788439
1.06878852
0.9311823189
1.037762352
0.8554049435
0.8875485875
0.735229873
0.1420538288
0.2346433578
0.03997805024
1.158067851
1.133179638
1.136350715
1.119406807
1.048080777
1.064380774
1.006679116
0.7445417089
0.8345619377
0.5687782676
0.06187635301
0.1222530335
0.02930044123
1.156897451
1.129603461
1.132263648
1.113926186
1.024640389
1.041917174
0.9676167178
0.5806040075
0.7047910095
0.3777287675
0.03824167541
0.05103983752
0.03315191681
1.155474999
1.125505542
1.12862479
1.108009846
1.003307907
1.019763759
0.9328463965
0.476748585
0.5448934688
0.2959270023
0.03762340961
0.03740741159
0.03908861638
1.153771653
1.120634629
1.124369971
1.100851649
0.9760205637
0.9971652857
0.8877952517
0.4093135243
0.4579059706
0.2508839692
0.03862832213
0.03783557117
0.04589458754
1.151816494
1.114717295
1.119265412
1.091919267
0.9383584216
0.9677850471
0.8286814738
0.3570961735
0.3952145714
0.2157244333
0.0402749412
0.0389711705
0.05546224747
1.149644181
1.107352831
1.113033173
1.080239511
0.8883385115
0.9268690937
0.7640346334
0.3130906099
0.3454149302
0.1865584829
0.04287399195
0.04081078911
0.06831862897
1.14727331
1.097807143
1.10520677
1.064231589
0.8332891854
0.8746210847
0.7036658812
0.2758981536
0.3030832426
0.1628832434
0.04684209142
0.04373485398
0.08442685457
1.144636674
1.085313493
1.094976901
1.043398826
0.7824192091
0.8199282849
0.6521382308
0.2471744963
0.2678748223
0.1452752793
0.05246580853
0.04811292304
0.1021040513
1.14152895
1.069940811
1.081711088
1.01958822
0.7394738707
0.7709058006
0.6104800458
0.226038552
0.2412502176
0.1321768841
0.05961778571
0.05412048988
0.1190904242
1.137734323
1.052783998
1.065762511
0.9953411103
0.7043605867
0.7299903366
0.5776294972
0.211085677
0.221780885
0.1235282565
0.06794544305
0.06160736374
0.1341860883
1.13313796
1.035232948
1.048384242
0.9724280625
0.6761301837
0.6966973551
0.5521732709
0.2010030454
0.2081867828
0.1181067025
0.07693609413
0.07015435955
0.1468880751
1.127811547
1.018332071
1.030916849
0.9517056409
0.6537038523
0.6700194995
0.5327041146
0.1945682881
0.199123186
0.1148275747
0.08603862428
0.07921904665
0.1571737239
1.121944818
1.002654861
1.014285417
0.9334015394
0.6360501902
0.6488779824
0.5180081721
0.1907710933
0.19336797
0.1131516152
0.09480705989
0.08827355589
0.1654354632
1.11575892
0.9884294649
0.9989592333
0.9174249104
0.6222730684
0.6322733066
0.5071028748
0.1890150256
0.19015154
0.1127659051
0.102932221
0.09689745075
0.1721132141
1.109450175
0.9756781212
0.985107286
0.9035850457
0.6115909006
0.6193369097
0.4991636457
0.1888280114
0.1888218552
0.1134457872
0.1102858785
0.1048300699
0.1776192997
1.103168487
0.9642987253
0.9727124645
0.891636705
0.6033565028
0.609325196
0.4934512479
0.1898538507
0.1889576882
0.1149883992
0.11685437
0.1119701463
0.1822814631
1.097018736
0.9541534546
0.9616535623
0.8813067564
0.5970259249
0.6016363197
0.4895619018
0.1918218897
0.1902231071
0.1172342763
0.1227048886
0.118323965
0.1863401662
1.091067976
0.9451110467
0.9517963483
0.8723353854
0.5922314867
0.5956944915
0.4870377053
0.1945333038
0.1923598388
0.1200703021
0.1279646305
0.1239788577
0.1899674219
1.085355733
0.9370451647
0.9430124194
0.8645131975
0.5886436787
0.5912251174
0.4856064779
0.1978602775
0.1951764802
0.1234196218
0.1327287589
0.1290492423
0.1932794683
1.079574369
0.9294030938
0.9352317051
0.8572660133
0.5859406577
0.5879481762
0.4850889363
0.2019913552
0.1985389944
0.127509258
0.1373961442
0.1335862504
0.1965731471
0.2564253324
0.2685054835
0.4136891917
0.1606985536
0.173677168
0.3248599822
0.02548950258
0.437301686
0.4533108548
0.443889752
0.4289331123
0.4400926945
0.4323484325
0.4717767545
0.4583215388
0.4874546403
0.4006668877
0.4425714451
0.4620891276
0.4334697672
0.4375231251
0.3982475655
0.2242213138
0.2358779872
0.3818257887
0.03117380005
0.04917123322
0.04834746261
0.07225109241
0.07100500104
0.04988590959
0.01027456382
0.009911086722
0.2422239916
0.01938852015
0.01889535699
0.0281821141
0.03498956887
0.05311429532
0.07546032322
0.07364334413
0.1420332027
0.07255778197
0.4173574418
0.2724777367
0.003248894754
0.02854445903
0.01611526192
0.04753494801
0.04709078759
0.0306084771
0.3542625249
0.2078130797
0.2191257084
0.01686145628
0.01509332005
0.004820997132
0.06338160149
0.06158566577
0.04392913973
0.1833016358
0.1363754959
0.1388308171
0.1170719323
0.1266748803
0.178136303
0.1987183552
0.1507903034
0.1541715401
0.143648887
0.1466755149
0.1944250765
0.04713110811
0.06576822487
0.06447068511
0.08853888844
0.08701714115
0.06632654829
0.2143037376
0.1657841876
0.1694604437
0.1581037031
0.1618404167
0.2102986882
0.2298430764
0.1800816785
0.1730624751
0.1765787211
0.2259490823
0.06947456126
0.09139717174
0.09004541338
0.1679908903
0.1088807017
0.1145669142
0.09753929876
0.1060369551
0.1613293251
0.01717558759
0.01470450282
0.01469430091
0.01437865914
0.01423702771
0.01421561494
0.01399351134
0.01462834982
0.01447028267
0.01419372511
0.01391769609
0.5705413873
0.5355104546
0.5631682507
0.3505569157
0.5077449868
0.5407832789
0.4661621471
0.4970374503
0.3574955107
0.1349668075
0.1562680552
0.2655431867
0.008701137065
0.04056356281
0.03367527081
0.1036890392
0.1195462734
0.007054526766
0.05310823902
0.05074579717
0.032062519
0.09489395794
0.07206509998
0.07421088411
0.06899641127
0.07020952894
0.09308416259
0.01494831103
0.02603328082
0.01965192587
0.02566405834
0.0232818401
0.01858979562
0.0332774876
0.03344093085
0.0520255111
0.01013913602
0.007007102215
0.00279076314
0.1194102927
0.0643923063
0.07038822071
0.05704149621
0.06238642085
0.1140650942
0.08874197309
0.06679202414
0.06763262833
0.06471068099
0.06543792427
0.08693848105
0.01749396186
0.01557606979
0.01463132376
0.01589809821
0.01471576078
0.01410097826
0.01536020572
0.006325351891
0.008346681258
0.102644295
0.08144634845
0.08324476898
0.07683161432
0.07920552302
0.100713678
0.04239115575
0.05940495219
0.05645850781
0.06786630584
0.06670096877
0.04752673051
0.1097130146
0.08774488044
0.08922813448
0.08480609414
0.08632979012
0.1081154907
0.05036208906
0.03298751028
0.03306099507
0.08266075668
0.06182445913
0.06272736773
0.05408943959
0.05520179915
0.07513573852
0.01463783044
0.01457877305
0.0137757857
0.01422545258
0.01425933684
0.01437311071
0.01385326321
0.01437231005
0.01418526744
0.1165262333
0.09358607909
0.09516188898
0.09064314302
0.09212891905
0.1148666242
0.04935273835
0.06996149606
0.06883838522
0.08043132223
0.07775902696
0.0556335669
0.1240116221
0.1008303692
0.1030890683
0.09683690147
0.09871639695
0.1220235198
0.1318909501
0.1093136139
0.1111155691
0.1052965911
0.1074090188
0.1300819061
0.06444734234
0.08516696008
0.0829400417
0.09418498323
0.09283618679
0.07057926821
0.1388562528
0.1164343988
0.1182805461
0.1128763078
0.1146337994
0.1372337049
0.01442583561
0.0143377287
0.01623520537
0.01464606673
0.01462667145
0.01455921623
0.01504295504
0.01462961304
0.01504495219
0.01403821104
0.03280065761
0.01592986791
0.02274917729
0.01494397515
0.01565620276
0.03118691544
0.002023494146
0.006941449579
0.006730450841
0.01117263879
0.008713131833
0.003041201005
0.0130200081
0.01017862773
0.01103295899
0.01141016872
0.01097760925
0.01287294262
1.152569148
1.154931285
1.158112698
1.161681447
1.053556508
0.9062800344
1.153506321
1.15627919
1.155668968
1.159763325
1.163146682
1.162148214
1.080953143
0.9535063582
0.9328207601
0.8768567348
0.8288637881
0.8164573984
0.7001286603
0.6633134553
0.6486559971
0.5677672386
0.5403822067
0.5271575592
0.3938303278
0.347684511
0.3518479285
1.154450435
1.157501491
1.156940386
1.161170906
1.164512172
1.163869743
1.140726651
1.013378968
0.9814654544
0.9321822108
0.8912579013
0.8760996336
0.7718631771
0.736135965
0.7184359973
0.6404602551
0.6111889971
0.5923572645
1.15541269
1.158677423
1.15815058
1.162422451
1.16564258
1.165114721
1.166710242
1.120863839
1.055655423
1.030844028
0.9937776115
0.9644343274
0.8878770892
0.8537385253
0.8224092022
0.7709507991
0.7466855478
0.707174948
0.6789064939
0.6690840308
0.6166267883
0.08873391566
0.0164645937
0.01595992314
1.156332065
1.159753548
1.159260326
1.16347743
1.166512735
1.16611119
1.167347491
1.16280218
1.162874573
1.159227132
1.138693636
1.096147773
1.049016461
1.026004162
0.9769700213
0.9707100966
0.9631944236
0.8941815175
0.7824608331
0.6318762337
0.6650565084
0.05322191405
0.01850833069
0.01785926313
1.157150382
1.160671706
1.160227914
1.16433611
1.167109698
1.166812292
1.167673364
1.16241182
1.162740361
1.158511872
1.152753498
1.153143753
1.122695153
1.106656276
1.10899892
1.024038058
0.9756883143
0.9863848803
0.6654657043
0.465432299
0.5205382313
0.03107563048
0.02397947568
0.02209436057
1.157840919
1.161393464
1.161038016
1.164959576
1.167500582
1.167343883
1.167668347
1.161656448
1.16225551
1.157531069
1.151206327
1.151622941
1.116517297
1.096872142
1.099180496
0.9869713489
0.9172744396
0.9335201669
0.463673682
0.2656745254
0.3067963089
0.03039835424
0.04085166571
0.03469729197
1.158395705
1.161949584
1.161676201
1.165390712
1.167675474
1.167608659
1.167475638
1.160697792
1.161451824
1.156228189
1.149324391
1.149813647
1.111077928
1.088767479
1.09089946
0.9511491225
0.8559414082
0.8696770207
0.3250050264
0.169019325
0.1829044229
0.03644681499
0.07072245977
0.06321512968
1.158831203
1.162365573
1.162159684
1.165671913
1.167707536
1.167705814
1.167112303
1.159476682
1.160401561
1.154655102
1.147106899
1.147694791
1.10461377
1.079061832
1.081686971
0.9120513959
0.7920749437
0.8094402781
0.2717409738
0.1404113718
0.1464247249
0.04221227958
0.09181901355
0.08643657917
1.159174067
1.162678639
1.162520332
1.165850421
1.16764638
1.167685154
1.16665068
1.158104737
1.15914765
1.152827993
1.144517673
1.145201527
1.09665163
1.066858643
1.070205382
0.8597142846
0.7181821122
0.7367102315
0.2323870656
0.1183153971
0.1235057036
0.05026942844
0.1136893024
0.1082084278
1.159462214
1.162929734
1.162798218
1.165973772
1.167541976
1.167596299
1.16615487
1.156621243
1.15774354
1.150754874
1.141524884
1.142312312
1.086514019
1.050633079
1.055202885
0.7962861348
0.6485067711
0.6651442884
0.2004009769
0.1005489817
0.1046083348
0.06142364852
0.1354840436
0.1300344038
1.159725214
1.163157104
1.163034009
1.166084168
1.16743863
1.167487696
1.165677669
1.155075189
1.156242342
1.148484945
1.138096927
1.138998995
1.072865553
1.027756927
1.034219307
0.7329453547
0.5870577952
0.6016669581
0.1740226756
0.08705792809
0.0900834534
0.07604193645
0.1556662685
0.1508449602
1.159990705
1.163388181
1.163261598
1.166210587
1.167364967
1.167396978
1.165242001
1.153452707
1.154682718
1.145998825
1.134115548
1.135175183
1.054345117
0.9977104092
1.005714379
0.6766460183
0.5344838135
0.5466638681
0.1535372021
0.07755432659
0.07949383363
0.09322274866
0.173507926
0.1692660832
1.160267386
1.163638203
1.163501981
1.166366195
1.16732984
1.167342468
1.164837449
1.151644987
1.153027128
1.143157589
1.12929623
1.130599722
1.031698512
0.9645751271
0.9728833469
0.6301229751
0.4924638914
0.5019978023
0.1381228654
0.07203622208
0.07311191673
0.1107812866
0.1888839935
0.1852875039
1.160566874
1.163912821
1.163764972
1.166554487
1.16733006
1.167325793
1.164436366
1.149503749
1.151150324
1.139728725
1.12332037
1.12493235
1.007383767
0.9325648737
0.9403171067
0.5930389112
0.4600905206
0.4673689571
0.1273913357
0.06914087588
0.06969027669
0.1269257545
0.2016243896
0.1986739618
1.160884718
1.16421464
1.164053924
1.166775013
1.167356978
1.167340613
1.164001359
1.146899082
1.148904327
1.13553588
1.116122497
1.118027249
0.9836464996
0.9037225382
0.9105908707
0.5640668108
0.4357075791
0.4411372653
0.1205924387
0.06775530564
0.06798521966
0.1408431909
0.2121032436
0.2096655052
1.161229016
1.164542747
1.164369717
1.167024726
1.167397043
1.167375894
1.163488471
1.143774886
1.146171789
1.130556284
1.107954363
1.110065585
0.9617682396
0.8786166005
0.8845381473
0.5417692598
0.4177058988
0.4216795009
0.1162439252
0.06750576151
0.06746111046
0.1522840967
0.2207997463
0.2187739966
1.161590128
1.164895875
1.164710634
1.16729728
1.167431532
1.167415206
1.162853958
1.140165155
1.142920611
1.124932277
1.099228759
1.101439573
0.9422548577
0.8572059434
0.8622284802
0.5248181577
0.4046704107
0.4075161989
0.113809451
0.06813106079
0.06788826738
0.1615305741
0.228022798
0.2263410949
1.16197535
1.16526967
1.16507379
1.167584373
1.167439178
1.167437778
1.16206346
1.136162745
1.13920296
1.118879043
1.09033879
1.092559055
0.9251324577
0.8391889224
0.8433998469
0.5121254283
0.3955105077
0.3974533592
0.1128144102
0.06941044264
0.06900978608
0.1689455083
0.2340031244
0.2326109641
1.162375151
1.165662307
1.16545435
1.167876636
1.16739995
1.167421954
1.161098523
1.131883224
1.135118121
1.112610209
1.08157791
1.083744279
0.9102540035
0.8240969926
0.8276227436
0.5027584185
0.3892949218
0.3905984824
0.1129856046
0.07120608237
0.07067601082
0.1749901263
0.2389578116
0.237799685
1.162794055
1.166068426
1.165848616
1.168165055
1.167297833
1.167348658
1.159956862
1.127437391
1.130789079
1.106299189
1.073132717
1.075207734
0.8973909867
0.8114600358
0.8144130857
0.4960254751
0.3854250913
0.3862082547
0.1141207482
0.0734206029
0.07277076924
0.1800385116
0.2431040309
0.2421250546
1.163231093
1.166487619
1.166248931
1.168440706
1.167121084
1.167203583
1.158645881
1.122921815
1.126317641
1.100073016
1.065105201
1.06706963
0.8862880373
0.8008515875
0.8033340864
0.4913182447
0.3832873676
0.3836707013
0.1160316404
0.07601685867
0.07524668107
0.1843732703
0.2466342087
0.2457849593
1.16367706
1.166911617
1.166653125
1.16869401
1.166859064
1.166978848
1.157176104
1.118407732
1.121796234
1.0940164
1.057542749
1.059388834
0.8766652893
0.7919189109
0.794008283
0.4881487781
0.3824812029
0.3825502454
0.1185842812
0.07897156683
0.07807407871
0.1881996019
0.2497100139
0.2489447038
1.164139404
1.167331088
1.167054088
1.168908858
1.166493891
1.166677778
1.155536007
1.113953768
1.11729411
1.088182906
1.050457876
1.05218571
0.8682943848
0.7843613864
0.7861458584
0.4862014841
0.3827158808
0.382516783
0.1216852559
0.08226552519
0.08122688501
0.1916559835
0.2524500361
0.2517242544
1.164693651
1.167817567
1.167464991
1.169126212
1.166009704
1.166326488
1.153625576
1.109339273
1.112878367
1.082562462
1.043789748
1.045484582
0.8609241889
0.7778837554
0.7795617126
0.4852212366
0.3837931689
0.3833575684
0.1252660185
0.08588117389
0.08467974276
0.1948533023
0.2549571043
0.2542059521
0.356049562
0.3602665394
0.4059829781
0.2551565186
0.2658827585
0.3146332165
0.4183139265
0.4217113284
0.4177429153
0.3947352539
0.4260091806
0.4343462345
0.4141865652
0.4111715347
0.4020356868
0.3231523338
0.3268841621
0.3737775976
0.4240613744
0.3826560593
0.3620760016
0.3155459127
0.3184908653
0.0143574403
0.4362696775
0.4405311009
0.3726966139
0.01291060429
0.01189108511
0.005815674535
0.01332900088
0.01887566521
0.01765584442
0.01608447904
0.01507421842
0.01369100719
0.0160724027
0.8043398226
0.7933626125
0.8466712951
0.7005862883
0.744432418
0.7565678587
0.6348419817
0.6218542607
0.6594373604
0.5565968809
0.5875929191
0.6004865123
0.5153267956
0.5041334541
0.5287694007
0.4632709491
0.4829479587
0.4931768014
0.8575023341
0.8419643947
0.8909390248
0.7546446334
0.7973082828
0.8137126321
0.7699601934
0.7834734798
0.7400226096
0.6961916529
0.6784636923
0.7151549557
0.6123581493
0.6440569241
0.6617889672
0.6141422414
0.6288272111
0.5972038536
0.5711927045
0.5551954937
0.5826319497
0.5024991137
0.529749292
0.5445305637
0.5039876077
0.5161627854
0.4898563272
0.3393898209
0.3435061344
0.3899194065
0.2441018198
0.2943330938
0.2902991951
0.3026537587
0.2985639289
0.2483520973
0.9388513536
0.9134698632
0.9558325353
0.8330425992
0.8722732813
0.8986515907
0.8334588615
0.8490869289
0.8093306866
0.7919493676
0.7613923086
0.7960770185
0.6965431768
0.7288084852
0.7581147406
0.6843763895
0.702516568
0.6711640181
0.6709935205
0.637813319
0.6652937701
0.5868790848
0.6121289271
0.6456941788
0.5648244235
0.5839195407
0.5600583318
0.2065853245
0.2025762023
0.1515163471
1.059571321
1.025404408
1.062471541
0.9558009401
0.9908293325
1.02504982
0.9262623607
0.9571219513
0.9225860704
0.9324414774
0.8913082558
0.9219406536
0.8370042131
0.8630882766
0.9060192443
0.7881476006
0.8230906656
0.7960323499
0.8394981193
0.7909003913
0.8132564171
0.7493589181
0.7696434551
0.8201633357
0.6827557449
0.7239995109
0.7006738183
0.6783247348
0.6990613199
0.7371119442
0.2949279273
0.5235881487
0.495345057
0.5541332093
0.5374645567
0.3233830739
0.01729997507
0.0168727007
0.07850187334
0.02970556308
0.0312922535
0.02723630337
0.02845582112
1.153533397
1.15389388
1.159073075
1.125462806
1.147069413
1.14646512
1.061709392
1.104020201
1.074566434
1.111145841
1.080991411
1.10137188
1.051616708
1.063875767
1.092574866
0.9530229819
1.004863256
0.9859712513
0.9960712272
1.003965467
1.043126506
0.8741248195
0.950151153
0.9381576159
0.8840900744
0.9595175321
0.8871470896
0.5618860509
0.6090344805
0.765392649
0.1732481717
0.3952136362
0.3399435676
0.4741731429
0.4281476909
0.2003355577
0.02051099925
0.01942417881
0.04569822128
0.04006590277
0.04523979494
0.03342926047
0.03626085061
1.152014822
1.152382006
1.158301428
1.134210975
1.144473381
1.143866865
1.145811508
1.145133932
1.135284949
1.101655394
1.104181042
1.121041584
1.053962872
1.082442281
1.078587146
1.089511076
1.086114403
1.059443312
0.9489248406
0.9628981299
1.01574658
0.7788133765
0.8877799196
0.8663987839
0.9237036024
0.9077712902
0.809933947
0.3569528749
0.4110859418
0.6191547566
0.07756176234
0.2104888863
0.1736596583
0.2989239868
0.2506186791
0.09758809239
0.03006241538
0.02658219429
0.02975355647
0.07134022246
0.08460582484
0.0517592825
0.06083699709
1.15029862
1.150770529
1.157231423
1.130520003
1.142068129
1.141419833
1.143293953
1.142695705
1.131409545
1.092966219
1.094906593
1.115241855
1.029843236
1.067457552
1.064428145
1.074686504
1.070881526
1.0357807
0.8841111738
0.9006029429
0.9770363514
0.619430412
0.7867709907
0.7591551372
0.8414636226
0.8152926254
0.6634860813
0.2037980724
0.2308984382
0.4158764193
0.03994856246
0.101080272
0.08598801721
0.1440912439
0.1215377111
0.0438433861
0.05570964695
0.04778012095
0.03156403048
0.125259754
0.1372926504
0.09842470478
0.1122618829
1.148259744
1.148802542
1.155857219
1.126591723
1.139294655
1.138529323
1.140717878
1.140018435
1.127620052
1.08417532
1.086539443
1.109585029
1.009106344
1.05460793
1.050956804
1.061324746
1.058069488
1.014590484
0.8258876587
0.8413836096
0.9422596083
0.497226442
0.6894339863
0.667676842
0.732865334
0.7111671978
0.5193921708
0.1532212903
0.1608484565
0.3097794805
0.0374384328
0.06569945777
0.06278889231
0.07573874176
0.06913327955
0.03733629458
0.08117611328
0.07604495087
0.03775915922
0.1606442974
0.1651215081
0.1471831856
0.1555822818
1.14586172
1.146496366
1.15422161
1.12193871
1.136037336
1.135134798
1.13773261
1.136902561
1.123182475
1.073339039
1.076284712
1.102782722
0.9836001926
1.038671326
1.034028566
1.047101246
1.043017219
0.9906228548
0.755386757
0.7739621866
0.9003964681
0.4243436335
0.6050938848
0.5858865691
0.6462142389
0.6252822002
0.4405188592
0.1288985158
0.1344854414
0.2609399909
0.03833152225
0.05628522564
0.05474489181
0.06038815566
0.05807701004
0.03806141996
0.1026837562
0.09721613736
0.04398000633
0.1779677548
0.1821129543
0.1694842187
0.1737606687
1.143073484
1.143808791
1.152331626
1.116312467
1.132182442
1.131110276
1.134192605
1.133209104
1.117826533
1.059398651
1.063268924
1.094359605
0.9490027631
1.01780455
1.011412839
1.02904364
1.023657691
0.9587987295
0.6823234141
0.7000152798
0.8444753371
0.3691871365
0.53404515
0.5184149212
0.5676849538
0.5504269898
0.3818579987
0.1089140285
0.1134403045
0.2238449738
0.03978648611
0.05143352607
0.05071125029
0.05340874023
0.05231815546
0.03935379041
0.1245535919
0.1191466034
0.05276941658
0.1945288953
0.1987204431
0.1862540519
0.1904006163
1.139869579
1.14071107
1.150205863
1.109362862
1.127594484
1.126311064
1.129990135
1.12881939
1.111252208
1.040178219
1.045639268
1.083499963
0.9017233438
0.9883772524
0.9793239651
1.004410414
0.9967429118
0.9146188866
0.6167910935
0.6324012642
0.7800719251
0.3234805751
0.4750283019
0.4615490776
0.5033933839
0.4889513286
0.3342205213
0.09338484687
0.09684164868
0.1933589193
0.04210278866
0.04923876968
0.04896933951
0.05010333855
0.04961138359
0.041430795
0.1458773688
0.1407625701
0.06475666515
0.2113242956
0.2154822812
0.2029497309
0.2071475768
1.136188512
1.13716115
1.147886427
1.100447955
1.122049686
1.12046887
1.124963547
1.123545545
1.102910522
1.013443362
1.02081403
1.068710069
0.8469408426
0.9487590688
0.9378536618
0.9696322034
0.9594005869
0.8607717934
0.5595102577
0.5729894703
0.7180476894
0.2845014905
0.4239932402
0.4125369367
0.4485237978
0.436006166
0.2935797711
0.08185228226
0.08436499509
0.1683038895
0.04572232489
0.04872009413
0.04879260021
0.04876804823
0.04869139986
0.04467365452
0.164880128
0.1603443825
0.08016348833
0.2277437795
0.2317311456
0.2196092254
0.2236982782
1.131833771
1.133003932
1.145331012
1.088729748
1.115133587
1.113131452
1.11879487
1.117019157
1.091952072
0.9812178901
0.9895171591
1.048986996
0.7944476625
0.9048926288
0.894172456
0.9268262004
0.9158050648
0.8069646946
0.512163036
0.5229841647
0.6640750884
0.2535670455
0.3820336476
0.3731596452
0.4017099244
0.3915464478
0.2604617
0.07444326034
0.07593667176
0.1492975113
0.0509215896
0.04927214652
0.04953704143
0.04890806087
0.04905689489
0.0494762301
0.181509761
0.1775908993
0.0976673003
0.243173553
0.2467665883
0.2356424254
0.2394610131
1.126465318
1.127919353
1.142364944
1.07400649
1.106390378
1.103899531
1.111008035
1.108760858
1.077936611
0.9482545898
0.9563518983
1.025673971
0.7494459948
0.8636520424
0.8541249007
0.8836977704
0.8735171699
0.7599205672
0.4751738051
0.4835312662
0.6200168935
0.2306916745
0.3500617754
0.3434277605
0.3648972502
0.3572108376
0.2357679589
0.07034848029
0.07112121511
0.1349781685
0.05770174143
0.05044833639
0.05081192524
0.04981424621
0.0501206284
0.05586550932
0.1955753649
0.192313885
0.1149887404
0.2567576549
0.25982149
0.2502313029
0.2535612271
1.119864763
1.121630655
1.138758259
1.057161363
1.095776223
1.092884622
1.101294618
1.098583409
1.061495082
0.9176906551
0.9250170889
1.00132884
0.7124512384
0.8276911183
0.8195969064
0.8449534781
0.8361420624
0.7209897516
0.4469987596
0.4533091246
0.5850928249
0.2143263307
0.3264034287
0.3215819117