/*--------------------------------*- C++ -*----------------------------------*\
| =========                 |                                                 |
| \\      /  F ield         | OpenFOAM: The Open Source CFD Toolbox           |
|  \\    /   O peration     | Version:  v2012                                 |
|   \\  /    A nd           | Website:  www.openfoam.com                      |
|    \\/     M anipulation  |                                                 |
\*---------------------------------------------------------------------------*/
FoamFile
{
    version     2.0;
    format      ascii;
    class       volScalarField;
    location    "1.32";
    object      omega;
}
// * * * * * * * * * * * * * * * * * * * * * * * * * * * * * * * * * * * * * //

dimensions      [0 0 -1 0 0 0 0];


internalField   nonuniform List<scalar> 
3019
(
642.4397289
125.3572977
64.65157082
45.9653803
38.33806818
34.46082412
32.21686477
31.33603792
30.82466985
30.62906054
30.52765078
30.47839803
406.527351
117.461357
64.56494918
46.70705489
38.75565824
34.64614843
32.27409018
31.32823874
30.76992232
30.55662468
30.44350559
30.38880741
292.7145619
110.4670119
64.18964652
46.99960717
38.96812339
34.71451509
32.28701443
31.30702793
30.71518102
30.48771854
30.36386429
30.30405309
264.207739
108.3783939
64.52638983
47.23272635
38.96848074
34.6856957
32.26708523
31.27174223
30.65416036
30.41600875
30.28463712
30.22043274
270.2221614
110.5020385
65.42125936
47.37210182
38.83692695
34.60518329
32.21657471
31.2224546
30.58884199
30.34361943
30.2052213
30.13716925
289.7483063
114.3625281
66.08740829
47.1670908
38.61407456
34.48644913
32.14050121
31.15531465
30.51324077
30.26338317
30.12124628
30.05017506
296.1139507
115.3685229
65.6291336
46.71140402
38.36941149
34.34496966
32.04779617
31.07548765
30.43110984
30.17909431
30.0342184
29.96128896
277.6582024
112.7948632
64.86691994
46.25214923
38.11951181
34.19214734
31.94357054
30.98533675
30.34017366
30.0867096
29.94005477
29.86598915
257.4293319
109.8802961
64.10970452
45.8201498
37.87545515
34.03530324
31.83143675
30.88696753
30.24445977
29.99123342
29.84362717
29.76889386
238.3998909
106.7525495
63.30993192
45.44579366
37.64636121
33.87912528
31.71428262
30.78224407
30.14103916
29.88762482
29.73949991
29.664639
221.2688484
103.6386483
62.50073931
45.12810626
37.43905634
33.72711976
31.5945055
30.67281943
30.03566032
29.78348367
29.63536245
29.56062388
206.3202023
100.6811392
61.71292129
44.8495108
37.25512516
33.58179153
31.47403466
30.56020115
29.92360974
29.67129353
29.52320608
29.44889863
193.3802118
97.91965209
60.95769282
44.59512102
37.09138702
33.44422635
31.35421555
30.44556197
29.8128643
29.56207651
29.41440432
29.34059742
182.14815
95.35372287
60.23771572
44.35639591
36.94311113
33.31420637
31.23579638
30.32986982
29.69534435
29.44378685
29.29625906
29.22308957
172.3363031
92.96839506
59.55130853
44.12844425
36.80607869
33.19085766
31.11912041
30.21372774
29.58286294
29.33291994
29.1859077
29.11333227
163.7136878
90.7443959
58.89449748
43.9080589
36.67702636
33.07310884
31.00426064
30.09769135
29.46156242
29.20988945
29.06290861
28.99097574
156.0736073
88.65969914
58.26305762
43.69299823
36.55353474
32.95993719
30.89117199
29.98194294
29.35037595
29.100479
28.95395077
28.88256094
149.2378563
86.69522207
57.65342234
43.48146111
36.43376515
32.85041677
30.77974964
29.86687971
29.22536345
28.97266258
28.82599813
28.75517275
143.0769265
84.83893715
57.06228077
43.27195602
36.31633263
32.74375556
30.66988203
29.75241123
29.11865763
28.86797892
28.72162094
28.65122754
137.4765587
83.07831498
56.48644935
43.06337987
36.20019888
32.63927718
30.56146359
29.63900049
28.98811996
28.73375097
28.58714085
28.51720894
132.3438398
81.4014057
55.92344893
42.85489532
36.08451676
32.53635916
30.45444463
29.52634256
28.89035013
28.63791178
28.49138222
28.42175149
127.6235351
79.800408
55.37154464
42.64577945
35.96857368
32.43450766
30.348985
29.41539664
28.74960316
28.49364993
28.34683614
28.27756589
123.2797621
78.27130749
54.82958173
42.43537723
35.85173953
32.33324216
30.24575315
29.30617182
28.66820146
28.41228448
28.26529848
28.19618744
119.2845358
76.82177192
54.30111165
42.22452188
35.7340051
32.23243299
30.14666245
29.20193831
28.4864691
28.22683122
28.07931596
28.01050736
782.1427873
670.7249919
151.1599813
500.6592313
767.1445728
423.5918501
147.8596318
149.6369673
386.3835429
493.272482
278.2611159
570.1326266
585.0888984
513.2117077
247.8668328
269.0836629
1068.518198
680.1623345
1167.817832
908.9574129
478.0029174
649.6696858
305.0302132
135.9450783
145.0204578
422.6367829
461.0802262
855.5702473
228.7297401
240.9942556
500.1997201
460.2959602
5729.810109
1718.171812
953.2300433
529.8129728
4237.012626
2846.926908
910.1548044
4412.026265
5583.518688
2811.572517
4172.852971
5930.168811
1609.427646
2435.273055
1137.673169
1434.569913
5326.925836
5961.159117
1527.255258
5655.284373
4799.53357
137.1501156
73.67388208
873.5759242
2500.818997
1669.879966
3908.675975
2229.300914
1153.843855
682.7862092
5743.470694
6097.459955
6207.367631
5085.859793
5905.84833
923.3580674
1067.305574
5375.74821
4846.217977
5457.012001
5051.420611
5874.832338
5817.344766
5641.567709
3282.378728
4949.59933
4461.251202
5611.345601
5815.981942
3718.52152
4075.344599
4535.259574
5857.488165
4709.08942
3229.951955
3584.371139
5450.189323
3962.218667
4216.641403
3053.313196
3530.269111
5640.65892
64.49659635
48.92035798
45.82707447
39.5874455
38.1845193
35.1316791
573.4290633
382.5224425
409.696149
119.7184049
72.7623101
73.5690215
64.56625991
49.65506669
49.05560733
46.53707562
40.15275981
39.77609854
38.67643598
35.40952622
35.20586546
370.0946879
206.0330888
223.9551246
111.8395214
71.75869555
72.67609056
64.23484959
50.0219147
49.7722518
46.96657267
40.49289257
40.26691835
38.94206799
35.53887837
35.44765551
403.2289863
451.8300985
267.0651733
129.543302
133.5804459
108.4255276
71.60406369
71.61310776
64.37682048
50.27719102
50.05461956
47.16873996
40.55656602
40.51679511
38.98038281
35.51948803
35.54139511
402.4010891
396.7407006
266.9096809
130.568301
129.268434
109.6476155
72.56588624
71.75034574
65.17817036
50.58441066
50.35744965
47.35945103
40.49886726
40.55763718
38.88513042
35.43462385
35.50172084
439.9410929
408.9781288
285.1117083
135.5905295
131.7242714
113.4188254
73.79670297
72.89616613
65.98833008
50.6226284
50.63583331
47.26082609
40.26134999
40.45273867
38.67267919
35.30611438
35.40591894
463.7525779
450.2126698
297.504604
138.4487753
136.8390095
115.5562691
74.00948377
73.98809551
65.83650882
50.1697634
50.55356667
46.82636472
39.97909889
40.19237666
38.43159759
35.1508336
35.269109
428.9070841
458.8108415
282.8693799
135.4800903
138.2254998
113.4739645
73.12545265
73.79157277
65.05193584
49.63257033
50.03495003
46.36599309
39.68914242
39.90678726
38.18182053
34.98285571
35.10963805
384.4751233
417.6143463
262.3970758
131.3323223
134.4750738
110.6373529
72.16599237
72.89854096
64.30344001
49.12661439
49.50138536
45.92346073
39.40520367
39.61709341
37.93540472
34.81080979
34.94000301
342.5312417
373.6722092
243.0044294
126.890343
130.241436
107.5415249
71.08380516
71.90456967
63.51240067
48.68519201
49.00981695
45.53353129
39.14034048
39.33672095
37.70178697
34.64034057
34.76788837
305.2635742
332.6780274
225.3465219
122.4327828
125.7652907
104.4057118
69.95848262
70.80318762
62.70182777
48.3026184
48.58486711
45.20313701
38.90441215
39.07842433
37.48864963
34.47575148
34.59851205
274.1394028
296.8799255
209.8587719
118.1957232
121.3473817
101.4026307
68.85631418
69.67918891
61.9070383
47.95811127
48.21362985
44.91642817
38.69906447
38.85033775
37.29903834
34.32014974
34.43593519
249.2880935
267.3147299
196.4420401
114.2590538
117.1822209
98.59124316
67.80220243
68.58782727
61.14320181
47.63729858
47.876045
44.65699999
38.51900747
38.65195453
37.13068713
34.17477886
34.28284935
229.6103368
243.9581479
184.8120351
110.6264165
113.3228011
95.97752596
66.80215965
67.54701189
60.41443029
47.33300174
47.55983855
44.41490974
38.3573319
38.47710957
36.97897585
34.03913399
34.14000419
213.4960993
225.2891045
174.6690057
107.2745858
109.7629688
93.54875774
65.85485637
66.56047535
59.71995297
47.04129056
47.25899713
44.18461575
38.20841378
38.31908332
36.83947665
33.9118672
34.00659379
200.0465896
209.9121227
165.7687265
104.1747211
106.4768363
91.28644374
64.9551079
65.62562697
59.05617228
46.75925924
46.96994675
43.96258119
38.0682008
38.17266425
36.70868708
33.7914474
33.88117887
188.5730542
197.0154492
157.9014876
101.2956511
103.4352427
89.16898052
64.09643568
64.73673032
58.41873775
46.48464516
46.68995304
43.74636516
37.93384267
38.03414155
36.5839945
33.67646246
33.76223974
178.5754318
185.9509299
150.8774895
98.60617992
100.6062444
87.17571328
63.27334731
63.88742361
57.80395478
46.21558495
46.41690002
43.53409892
37.8032693
37.90090296
36.46343969
33.56569814
33.64841854
169.7311425
176.2695962
144.5576144
96.08591791
97.96067653
85.2934382
62.48137142
63.07253177
57.20850202
45.95036318
46.14895196
43.32420383
37.67493004
37.77101465
36.3455307
33.4581289
33.53854075
161.8068178
167.6790552
138.8241568
93.7167944
95.48014593
83.51008952
61.71593642
62.2876232
56.62911279
45.68758995
45.88445493
43.11548174
37.54769889
37.64304386
36.22915774
33.35291387
33.43163218
154.6307194
159.9639686
133.5740829
91.47914235
93.14587202
81.81285058
60.97302222
61.52815058
56.06307458
45.42623335
45.62212059
42.90704242
37.42069737
37.51594518
36.11343319
33.24931216
33.3268852
148.099865
152.974034
128.7376878
89.35811228
90.93951162
80.19218377
60.24974846
60.79042535
55.50847128
45.16546838
45.36098819
42.69814827
37.29319189
37.38888223
35.99761791
33.14671542
33.22358541
142.1407499
146.6291847
124.2629426
87.34020641
88.8491113
78.6392928
59.54328837
60.07189508
54.96334971
44.90440958
45.10025603
42.48802472
37.1644991
37.26114426
35.88104105
33.04457793
33.12115275
136.6526613
140.8716632
120.0845861
85.40443351
86.86815538
77.13917018
58.84781978
59.37102334
54.42347303
44.64124854
44.83922667
42.27524605
37.03371469
37.13209578
35.76287582
32.94227047
33.01905755
131.2330173
135.6343244
115.9080735
83.41978789
85.00346889
75.58974302
58.11446371
58.69240755
53.85055055
44.35681657
44.57920932
42.04417901
36.89118821
37.00183156
35.63447536
32.83262425
32.91719876
813.7273307
950.2262313
913.0140424
568.6614385
589.7318795
705.8259198
156.3824633
248.1026608
228.3454627
523.1187732
857.7364746
1484.08345
1130.665299
753.2852757
334.9676543
347.1845434
461.4382021
143.7702923
204.7214605
197.3017355
222.3554864
209.0643454
144.8320649
445.7447951
498.0028632
288.045266
396.1578138
369.3836708
408.4260437
274.3214422
1375.739776
1004.633996
665.0311424
642.3113335
554.1993371
603.7709353
726.1417695
691.9011947
345.2558681
375.3698303
554.8298715
253.4283655
310.4878301
301.9755975
356.4923141
323.3218846
261.5196073
1531.624871
1370.774838
1007.844071
2637.468694
2904.819562
4496.138273
710.6837953
1055.595128
929.5494646
1260.304468
1997.111417
1743.651619
669.9316235
704.7038478
1073.025596
493.8016349
584.0353379
562.1885262
609.5683341
513.0223214
809.2012573
759.0743282
625.4420585
2060.206778
2316.321053
888.6702619
898.8572554
215.9569342
223.6011737
353.2746504
138.7358935
171.5615037
167.3916682
192.5968438
176.3190462
141.7113406
433.2769484
503.9810766
488.4196012
540.7429065
522.2161886
448.1251527
745.7364479
614.5189081
641.4696105
231.1118763
278.1069823
273.201284
292.0364964
285.6290261
237.2842435
474.0309302
352.0207952
366.9688026
478.3351386
642.5658248
617.6284104
1958.469919
3494.59484
3013.682188
793.8134558
824.7347287
724.5403349
745.0901093
997.4544708
544.2050014
620.3005521
607.4751933
3758.039345
2225.333324
2596.11501
1676.906808
1907.316152
3244.767006
951.1690398
1244.326412
1146.701635
1814.288459
3002.047224
2633.918681
3919.135031
3449.82755
2101.080799
1208.789094
1815.057114
1623.721273
2298.234711
2031.509228
1324.579993
2599.079287
2297.102633
1389.540478
103.5122082
104.5633369
138.4597585
73.77241295
86.32967836
85.70861307
1070.56453
1008.568867
838.2670785
2212.117763
1368.868425
1501.714823
1152.551883
1240.465853
1903.358225
900.3833227
940.2693967
1256.352187
715.7991485
788.0003122
785.4561335
829.6501536
728.3686761
1634.670718
1808.195137
970.6195306
1227.768999
1149.682459
1457.908499
1332.304502
1019.314112
34.40239923
32.91890871
32.17421705
31.67441275
31.33687816
31.10971647
616.3176862
531.2347767
548.414709
123.4984762
100.9934523
102.1117836
64.60004326
58.16593269
58.07257964
46.2644433
43.70557301
43.50600325
38.44049972
37.21934832
37.11651512
34.61577152
33.05032954
32.99243198
32.24979673
31.70635644
31.69231635
31.33416232
31.0825451
31.09855853
394.2606445
313.764611
323.8478814
115.33415
96.34388692
97.59349866
64.5295848
58.44663229
58.36536146
46.76661013
44.23674253
44.15808347
38.8426533
37.54031055
37.46605235
34.70954275
33.11466639
33.08509684
32.28803947
31.71340973
31.71433642
31.32169073
31.04989524
31.06857613
281.3045328
203.7664153
209.4414658
109.4360099
93.07408334
93.59414449
64.21977707
58.43255542
58.38924919
47.05037511
44.49665392
44.46387334
38.97996471
37.64734355
37.64517921
34.698004
33.11181727
33.11594997
32.28270251
31.69997011
31.709531
31.29487985
31.00954303
31.03150679
263.5442438
196.3636609
196.3606239
108.5535894
92.98442673
92.73397232
64.71808683
58.92800607
58.7733719
47.28545
44.65127472
44.62497643
38.95340368
37.59398185
37.61667809
34.63028804
33.06938106
33.09560619
32.24625034
31.66390559
31.6822057
31.25361968
30.95954945
30.98627175
275.0529228
203.8923357
201.2621132
111.437375
95.17677372
94.51261348
65.64607474
59.58024715
59.43092519
47.36056647
44.6121712
44.64964046
38.78462356
37.44175307
37.48538335
34.51920319
32.99482739
33.03585111
32.18103607
31.6038209
31.63578999
31.19314291
30.89750753
30.93068691
293.7797309
214.4346002
212.2274748
114.9593921
97.62996136
97.1938832
66.08260315
59.71120721
59.76999647
47.05488302
44.28682638
44.3832593
38.55418948
37.24633885
37.29757064
34.38194072
32.89574116
32.94771132
32.09587893
31.52654355
31.56667973
31.11879044
30.82350021
30.86214913
293.4246875
214.5804982
215.9743646
114.789128
97.44611133
97.84927009
65.4303017
59.04311288
59.22217249
46.59618402
43.89493712
43.99356606
38.30694508
37.03307023
37.08719477
34.23100664
32.78133491
32.83998916
31.99688757
31.43612105
31.482459
31.03303751
30.73964504
30.78303628
272.5159903
204.202763
206.8045498
112.0966602
95.64473358
96.12115565
64.68155661
58.37564215
58.53635141
46.1400319
43.50331912
43.59998826
38.05758225
36.81574372
36.86993895
34.07461237
32.65797329
32.720477
31.88830452
31.33605044
31.38690002
30.93815114
30.64713513
30.69469969
252.5320939
193.6468265
196.3034255
109.1093774
93.57099966
94.11035358
63.91296771
57.7541248
57.90748004
45.72064674
43.1372211
43.22482708
37.81644733
36.60295873
36.65535408
33.91790701
32.52980104
32.59428487
31.77332938
31.2290551
31.28313091
30.83607961
30.54760141
30.59845411
233.9159782
183.1574366
185.7378607
105.9649484
91.35436921
91.91177668
63.10693181
57.14829349
57.29864056
45.36167285
42.81885897
42.89356693
37.59232706
36.40141009
36.45042603
33.76458612
32.39986552
32.46488882
31.65459114
31.11730033
31.17355242
30.72858083
30.44224326
30.49586861
217.3293546
173.3338615
175.7053671
102.8818273
89.1608342
89.70093965
62.3010873
56.55741871
56.70332851
45.05549042
42.54914183
42.61262803
37.3909495
36.21609354
36.26075112
33.61743051
32.27061692
32.33502771
31.53425875
31.00259676
31.06014663
30.61721925
30.33275371
30.3882272
202.9060269
164.4564647
166.5847903
99.97187452
87.07383587
87.58395556
61.52083672
55.98757712
56.12789808
44.78406305
42.31537556
42.371214
37.21247829
36.04849971
36.08879804
33.4779012
32.14379043
32.20682797
31.4139844
30.88641147
30.94456611
30.50334074
30.21996255
30.27701704
190.4232869
156.5159783
158.4192209
97.26017425
85.11444896
85.59215071
60.77437253
55.44110387
55.57549362
44.53419497
42.10489547
42.15585414
37.05304773
35.89680646
35.93340741
33.34605402
32.02025343
32.08158856
31.29480124
30.76978856
30.82807274
30.38798995
30.10542264
30.16315862
179.5709785
149.4012969
151.1088372
94.74102514
83.28207227
83.72869859
60.06306411
54.91798795
55.04666276
44.29853464
41.90941666
41.95719681
36.9079402
35.75785591
35.79157379
33.2211295
31.90020996
31.95979926
31.17723035
30.65341481
30.71151698
30.27194806
29.98924808
30.04782045
170.0762668
143.0037065
144.5414064
92.39795453
81.56731348
81.98569174
59.38446983
54.41617687
54.53979818
44.07272737
41.72383866
41.76950836
36.77317131
35.62859547
35.66015049
33.10207702
31.78349869
31.84145837
31.06145941
30.53769227
30.59544163
30.15576351
29.87296558
29.93138916
161.7184362
137.2283103
138.6190751
90.210918
79.95645159
80.3502811
58.73437308
53.93262768
54.05196591
43.85385799
41.54485877
41.58912002
36.64570882
35.50650213
35.5364691
32.98784547
31.66979554
31.72629841
30.94748853
30.4228537
30.48015162
30.03980736
29.75580151
29.81479558
154.2934577
131.9804491
133.2481796
88.15769714
78.43453791
78.80740474
58.10869031
53.46449905
53.58023029
43.63983376
41.37020074
41.41356347
36.5232997
35.38959825
35.41842986
32.87748848
31.55873131
31.61396818
30.83523036
30.30900159
30.36581206
29.92433649
29.63969532
29.69789461
147.6366467
127.1812511
128.3426613
86.22126538
76.99039973
77.34463613
57.50398032
53.00922311
53.1219864
43.42892525
41.19810634
41.24097289
36.40422545
35.27632167
35.30437391
32.77017774
31.44992607
31.50409789
30.72454886
30.19618939
30.25251546
29.80949328
29.52270263
29.58164267
141.624392
122.7753705
123.8441662
84.39016515
75.61566655
75.95338823
56.91696021
52.56432675
52.67471036
43.21974618
41.02725094
41.06990701
36.28720762
35.16547623
35.19301507
32.66521463
31.34301581
31.39633443
30.61529007
30.08438781
30.14030043
29.69539148
29.40788017
29.46536856
136.14369
118.7059304
119.697336
82.65131331
74.30100875
74.62457232
56.34453067
52.12764934
52.23614394
43.01126493
40.85666399
40.89932863
36.17126046
35.05610866
35.08335724
32.56195508
31.23764446
31.29037261
30.50722468
29.97352216
30.02921906
29.58197863
29.29136834
29.35039831
131.1072106
114.9243374
115.8516019
80.9933803
73.03879867
73.34998483
55.784426
51.69762909
51.80458712
42.80268737
40.68558062
40.72843532
36.0555754
34.9474239
34.97456834
32.45987919
31.13339723
31.18602519
30.40000498
29.86331048
29.91932334
29.46914259
29.17834814
29.23539295
126.4585243
111.3961081
112.2747688
79.40785389
71.82347151
72.12441555
55.23484639
51.27297389
51.37878619
42.59328286
40.51330469
40.55652958
35.93946136
34.83875133
34.86595346
32.35850145
31.02948101
31.0832406
30.29298527
29.75323579
29.81090462
29.35629737
29.06126
29.12272267
122.1414785
108.0847155
108.9465958
77.88421854
70.64792993
70.94523076
54.69333186
50.85190274
50.95782102
42.3821611
40.33904642
40.38297355
35.8222462
34.72945083
34.75690139
32.25724644
30.92411714
30.98253632
30.18469658
29.64183314
29.70466475
29.2421136
28.94831463
29.0105772
118.0800528
104.9349657
105.8597248
76.39632347
69.49127541
69.81951775
54.14939748
50.42612341
50.54433813
42.16533419
40.15962294
40.20825968
35.70197901
34.61777562
34.64734395
32.14912981
30.80885024
30.88642861
30.06620858
29.51998054
29.60270629
29.11691422
28.81540429
28.90490766
152.6556116
172.1947292
170.0479147
512.3820014
584.9185339
574.715482
860.2777133
851.9703745
727.0510647
167.5232189
165.7340805
147.8557781
327.6706688
289.9574231
452.6385059
461.8631322
524.6044274
775.2487553
805.5907814
949.2945609
1179.168105
1238.033167
846.6034283
722.3668202
760.0746244
491.3804189
435.1027285
443.5551063
1044.410846
1105.463336
57.78370273
57.69664706
64.49514053
48.60941426
52.54044624
52.81222989
43.31509768
43.04791619
45.51064786
39.40423344
41.05865161
41.26965137
36.99925362
36.84743915
38.0172852
35.02359929
35.85870236
35.98988871
500.37781
514.2264929
592.9187486
391.4202608
446.5148246
436.1907212
472.9553875
459.813356
400.511338
98.83836059
99.63317454
121.0343989
73.13113059
84.17838172
83.57350386
85.27896578
84.59945391
73.26028462
58.36516848
58.25068676
64.60722178
49.44780596
53.32162177
53.51683696
52.97999917
53.25269785
49.39005638
43.98668567
43.90788653
46.40424974
40.06867794
41.81754855
41.90077036
41.4790033
41.60858687
39.88315355
37.41353138
37.32031104
38.58668711
35.34290509
36.2470517
36.3308084
36.0811296
36.17667021
35.28583181
296.2924528
305.1836332
377.9735056
264.3863378
259.9641604
219.262989
94.34257852
95.21843144
113.4570953
72.02705035
81.84661358
81.35947085
83.13455976
82.46684282
72.38290732
58.3856403
58.41554106
64.35050046
49.99869567
53.75150398
53.74656044
53.54288882
53.66632686
49.85599206
44.42715164
44.33733088
46.90549622
40.40935516
42.20531547
42.29767543
42.03853949
42.13762506
40.36149355
37.61612428
37.57697638
38.88179156
35.51181981
36.46332749
36.49702396
36.37561831
36.43331799
35.49157383
414.9400687
432.3984507
197.2658682
199.7797846
272.692798
130.3835854
158.3398796
156.9073143
163.6128519
160.5534922
131.7070058
92.67076302
92.76528799
108.7615998
71.53412261
80.71811046
80.73777909
81.04194149
80.80971319
71.54453945
58.64135423
58.53781451
64.27435483
50.17740979
53.9287455
54.03424517
53.78315827
53.82798902
50.11316469
44.57504861
44.541033
47.09988283
40.54795509
42.38225418
42.39956831
42.32942828
42.35241318
40.53400629
37.63468587
37.64482042
38.98276545
35.53135904
36.50230771
36.48929329
36.51074411
36.50927209
35.53906528
395.3212759
393.9590947
198.994077
197.3048178
264.1809887
129.7724091
157.1674971
158.3263345
156.4296764
156.4443826
129.2911056
93.89709138
93.38130783
109.0168984
72.24684692
81.46174457
81.88884687
80.86620721
81.13044872
71.97233446
59.26844809
59.09557281
64.94033293
50.51604759
54.37600547
54.48876213
54.14067148
54.25606059
50.43893199
44.66759512
44.66814126
47.32722763
40.53031834
42.42720987
42.40532132
42.42487734
42.43340494
40.55292596
37.52600027
37.56293327
38.92382095
35.46004601
36.4192972
36.38878857
36.46950367
36.44566063
35.4825133
428.9631644
421.1139484
209.630092
206.763461
279.8714494
134.3776578
163.6379764
165.387456
159.9548535
161.6776109
132.9639069
96.54918592
95.88675996
112.4821914
73.53270281
83.26829552
83.70544367
82.33042784
82.81776618
73.23263626
59.76668784
59.68819853
65.84763697
50.66469811
54.72560645
54.72892465
54.59342165
54.66975695
50.66842665
44.47759467
44.55685589
47.32111477
40.32888199
42.25065317
42.17166293
42.37043825
42.31887318
40.39410213
37.34743156
37.39562838
38.72965711
35.34136898
36.27934109
36.2383038
36.35499663
36.31837031
35.37490904
463.8410241
458.8765486
216.5341757
215.8562757
296.3993039
138.3041916
169.3054716
169.6417902
167.1019796
168.3901043
137.6429505
98.0310025
97.98962435
115.4755984
74.11010403
84.51142804
84.49553064
84.07580521
84.34783372
74.11494413
59.40653977
59.58960644
66.00953918
50.30459194
54.44749656
54.28831442
54.6810815
54.5936873
50.4382829
44.09188016
44.18967848
46.9408431
40.05096788
41.92510445
41.84132623
42.0904882
42.00822214
40.12213341
37.14091465
37.1940478
38.49326715
35.19128359
36.10628596
36.06015586
36.19560561
36.15148553
35.23079551
440.3844687
451.7795559
209.3998771
212.0021961
288.1727562
136.4741699
166.864887
165.3414119
169.3379875
168.372087
137.4573656
96.57913029
97.01994911
114.1372157
73.34721417
83.72026196
83.42103503
84.29178993
84.00979369
73.56747335
58.70068159
58.86941838
65.23876609
49.76574751
53.81823238
53.66649407
54.12977633
53.97287333
49.90006925
43.6977811
43.796238
46.48086417
39.76158442
41.5878983
41.5035653
41.75703126
41.67247154
39.83419632
36.92430264
36.9787329
38.24435171
35.02552233
35.91839042
35.87049272
36.01337022
35.96603091
35.06778865
395.401879
406.4425652
198.9521774
201.5864444
267.4282984
132.4027915
160.6812105
159.0807537
163.8075929
162.2560506
133.4500978
94.63758757
95.14986472
111.3769512
72.41922466
82.43958765
82.08370687
83.10861211
82.78150707
72.66336483
58.0618746
58.21774539
64.49396283
49.24773616
53.23336028
53.09727087
53.51813642
53.37365896
49.37283415
43.31528727
43.40826386
46.03024994
39.47490204
41.25476646
41.174313
41.41971965
41.33667578
39.54559992
36.70834538
36.76184986
37.99616166
34.85388707
35.72665286
35.67894949
35.82252405
35.77451941
34.89694511
352.6803824
363.0664122
188.3532531
190.9933633
247.7207292
128.0147927
154.1566416
152.4982362
157.4556638
155.8117147
129.1336389
92.46880136
93.02285503
108.328425
71.36187346
80.95093
80.55971496
81.71535941
81.33690945
71.63595658
57.44977303
57.60160852
63.71364367
48.78924955
52.71172533
52.58968155
52.96515931
52.83675142
48.89737244
42.97150915
43.0527412
45.62510635
39.2041138
40.94450193
40.87252373
41.09560465
41.01891646
39.26962133
36.50040695
36.55128476
37.75851826
34.68257717
35.53786346
35.49175384
35.63154681
35.58446981
34.72508758
314.0526979
323.1940731
178.1354447
180.6211482
229.5648
123.5326079
147.5745693
145.9710188
150.8437227
149.2004653
124.6447329
90.24730882
90.79894092
105.1818383
70.2394298
79.37465686
78.98152827
80.1653017
79.76971996
70.52133966
56.85051084
56.99887483
62.90404355
48.39393269
52.23802563
52.12481692
52.47023439
52.35309938
48.48790315
42.67858962
42.7472618
45.28088901
38.96043482
40.67195238
40.61018041
40.80308341
40.7362308
39.01844
36.30653344
36.35343293
37.53974393
34.5161612
35.35725733
35.31388256
35.44625077
35.4013867
34.55708108
281.3621116
288.9372258
168.7732667
171.0228434
213.5286152
119.227884
141.3254973
139.837858
144.3934022
142.844511
120.2789483
88.10196348
88.62766389
102.1363317
69.12779086
77.82297232
77.44552623
78.59139764
78.20507616
69.4022103
56.26966059
56.41283794
62.10312775
48.04159991
51.79489242
51.68777509
52.01331023
51.90338237
48.12671515
42.42865412
42.4878894
44.98501149
38.74775557
40.43865313
40.3855556
40.55080358
40.49368405
38.79815041
36.13013768
36.1725599
37.34429035
34.35810977
35.18871102
35.14867994
35.27132565
35.22959089
34.39670367
254.9289445
260.926594
160.375674
162.3873924
199.616351
115.214024
135.5668336
134.2065064
138.3821032
136.9585978
116.1885678
86.07791333
86.57179984
99.27534281
68.06072068
76.34310705
75.9859626
77.07295897
76.70547171
68.32264466
55.71136644
55.84872681
61.33092842
47.7157529
51.37399423
51.27175
51.58195621
51.4773851
47.79530863
42.20783912
42.26096758
44.71994119
38.56204048
40.23619307
40.18920726
40.33421898
40.28448399
38.60632041
35.97085461
36.00920257
37.17102516
34.21017208
35.03361377
34.99685451
35.10950261
35.07114998
34.2461862
234.1464321
238.9247196
152.8625244
154.6644492
187.5700408
111.5070987
130.3084642
129.0672048
132.8771523
131.5781919
112.4058889
84.18284208
84.64473544
96.61302277
67.04708295
74.94628636
74.61002884
75.63413098
75.28761951
67.29537003
55.17671105
55.3081871
60.59331873
47.40776822
50.97168152
50.87372338
51.17064145
51.0706392
47.48336354
42.00565149
42.05485966
44.47415639
38.39636608
40.05489526
40.01197713
40.14340481
40.09867157
38.43626325
35.82593812
35.86100236
37.01560235
34.07220608
34.89096835
34.85700998
34.9608531
34.92556669
34.10581666
217.2439406
221.1717769
146.1191914
147.7386654
177.0802792
108.0876812
125.5089191
124.3748896
127.8541443
126.6684335
108.9171607
82.41078628
82.84283192
94.13958471
66.08696097
73.63146583
73.31481761
74.27890793
73.95279156
66.32216433
54.66460515
54.79064784
59.89051733
47.11320438
50.58569641
50.49145102
50.77677725
50.68079209
47.18576333
41.81562825
41.86224542
44.24129573
38.24469197
39.88764797
39.84743205
39.96985044
39.92843345
38.28156286
35.69218597
35.72474117
36.87341382
33.94298567
34.75869918
34.72699221
34.82367361
34.79091314
33.97454969
203.1992708
206.4847903
140.0441615
141.5051854
167.8893053
104.9275552
121.1195321
120.0805047
123.2658294
122.1810602
105.6949199
80.74989552
81.15546133
91.83753379
65.17591559
72.39193036
72.09268203
73.00279323
72.69525015
65.39941311
54.17231643
54.29369527
59.21946871
46.8289856
50.21356896
50.12238789
50.39804715
50.3054437
46.89920829
41.63368468
41.67857548
44.01745587
38.10260776
39.72971883
39.69129084
39.8077403
39.7685214
38.13741589
35.56678922
35.59748618
36.74072143
33.82099274
34.63464172
34.60467727
34.69576945
34.66499484
33.85089257
191.2878203
194.0989388
134.5443215
135.8707136
159.7833225
101.9964545
117.0909657
116.1337327
119.0632721
118.0671896
102.7096283
79.18522608
79.56816824
89.68600595
64.3075539
71.2181893
70.93386902
71.79739954
71.50599579
64.52098444
53.69680063
53.81424829
58.57582627
46.55270034
49.85281719
49.76413486
50.03188953
49.94205883
46.62113165
41.45710895
41.50086286
43.79997405
37.96700388
39.57793652
39.54067034
39.65320675
39.61543847
38.0004275
35.4475081
35.47685688
36.6147091
33.70477035
34.51689189
34.48824688
34.57508019
34.54582739
33.7333531
180.95833
183.4127634
129.5284745
130.7411635
152.5638388
99.26196243
113.3704597
112.4833088
115.1950405
114.2741645
99.92868726
77.70328715
78.06653661
87.66320525
63.4760045
70.10118976
69.82995496
70.65300974
70.37551575
63.68070133
53.23541775
53.34956998
57.95569426
46.28241942
49.5013046
49.41461214
49.67601717
49.58842983
46.34952049
41.28392738
41.32699408
43.58688008
37.83564838
39.43007215
39.39350415
39.50362483
39.46677141
37.86818623
35.33258989
35.3609911
36.49327658
33.59305509
34.40388152
34.37620967
34.4598792
34.43176416
33.6206199
171.8532113
174.0250616
124.9327438
126.0457363
146.0802475
96.70097596
109.9192426
109.0949279
111.6128229
110.7581318
97.32583526
76.29495786
76.6405725
85.75421561
62.67666862
69.03426121
68.77458505
69.56180899
69.29662516
62.87371386
52.78562931
52.89711631
57.35571903
46.01638312
49.15699493
49.07180001
49.32835964
49.24250295
46.08257463
41.1125913
41.15531712
43.37651915
37.70686956
39.28444799
39.24823384
39.35706111
39.32071689
37.7388919
35.22065896
35.24842213
36.37482188
33.48477035
34.29432674
34.26735173
34.34874006
34.32144949
33.51156605
163.723612
165.6662061
120.7020791
121.7302434
140.2132541
94.2961441
106.7086781
105.9390148
108.2857758
107.4901083
94.88371733
74.95138513
75.28173486
83.94746198
61.90502832
68.01106639
67.76125876
68.5175829