/*--------------------------------*- C++ -*----------------------------------*\
| =========                 |                                                 |
| \\      /  F ield         | OpenFOAM: The Open Source CFD Toolbox           |
|  \\    /   O peration     | Version:  v2012                                 |
|   \\  /    A nd           | Website:  www.openfoam.com                      |
|    \\/     M anipulation  |                                                 |
\*---------------------------------------------------------------------------*/
FoamFile
{
    version     2.0;
    format      ascii;
    class       volScalarField;
    location    "2.55";
    object      omega;
}
// * * * * * * * * * * * * * * * * * * * * * * * * * * * * * * * * * * * * * //

dimensions      [0 0 -1 0 0 0 0];


internalField   nonuniform List<scalar> 
3259
(
30.44395572
30.46689799
30.49841557
30.54699407
30.63106553
30.7713892
31.04416727
31.52051749
32.70950964
35.41282128
43.50221411
103.4503706
30.34426685
30.36950688
30.40549347
30.46127544
30.55726018
30.72455974
31.03695626
31.57926529
32.91391858
35.94512783
45.83006623
152.674215
30.2497498
30.27736782
30.31757731
30.37973801
30.48342318
30.67072751
31.01560888
31.61457722
33.05068862
36.3278653
48.28400517
474.2813845
30.15607424
30.18595248
30.23024475
30.29922039
30.41152784
30.61637539
30.99305007
31.65048235
33.18972587
36.74692927
51.4432033
711.5663854
30.0658103
30.09800872
30.14594884
30.22046135
30.33988502
30.56001417
30.96671955
31.68220038
33.3555462
37.346501
56.1761509
796.993199
29.97359337
30.00789346
30.05936931
30.13991113
30.26730832
30.50062709
30.93517214
31.70302048
33.52827772
38.17624669
65.31955842
803.1472005
29.8835609
29.91989807
29.97449699
30.059634
30.19288048
30.43775504
30.89816062
31.7151935
33.67452813
39.11786186
80.14296318
713.881817
29.78936628
29.8273752
29.88505985
29.97568266
30.1161674
30.37140829
30.85628099
31.72087845
33.8207556
40.11186978
93.70377641
631.0146875
29.69744736
29.73689442
29.79712962
29.89159898
30.03680996
30.30186521
30.81043545
31.7222617
33.97559487
41.34455706
105.5731746
560.3027425
29.5997952
29.64024683
29.70302047
29.8025752
29.95481486
30.22948559
30.76158931
31.72141559
34.14650465
43.01497754
116.1632597
499.3017905
29.50588944
29.54706169
29.61167967
29.71419309
29.87013373
30.1546164
30.71060135
31.72050845
34.34733189
45.1530662
125.5420536
446.4480329
29.4047278
29.44629213
29.51292025
29.6201803
29.78321858
30.07776475
30.6585523
31.72232819
34.60642113
47.4528332
133.6718819
399.7773161
29.30996227
29.35170153
29.41957947
29.52892039
29.69437263
29.99964312
30.60684402
31.73126097
34.95603002
49.68975919
140.5252902
358.5947222
29.20567708
29.24743929
29.31703396
29.43116721
29.6044021
29.9210128
30.55693402
31.75219817
35.40512279
51.80673957
146.3801028
322.57827
29.11169653
29.15334704
29.22384806
29.33938961
29.51357574
29.84258722
30.51018673
31.79040923
35.9346343
53.80752114
151.3315869
291.4755635
29.00443908
29.04597473
29.11813802
29.23896368
29.42276705
29.76498294
30.46784361
31.85023906
36.5162685
55.69619592
155.3376258
264.8904789
28.91311999
28.95446148
29.02741216
29.14915397
29.3319225
29.6887442
30.4312355
31.93427978
37.12661639
57.47654852
158.4588894
242.298815
28.8024187
28.84365651
28.91835804
29.04618359
29.24202296
29.61435768
30.40146707
32.04280485
37.7501207
59.15128069
160.7666004
223.1847613
28.71598184
28.75706552
28.83259902
28.96104978
29.15259652
29.54227712
30.37962823
32.17427382
38.37696228
60.72152339
162.3160751
207.0608118
28.60051976
28.64159071
28.71902122
28.85437283
29.06494958
29.472978
30.36673332
32.32609534
39.00098481
62.19295004
163.2309176
193.447535
28.52183116
28.56285087
28.64127432
28.77745223
28.97806889
29.40688705
30.36435887
32.49525392
39.61746299
63.56677352
163.6460673
181.9104106
28.39920118
28.44033142
28.52082897
28.664067
28.89410752
29.34464102
30.36988765
32.67887402
40.22216458
64.83666169
163.846591
172.0367764
28.33185828
28.37309762
28.4548013
28.60060005
28.81162022
29.28700623
30.38613787
32.87478744
40.81442239
66.01618261
163.7564835
163.4141896
28.17616052
28.21779855
28.30258177
28.45750638
28.73497914
29.2354099
30.41166543
33.08060803
41.39330479
67.12641676
163.4693989
155.7375261
102.3481693
131.8045235
43.19640529
86.37344966
45.44353169
107.8654498
87.96977742
112.1900405
1122.472243
732.6928471
156.8632425
721.4407802
1082.360796
8530.449572
1132.906439
113.6466504
1770.065647
7566.037328
1091.660528
1738.358971
4272.661288
793.7736776
221.4020768
235.6160763
204.4990461
216.0802615
790.4231277
571.5901591
190.18692
200.5536294
186.976898
562.4424051
754.4902746
767.8557892
241.7973282
254.1285013
1404.444538
2838.002113
1495.281201
2515.103711
1131.389099
6409.990943
2790.857418
5483.009916
1127.523869
3878.170749
1910.635613
47.63500528
116.8123224
111.0224629
170.4352134
4197.378123
7797.77817
1033.142406
408.0249694
428.0746033
6396.654635
3226.116857
730.7991231
911.8894949
8780.034292
323.4614916
373.7577442
435.6405141
453.9237085
1143.572622
1737.993137
1790.856623
8018.384226
1589.541329
1406.243179
16008.18166
1103.43095
1653.113794
379.4599762
401.0942107
938.5036
760.9586303
358.5305798
374.0369831
738.0942316
823.7527872
1187.152297
466.8175933
513.0974534
5932.746496
6736.556521
1871.045766
7318.763078
5259.503338
1997.942791
1105.343716
6375.529145
3643.295054
7089.967677
4096.288959
1592.930064
339.9439834
353.9127837
755.5034877
639.7777412
321.0113414
335.3460789
1685.603036
1662.926362
1058.792636
1773.108268
1097.343536
1721.011303
1707.561628
1738.508667
304.3356363
316.5165048
611.1996088
544.1037888
291.1105916
300.916453
1086.614853
1086.456471
751.148267
770.455027
1094.799291
1099.131251
1482.4623
968.9129424
955.9797135
12516.19361
2328.931194
1807.843267
4707.670351
3855.653752
1792.226339
1770.117487
1116.196683
6178.92649
6735.265794
6435.224459
5045.542649
1187.129039
1838.792966
1781.187619
2827.251984
1682.422761
1696.427035
2136.743163
1003.977094
1617.165959
1554.095834
852.5231741
1202.58571
12913.79289
1145.141056
787.5364886
791.1114629
1794.072477
7647.713229
7905.653102
9263.035879
5950.621367
5540.939756
1737.031111
1725.291886
1098.340949
1701.564175
1728.021201
1729.076028
1711.194039
1714.536123
1140.57386
1152.371495
799.7068405
1789.977398
1693.040435
1746.816499
1737.540625
819.2923664
824.7330168
1190.652734
5767.696424
8685.22664
9040.972546
8501.492331
8519.896099
6389.594944
1820.153566
6347.305681
4524.550695
4912.33527
1113.825599
1761.21822
1745.055735
6340.407337
6976.880491
6723.33231
5482.803096
5977.284717
7391.205661
7024.818986
4486.132313
6651.926513
5716.899768
2178.357786
1752.218488
1175.973808
31.51106256
32.28987831
32.67219853
34.4272435
35.32290084
40.05775634
31.57027358
32.44920052
32.31983801
32.87545526
34.83390159
34.4980553
35.84213725
41.44460122
40.27234074
44.01430357
52.17815923
50.73647246
107.0421722
172.9444395
164.7599583
31.60594193
32.55804306
32.47856083
33.01736079
35.13145222
34.91312135
36.23323696
42.68861562
41.7446639
46.41219529
54.71314729
56.11324577
155.5083632
301.520426
268.5784147
31.64180474
32.66218316
32.5837782
33.15373209
35.42706593
35.20258025
36.63159016
44.23691187
43.02374827
50.58819365
185.5253088
127.9954585
677.1695363
31.67522258
32.77982067
32.68999278
33.31229486
35.81066818
35.51069317
37.17683029
46.49637029
44.74088835
54.71287942
265.8327075
204.2319887
784.1614206
31.69876147
32.90021675
32.81071755
33.48682943
36.32217454
35.92650609
37.94820827
50.22257055
47.24543928
62.43355267
371.2967542
288.7685468
812.6033966
31.71291857
32.99837752
32.9264778
33.63850542
36.89560041
36.4666529
38.89203183
56.2271337
51.5116328
76.17220231
498.6051441
405.8506228
736.9081494
31.71999418
33.09051387
33.02166993
33.78366666
37.46305704
37.03068907
39.84611593
63.61370001
58.06294435
90.49003519
533.4161267
515.6484732
650.3423954
31.72223166
33.18315139
33.11345829
33.93570885
38.12239047
37.61796113
41.00450891
71.64846596
65.60962294
102.7444555
520.6704956
532.6189181
577.0339304
31.72174928
33.2811948
33.20699295
34.10173309
38.93739201
38.30735201
42.54674324
79.11288185
73.59378737
113.62408
492.041422
514.3179006
513.6943625
31.7205737
33.39080829
33.30721641
34.29303293
40.04111106
39.1812071
44.59008979
85.81766097
80.8566234
123.311948
458.7493367
483.8869256
458.9953586
31.7213636
33.52397189
33.4212674
34.53422755
41.46520014
40.3714465
46.878661
91.86565395
87.38888284
131.7526248
427.3341471
450.5044478
410.9136417
31.72811436
33.7003479
33.56318812
34.85908549
43.04953926
41.8539196
49.14146507
97.292271
93.28591241
138.913675
399.1880677
420.041885
368.3898617
31.74557464
33.93905412
33.75369257
35.28425575
44.64634366
43.45117762
51.28873966
102.1076807
98.55009393
145.0018594
373.2326037
392.5330662
331.1080024
31.77900892
34.24624686
34.00960988
35.79629845
46.19955176
45.03987394
53.31801643
106.4162053
103.2321106
150.1839503
348.8683248
367.0141374
298.8051817
31.83307985
34.61330566
34.33301092
36.36739412
47.69297189
46.57903577
55.23436632
110.2177918
107.4163861
154.4184078
325.9602941
343.0176632
271.1344771
31.91095941
35.02499373
34.71272861
36.97231909
49.12208766
48.05659957
57.04149328
113.5233411
111.0923262
157.7542504
304.5091204
320.4823101
247.594507
32.01346617
35.46681172
35.13318749
37.59364212
50.48623579
49.46946185
58.74255093
116.3531169
114.2773746
160.2555926
284.4431554
299.3869341
227.6524785
32.13941276
35.92754818
35.58065909
38.22033962
51.78521492
50.81734091
60.33864245
118.7256559
116.9906546
161.9913926
265.5568909
279.669453
210.8189686
32.28642171
36.39908846
36.04475589
38.84552021
53.02056402
52.1001473
61.83407087
120.6892218
119.2534825
163.0548928
247.8714777
261.0926254
196.6063358
32.45153638
36.87546288
36.51802132
39.46434191
54.19364447
53.32005456
63.23327692
122.2799915
121.1266472
163.5381914
231.5517711
243.7792725
184.5616114
32.63178482
37.35173894
36.99478034
40.07227933
55.29951034
54.4767198
64.52985506
123.5714726
122.6309666
163.8291473
216.6957463
227.8911705
174.2608216
32.82483927
37.82560122
37.47047391
40.66798746
56.3426966
55.5650039
65.73428127
124.6366614
123.8540593
163.7910139
203.2372863
213.5082425
165.2657477
33.03008835
38.30017399
37.94333816
41.25757833
57.34801384
56.59134544
66.88394274
125.5500459
124.8624367
163.5298793
190.9940683
200.5427948
157.1932066
33.26213776
38.81097128
38.41124476
41.88653319
58.40112498
57.5664657
68.07992373
126.4107332
125.7189694
163.0876172
179.1668721
188.8511239
149.3838253
162.0790177
154.7884387
99.13459002
259.0522115
238.9336618
129.0427684
989.308344
50.25309509
48.77204625
42.7767299
82.13073422
53.87175747
55.50779692
55.62116868
52.67272358
44.26635036
95.34419593
58.64152627
62.75924996
56.09437731
57.99421588
93.01594191
185.4127072
176.2095667
108.2767563
1116.554407
746.5658304
756.8723068
533.3054058
541.3803348
741.4948282
3024.043943
3716.463178
183.2181283
2751.276909
2177.418852
927.6048418
836.1077197
703.2683142
513.5244035
524.6634451
288.3441648
537.186747
98.18176876
152.5221434
12064.96661
1288.631501
2315.977947
769.0124603
774.2764625
1134.352592
117.9184648
200.4435222
189.8549725
5480.526772
5585.629824
9326.606275
595.9179483
611.0980998
824.4977653
224.8841683
297.1779864
292.186293
341.570991
317.5563501
231.2647706
208.0501698
270.640879
265.2372867
283.0351701
277.749292
212.5144282
775.2767752
577.3247708
587.4883267
446.2651581
452.9542485
578.6825109
193.5045544
247.9782624
243.0195328
259.0797956
253.5848533
197.0583267
180.8587778
229.7337039
238.3344067
233.948675
183.8804694
557.0786703
434.2704128
439.8003268
244.8055896
365.6933089
348.701114
406.1826761
375.2185987
254.9639166
1578.637692
2211.975449
2133.594399
3542.712928
3243.761385
2352.549571
3015.367204
4268.165392
3855.503927
3466.856753
2545.151036
57.04018894
55.81475185
47.00141116
123.8059605
73.07862698
75.61588246
63.55507429
64.5137155
120.6144163
336.2721706
278.004249
161.6181651
4575.702717
1057.193281
1311.235758
399.1586274
343.4040074
6548.231627
697.1237109
725.5592638
1088.495939
414.7714686
530.9840087
517.3812281
552.0744037
543.9281974
422.270293
4787.942337
1042.058186
1453.856312
1306.524207
1442.037079
3685.954448
1073.821237
1070.636852
724.6020624
3467.492099
4976.938975
13094.22996
340.8355716
606.3850131
552.2448605
695.8043506
627.9476319
358.2178957
440.7528289
568.2905696
562.588549
584.6210937
579.8006697
449.5012567
1418.530796
1766.889353
3311.205046
2975.749038
3941.22572
4435.708206
1936.914146
15388.21447
13526.59744
386.0597724
475.9847958
467.0358702
501.2795501
488.1134039
392.829589
849.7774004
630.8760539
659.5428293
562.2660761
570.761675
770.8683141
363.7471927
445.9685873
439.4752357
459.4162882
452.3259623
368.5497594
742.7772343
1080.018653
1079.2769
470.8552181
608.4096029
603.4573345
679.1883998
684.634176
515.3555975
3839.04219
4074.149307
5696.867854
2115.526068
2998.147986
2768.612783
5217.297061
4688.781199
3356.707597
344.6461284
421.5623235
415.3956699
433.5149783
427.3682986
349.0972666
747.6270096
548.0873627
555.7711065
485.2915862
500.0985935
675.2226412
325.8480427
394.6036675
386.8668535
409.0618558
402.1241057
330.6354852
308.2323785
367.2007099
361.9087584
379.6365327
372.9673089
312.0838448
593.333179
461.4882528
472.3719796
423.2070517
428.4334847
549.6137203
294.2583857
347.1339918
342.2711191
356.887445
352.0138783
297.3839577
2572.316259
2384.985712
1664.6062
4456.911762
3339.305098
3466.978079
2957.33338
3058.169148
4171.757474
3132.942034
1110.802068
2220.839472
1569.874741
2374.79036
2261.325418
1170.074554
13331.03558
5100.055721
5264.820521
10052.11173
12193.09826
8333.477641
6573.640754
8927.175281
8465.142131
8495.675242
9703.467965
6576.192956
30.67287071
30.72911457
30.80833136
30.91824367
31.06282172
31.34327893
30.59397822
30.66028622
30.68673747
30.7521616
30.87816656
30.88634653
31.04721192
31.37708305
31.34696363
31.53050199
31.7527429
31.73619023
32.75433995
33.24333875
33.18556646
35.52978718
36.73505143
36.58488415
104.6417384
119.2169531
117.7147977
30.5189928
30.59476077
30.6249509
30.69793985
30.83860146
30.85839761
31.02627338
31.39499501
31.38087162
31.58838005
31.83780626
31.82351562
32.94930443
33.4902788
33.44488249
36.0425687
37.42012209
37.2872085
30.4465195
30.53068861
30.56030617
30.64405255
30.79817721
30.81864083
31.00468172
31.41325274
31.39908267
31.62366727
31.89189513
31.87834345
33.08443601
33.66350455
33.62028328
36.42420321
37.9523656
37.81664481
48.99352017
59.66390725
58.29010974
564.3849803
1950.222723
2163.932666
30.37503032
30.46637566
30.49644489
30.58881338
30.75495505
30.7769903
30.98047816
31.42733383
31.41670588
31.6591926
31.94874114
31.93448131
33.22937002
33.85267458
33.80093893
36.87926319
38.62613765
38.42637306
52.37115391
66.43990902
64.41855406
740.5716704
1393.003141
1502.85946
30.30313445
30.40047119
30.43169767
30.53099254
30.70792871
30.73195669
30.95163619
31.43265496
31.42879618
31.68846991
32.00275091
31.99024027
33.39952516
34.08568839
34.02402483
37.53170405
39.62887702
39.33866624
57.93986833
79.78376474
75.35254031
815.3638624
1055.302865
1129.135533
30.22972016
30.33215808
30.36492826
30.46984492
30.6566951
30.68283992
30.91731917
31.43021044
31.43251496
31.70685595
32.04266118
32.03368512
33.56625667
34.33513677
34.27502599
38.41350617
41.077899
40.67658276
68.61515685
105.169108
97.70240716
784.8708739
807.3917696
864.8595353
30.15425668
30.26106009
30.29552139
30.4051744
30.6013877
30.629526
30.877777
31.42083129
31.42812861
31.71721168
32.07364042
32.06653548
33.71067699
34.55572178
34.49998046
39.35025595
42.73937996
42.32861396
83.78495517
134.8566524
128.2893953
691.3819132
622.4878953
662.4706656
30.0762343
30.18708837
30.22325181
30.33714884
30.54252871
30.57236384
30.83378829
31.4062223
31.41733044
31.72159092
32.09898641
32.09301688
33.85841287
34.78916648
34.72892289
40.39181422
44.65398546
44.12431878
96.81101838
155.3220081
150.4465918
612.3564144
505.2435262
531.0607588
29.99564033
30.11030597
30.14810298
30.26611359
30.48071629
30.51196213
30.78633211
31.38822231
31.40178549
31.72219481
32.12154146
32.11602349
34.01649484
35.04709381
34.97967556
41.71281102
47.25887133
46.53068298
108.3276789
173.4684389
169.1655403
544.2126555
419.9178943
438.8713267
29.91225506
30.03085479
30.070182
30.19241794
30.41640558
30.44884999
30.7363061
31.3685227
31.38324426
31.72110699
32.14393803
32.1382066
34.19309705
35.34530821
35.26539969
43.5150843
50.5196121
49.67333657
118.6380586
188.9796209
185.3696517
485.3406703
356.7043524
370.8208758
29.82651269
29.94898585
29.98964927
30.11645802
30.35006994
30.38345093
30.68462604
31.34912543
31.3634428
31.72056677
32.1693509
32.16248874
34.40526963
35.72220983
35.61748431
45.72541139
53.87381475
53.05001086
127.6864135
201.2577481
198.5073172
434.2458147
309.4287954
320.0106182
29.73849109
29.86517972
29.9068853
30.03885937
30.28249102
30.31637778
30.63255662
31.33272127
31.34452386
31.72374389
32.20277282
32.19330354
34.68445091
36.23142811
36.08980314
48.02244436
57.02765565
56.26123451
135.4986248
210.4427889
208.505615
388.9771113
273.7006238
281.7717844
29.64916916
29.7800475
29.82243345
29.96037771
30.21467348
30.24855418
30.58157397
31.32248876
31.32936839
31.7351852
32.25138598
32.23736065
35.0593913
36.88675661
36.71089511
50.23051692
59.94642919
59.23791675
142.0731537
217.9098885
216.1735036
349.111278
246.1531121
252.3927833
29.55855691
29.69423308
29.73696857
29.88176198
30.14759657
30.18098683
30.53310063
31.32170682
31.32112013
31.75997309
32.32340749
32.30277854
35.53110611
37.64799718
37.45071461
52.31779634
62.65677589
61.99669681
147.7064
223.7938427
222.5071273
314.3484639
224.772365
229.6352677
29.46793448
29.6083116
29.65107484
29.80366605
30.08210736
30.11459838
30.48841275
31.33376419
31.32327213
31.80322325
32.42581862
32.39711353
36.07625188
38.46462013
38.25750827
54.29028441
65.18469721
64.56949895
152.4233427
227.728868
226.9232064
284.4184739
207.9066577
211.7785843
29.37677833
29.52279078
29.56536213
29.72666455
30.01895072
30.05019249
30.44871953
31.36162396
31.33908557
31.86895862
32.56189372
32.52470449
36.66694525
39.30141059
39.09161121
56.15152328
67.53556812
66.96407354
156.1959402
229.7814458
229.4432739
258.8832082
194.1968656
197.3895927
29.28676889
29.43810154
29.48022123
29.65126948
29.9588745
29.98851429
30.41537485
31.40726984
31.37128034
31.95919356
32.73076699
32.6856403
37.28178052
40.13866565
39.92998349
57.90533992
69.71522184
69.18610048
159.1049013
230.2947079
230.311732
237.2034454
182.7133125
185.4121914
29.19653132
29.35461571
29.39618171
29.57795724
29.90259331
29.93024911
30.38953635
31.47133956
31.42143023
32.07365567
32.92876938
32.87679013
37.90688188
40.96587318
40.76038056
59.55380218
71.7265524
71.23949706
161.2136414
229.4382348
229.8712942
218.8768437
172.8578401
175.1994978
29.10854916
29.2726342
29.31345696
29.5071169
29.8507536
29.87605469
30.37232866
31.5534241
31.4900858
32.21048393
33.15104822
33.09347183
38.53348604
41.77712579
41.57599725
61.09856702
73.57301149
73.12626805
162.5851972
227.0720339
227.8581806
203.4141919
164.1977132
166.2739791
29.02008227
29.19238994
29.23260377
29.43911846
29.80384009
29.82669839
30.36408464
31.65219131
31.57648552
32.36693133
33.39271948
33.33073598
39.15606847
42.56930357
42.37320574
62.54624743
75.2688246
74.85862061
163.3352719
223.74307
224.7523349
190.3391392
156.4756135
158.3412411
28.93502366
29.11402651
29.15370198
29.37430301
29.76279035
29.78281917
30.36602488
31.76606979
31.67916908
32.53996109
33.64927557
33.58396302
39.76993948
43.33881896
43.1487955
63.89469364
76.81202345
76.44030788
163.7187044
219.4577806
220.8082289
179.2198121
149.5425047
151.2378537
28.8482415
29.03749765
29.07764137
29.31279705
29.72758224
29.74487869
30.37745913
31.89338321
31.79653285
32.72683364
33.91705761
33.84918154
40.37155575
44.08252146
43.89876472
65.14189209
78.20640651
77.8665519
163.8424718
214.3697535
215.9202063
169.6267286
143.2628361
144.843086
28.76549436
28.96227498
29.00474269
29.25432122
29.69865102
29.71358655
30.39990497
32.03363657
31.92697732
32.92586426
34.19433311
34.12387993
40.96272883
44.80490807
44.62392386
66.31316754
79.49513427
79.16565704
163.6810677
208.9480075
210.629592
161.131815
137.4729268
139.0184612
28.67081693
28.88306316
28.93698494
29.19592315
29.67584269
29.6898765
30.43822343
32.1971061
32.06883834
33.13933596
34.48502865
34.40533377
41.55824441
45.52641872
45.32543357
67.45521354
80.73633095
80.37427186
163.3468698
203.3916264
205.1952613
153.4242093
132.0398413
133.6646558
116.2389827
114.7907583
101.2206041
165.4421816
158.4474595
133.945539
84.89586213
71.63126839
72.69852465
105.9146739
85.29482189
87.06061065
73.8267244
74.95635431
89.57080968
128.9682791
127.3602714
110.8782653
96.43398689
107.6867522
114.9842487
132.3940889
130.9993347
2095.553098
88.73985915
90.50979953
114.1150494
2903.121042
3196.619676
7422.400147
5747.839907
4531.036468
5029.199337
1614.585249
1855.415979
2399.109725
1369.756357
31.72013528
31.70545732
31.50210932
32.2592211
31.95509298
31.97665656
33.13903978
33.08421631
32.62986359
34.33892959
33.64387994
33.71377155
36.46807514
36.32807663
35.21236408
39.78771737
37.78906168
37.97516862
31.80856765
31.76592864
31.5390153
32.37800552
32.04247205
32.09818645
31.99963061
32.02412281
32.35369135
33.39589883
33.28296081
32.78561754
34.6536711
33.89444214
34.0365657
33.77114809
33.84460985
34.59095913
37.14831407
36.83930608
35.60967128
40.78377541
38.47468537
38.90817571
38.12937429
38.3323359
40.57423718
122.3298085
120.7627116
105.7984857
170.2636193
141.3212122
143.3554087
137.3040598
139.2485785
167.3393941
31.86503229
31.85164096
31.59712867
32.53219574
32.15980987
32.17903545
32.11977616
32.14004353
32.50573386
33.57772916
33.53451245
32.98366746
35.06020774
34.21302668
34.26818957
34.09872401
34.15646629
34.98746651
37.68369284
37.55228219
36.13845982
42.36179752
39.49382783
39.6903937
39.10587938
39.29964296
42.05158923
204.5492516
208.515005
276.6074027
31.92029028
31.90583321
31.63263808
32.63574673
32.23650116
32.25652517
32.19813886
32.21707812
32.60955318
33.75340792
33.70742785
33.11850287
35.34866948
34.43511144
34.49446719
34.32295079
34.37840374
35.27463454
38.25134708
38.09713341
36.52428541
43.78101166
40.32828602
40.57303311
39.8915942
40.10042717
43.38792903
62.65236253
61.11745959
49.76358052
165.7406269
85.40379715
90.03466493
78.11614589
81.65256238
147.3425048
1628.405212
1775.318136
629.1400949
1068.893086
975.6512707
1323.629961
1181.865323
31.9768624
31.96292569
31.66730137
32.74925092
32.31946015
32.34082832
32.27717993
32.29818129
32.71925902
33.96444886
33.90729766
33.27016229
35.70310604
34.69841297
34.77608226
34.55750372
34.62499213
35.60270423
39.07646436
38.84038495
37.02180724
45.83965703
41.52691048
41.90827515
40.8713189
41.18412009
45.25615707
71.79548781
68.91559626
53.46131973
244.4279013
109.1118212
117.3364712
95.39749882
101.7525758
224.4966896
1208.18154
1296.041357
761.4217158
760.9730306
702.2928966
895.6874379
825.3345199
32.02414144
32.01397057
31.69381271
32.87155074
32.40196192
32.41968106
32.36198044
32.38252635
32.84147721
34.21236064
34.14880328
33.4435861
36.18302655
35.03536948
35.12858383
34.85830354
34.94490586
36.05068095
40.29896947
39.94948894
37.7326111
49.09994973
43.36098436
43.96060337
42.3371442
42.81852915
48.1078231
90.94029347
84.89652594
59.99887637
339.2428066
150.3862225
164.3248691
127.1494192
138.1530347
310.7842
924.9209583
988.4997735
817.0642921
545.8959522
501.1664715
646.3226046
595.15136
32.0590407
32.05109321
31.71005098
32.97483085
32.4666129
32.48123841
32.43591845
32.45152303
32.95090304
34.44497825
34.39052888
33.60247475
36.75845519
35.40539197
35.48923174
35.22284991
35.3162009
36.61270497
41.9195014
41.49369131
38.65405211
54.53471187
46.1194666
46.91990351
44.62709914
45.34536289
52.93296041
120.8643094
113.0519748
72.32489597
472.1344403
210.7677644
226.3997273
178.9954979
194.866687
441.3626418
706.147914
755.561668
760.8161503
398.7957967
373.7212786
462.0914609
427.8885401
32.08683166
32.08038946
31.71871367
33.06763865
32.52288463
32.53624474
32.49545094
32.50930299
33.04470819
34.67003878
34.61236254
33.74700666
37.31387671
35.75013282
35.84171184
35.57414341
35.66100701
37.1698458
43.63262191
43.17271601
39.59264952
61.68244392
49.39316644
50.3258198
47.73711185
48.5354661
59.83874855
145.4314044
140.2796221
87.18037752
532.9398855
261.0062132
269.3690311
240.3872487
252.5938737
527.2466844
559.0131339
589.2534739
670.4076073
322.5693264
310.8605461
353.2562255
335.8532305
32.11044614
32.10478743
31.72198103
33.15968336
32.57553497
32.58857403
32.54943384
32.56250151
33.13646672
34.9143635
34.85092967
33.89668043
37.94672927
36.13346784
36.23740949
35.9359506
36.03308257
37.77887575
45.85330967
45.22847862
40.68819812
69.65489979
53.6053234
54.8317888
51.34088597
52.43664448
67.63306594
164.7209974
160.0766523
99.81854808
526.142129
294.3190882
301.9109187
277.8720705
286.2775636
530.4722538
459.3068978
481.3774157
594.3951519
281.6367125
273.4571639
300.2255446
290.5259017
32.13258997
32.12706008
31.7220209
33.25590911
32.62821421
32.64180569
32.60166353
32.61484824
33.23119564
35.18948374
35.11690029
34.05846596
38.71232561
36.57560593
36.69994513
36.34530961
36.45774684
38.50315314
48.84034304
48.0318856
42.11268073
77.32443626
58.6632081
59.93590093
56.09592851
57.37844851
75.48414135
181.5815032
177.6381174
111.0154558
499.8623253
320.9421096
325.9801282
308.7824314
315.1497649
507.2755632
386.0021598
402.3299632
528.6748715
252.3539074
246.2433352
265.9019253
258.8876421
32.1560084
32.14985879
31.72079141
33.36182024
32.68460026
32.69986087
32.65568006
32.66990312
33.33401025
35.52040337
35.43001305
34.24178213
39.73223865
37.12607
37.29108315
36.83209176
36.97355912
39.44560879
52.21413593
51.36911154
44.04201107
84.20905868
63.61072247
64.77869965
61.18773776
62.41353206
82.55574876
195.4847053
192.3193349
121.0146075
467.2815463
337.5427233
340.4131005
330.566823
334.3852684
475.6836776
331.3687846
343.5829799
471.9143928
230.0111881
225.1898331
240.5061412
235.1101766
32.18465126
32.17670929
31.72079035
33.48750366
32.75029214
32.76921344
32.71579685
32.73254035
33.45336636
35.95784145
35.83545725
34.46735908
41.08647256
37.87085734
38.09296526
37.46979973
37.66294819
40.72071987
55.47996182
54.68415715
46.30186491
90.41007172
68.12289221
69.18935429
65.9190808
67.03301432
88.91801581
206.3141993
203.8304328
129.7487344
434.8280544
344.9101472
345.2144296
342.4198437
343.7987238
442.5313336
290.3782877
299.5611818
422.4101337
212.1202088
208.1529692
220.610837
216.2628886
32.2246695
32.21319008
31.72562434
33.65102435
32.8349383
32.86057223
32.78948588
32.81131022
33.60539555
36.54254301
36.38250847
34.76858173
42.6483793
38.83233089
39.09781014
38.32823659
38.57520418
42.24906514
58.51565313
57.7791297
48.58552232
95.99823737
72.24938397
73.22254678
70.23293952
71.25280802
94.66271152
214.3139135
212.3966494
137.2386621
405.9897108
344.1462864
342.8377739
345.1312686
344.8339572
412.9278733
259.0429361
266.1339348
378.5235758
197.4024634
194.1427988
204.3912112
200.8134563
32.28397625
32.26688603
31.73990859
33.87291242
32.95146202
32.98705231
32.88840444
32.91862756
33.81113702
37.25754235
37.06927161
35.1688772
44.25015409
39.92812555
40.2119535
39.36989954
39.64706058
43.85152389
61.32522701
60.64200738
50.76332351
100.9539769
76.00965979
76.89918227
74.17300393
75.10115864
99.76781405
221.0985025
219.5597719
143.5626936
379.5665853
336.9010461
334.4315281
341.1614977
339.1360548
385.9890597
234.8010863
240.2979629
339.9583885
185.1403547
182.3651088
191.0199627
188.0226846
32.37051098
32.3459663
31.76888934
34.16332386
33.1112659
33.15870427
33.02548901
33.06686077
34.0843737
38.05201808
37.84866889
35.66163711
45.81655661
41.07075249
41.35746819
40.49746058
40.78388529
45.42986997
63.94315056
63.30568696
52.82142318
105.3869621
79.4577982
80.27470328
77.77008147
78.62246539
104.3232505
226.0051475
224.9849484
148.9775211
354.8323338
326.1811998
323.1663532
331.8199071
329.0287919
360.8690363
215.865309
220.1897044
306.4349412
174.6183527
172.2097097
179.6906354
177.110521
32.48961359
32.45665393
31.8174078
34.516752
33.31876486
33.37783642
33.20912991
33.26249199
34.42322287
38.88200982
38.67293337
36.220614
47.32564518
42.21230419
42.49470111
41.6434947
41.9284729
46.95425392
66.38178845
65.78886738
54.7657439
109.3168208
82.61529928
83.35908095
81.07332817
81.85303405
108.3812712
228.9511656
228.3952419
153.4500958
331.5601791
313.8633311
310.6084923
320.1347947
316.9880035
337.2266975
200.7293428
204.2303692
277.6483259
165.4437743
163.3264432
169.8807762
167.6271063
32.64241546
32.60115058
31.889172
34.91875075
33.57052821
33.63953067
33.43956894
33.50382384
34.81457533
39.72078344
39.51122219
36.81902499
48.77097406
43.33121029
43.60626814
42.77540545
43.05420371
48.41573762
68.64647902
68.09648984
56.59979887
112.7446392
85.48444233
86.15755246
84.08538122
84.79318111
111.9316146
230.2546378
230.0495025
157.0033026
309.758766
300.9611873
297.6210339
307.4405126
304.1602588
315.0489406
188.2175938
191.144112
253.1302116
157.342269
155.4610564
161.2721985
159.2783145
32.82642056
32.77772196
31.98556206
35.35422154
33.85877599
33.93554852
33.71065314
33.78376157
35.24294389
40.55397386
40.34672324
37.43748564
50.15137221
44.41847237
44.68488367
43.87917611
44.14986201
49.81236205
70.74193315
70.23401518
58.32719294
115.6922252
88.07381431
88.67779193
86.8137075
87.45168767
114.9965799
230.0752948
230.2353654
159.7110606
289.3641568
287.9326593
284.5709984
294.4570612
291.1323457
294.2877696
177.6138855
180.1193649
232.3376319
150.1309349
148.4494061
153.6340038
151.8576667
33.03718878
32.98226325
32.10583043
35.81110378
34.17497303
34.25749163
34.01390504
34.09373827
35.69542499
41.3737247
41.17035631
38.0636219
51.46663803
45.46993734
45.72700126
44.94891702
45.21055941
51.14395046
72.66976637
72.20345811
59.94938658
118.1765192
90.38781201
90.92419032
89.26493992
89.83380308
117.5931685
228.3913239