/*--------------------------------*- C++ -*----------------------------------*\
| =========                 |                                                 |
| \\      /  F ield         | OpenFOAM: The Open Source CFD Toolbox           |
|  \\    /   O peration     | Version:  v2012                                 |
|   \\  /    A nd           | Website:  www.openfoam.com                      |
|    \\/     M anipulation  |                                                 |
\*---------------------------------------------------------------------------*/
FoamFile
{
    version     2.0;
    format      ascii;
    class       surfaceVectorField;
    location    "0.96";
    object      Uf;
}
// * * * * * * * * * * * * * * * * * * * * * * * * * * * * * * * * * * * * * //

dimensions      [0 1 -1 0 0 0 0];


internalField   nonuniform List<vector> 
6430
(
(101.2900538 -0.3916044228 5.782543863e-20)
(101.5148607 -0.2022926413 3.444792192e-21)
(101.2009052 -0.7950925992 -5.293506888e-20)
(101.4600295 -0.6122063349 5.442636067e-20)
(101.0455174 -1.221642392 -1.012780112e-19)
(101.3535068 -1.036810678 -1.09707145e-19)
(100.7227105 -1.65968601 -1.55344313e-21)
(101.1776297 -1.509374731 -2.989726662e-22)
(100.8854541 -1.708690087 3.213993523e-19)
(100.5000553 -1.724991394 -8.653229231e-22)
(100.7237487 -1.819968636 2.2017544e-19)
(100.5155839 -1.895084141 -8.683676227e-22)
(100.0641626 -2.245622753 0)
(100.3128186 -2.168875997 0)
(100.3474082 -2.371703701 0)
(100.0791982 -2.466319893 0)
(99.52629437 -2.885440778 -4.915488744e-22)
(99.82516893 -2.792702886 0)
(99.87163776 -3.048443919 -2.910039314e-19)
(99.48487045 -3.124171198 2.053317494e-19)
(99.61261716 -3.178506041 -1.228849257e-19)
(98.94142375 -3.543488577 -1.666518388e-20)
(99.13268078 -3.495321985 -3.122168555e-20)
(99.14775731 -3.636104663 1.864237356e-19)
(98.94226946 -3.695859441 0)
(97.99962761 -4.41141106 1.455899419e-19)
(98.25627108 -4.353425454 -1.398528919e-19)
(98.25945305 -4.52387941 0)
(97.98998237 -4.597278841 1.411713437e-19)
(96.73128907 -5.511002594 -2.754711877e-19)
(97.06511607 -5.431732206 1.4844771e-19)
(97.05884473 -5.651597822 -2.864769597e-19)
(96.70815574 -5.751910513 -2.908361381e-19)
(95.01678052 -6.991376017 3.580361883e-20)
(95.45210752 -6.879743189 -3.366482239e-19)
(95.43120202 -7.197003685 -1.88272727e-19)
(94.89115145 -7.276304101 4.400626288e-19)
(95.03596967 -7.351820834 -1.253278975e-19)
(93.2547796 -8.656332641 -1.195686229e-21)
(93.38266852 -8.645850883 3.098291338e-20)
(93.36467649 -8.741256173 -2.462721932e-19)
(93.25014849 -8.760900246 2.321526405e-21)
(101.680686 -0.4220410716 0)
(101.9113256 -0.2142766527 0)
(101.6086351 -0.8570285499 0)
(101.868634 -0.6494668169 0)
(101.4832104 -1.318586144 0)
(101.7870935 -1.098503172 0)
(101.2075496 -1.802157058 0)
(101.6511621 -1.592878754 0)
(101.3825099 -1.843175762 0)
(100.9871099 -1.899579006 2.203544689e-19)
(101.2370871 -1.958996075 0)
(101.0318161 -2.068274991 0)
(100.629684 -2.475748992 0)
(100.8665288 -2.366076111 0)
(100.9321712 -2.552965984 0)
(100.6813811 -2.688059277 0)
(100.2091666 -3.179928128 -2.097229055e-19)
(100.4860205 -3.040246691 8.435531658e-20)
(100.5719546 -3.267396297 4.973843112e-20)
(100.2215989 -3.406942081 2.06942668e-19)
(100.3541801 -3.433137299 5.475486288e-20)
(99.77427051 -3.870460276 2.649989908e-19)
(99.95050772 -3.797147118 -2.321193368e-19)
(99.99270425 -3.924161106 8.860904291e-22)
(99.8045863 -4.009708229 -2.288651344e-19)
(99.04289693 -4.796987372 -1.160779679e-19)
(99.27641564 -4.705130079 -2.48748216e-19)
(99.31498229 -4.854265613 -1.259666006e-19)
(99.07152741 -4.962788858 -2.494118695e-19)
(98.05973015 -5.982390112 -2.484642246e-19)
(98.36461524 -5.851683093 7.752747143e-20)
(98.41075271 -6.042033635 1.418210365e-20)
(98.0943915 -6.199093976 1.368941916e-19)
(96.75916086 -7.688469448 -6.623340984e-19)
(97.16688524 -7.471091238 2.323879266e-19)
(97.25301308 -7.751024056 -2.283292487e-19)
(96.74358844 -7.980294508 7.082992805e-20)
(96.93231569 -8.001237291 -7.969129404e-20)
(95.54902075 -10.05936839 2.339420419e-19)
(95.78520115 -9.988435205 -1.806090401e-19)
(95.91818342 -10.24468935 -6.091473627e-20)
(95.46418254 -10.20988326 2.418265222e-19)
(95.49062153 -10.41049594 -1.832810884e-19)
(95.6447486 -10.43783819 9.854505136e-20)
(102.0948463 -0.4406542273 0)
(102.3252757 -0.2203619943 0)
(102.0414086 -0.8939527608 0)
(102.2944389 -0.6684362487 0)
(101.9476136 -1.372816979 0)
(102.236938 -1.129317659 0)
(101.7209725 -1.877473495 0)
(102.1378485 -1.627775899 0)
(101.8996893 -1.904326 0)
(101.50584 -2.00176687 0)
(101.7715953 -2.028133547 0)
(101.5792179 -2.160388193 0)
(101.2383401 -2.605098053 0)
(101.4565175 -2.466887757 0)
(101.5455934 -2.634063651 0)
(101.3222556 -2.793944199 0)
(100.9344291 -3.318068346 -3.337917185e-20)
(101.1837479 -3.147978593 0)
(101.2942908 -3.337555199 -2.663079138e-21)
(100.9854496 -3.51991284 1.335093427e-19)
(101.1153144 -3.537032536 0)
(100.644751 -4.016646172 2.010545538e-19)
(100.7974644 -3.922490116 1.053571731e-19)
(100.8578035 -4.028213316 -1.347620643e-19)
(100.6980402 -4.13280319 3.540156143e-19)
(100.1207891 -4.934435792 7.30618973e-22)
(100.3226446 -4.816328594 -1.094445161e-19)
(100.3813343 -4.934173758 -3.079863114e-19)
(100.1778364 -5.065792397 1.045516864e-19)
(99.44376198 -6.076525124 6.188085036e-21)
(99.69624391 -5.91021143 4.531525106e-21)
(99.77153573 -6.046805974 -2.628628173e-21)
(99.52343094 -6.233285281 2.83750339e-20)
(98.71106343 -7.650733522 5.237366873e-20)
(99.01608148 -7.381662862 0)
(99.15613117 -7.540551891 0)
(98.89228728 -7.843630565 -9.219278319e-20)
(98.70164785 -9.917164806 2.344556883e-19)
(98.75490252 -9.498243391 4.622303532e-20)
(98.4780989 -9.637348927 1.27358901e-19)
(93.39391326 -9.274150358 5.984570428e-20)
(98.42224569 -10.15178032 -7.375605176e-20)
(102.5205764 -0.44747957 0)
(102.745662 -0.2210625498 0)
(102.4847497 -0.9063467144 0)
(102.7254997 -0.6704533358 0)
(102.4207518 -1.387849961 0)
(102.6892879 -1.131527926 0)
(102.2403811 -1.900534571 0)
(102.6230124 -1.620583166 0)
(102.4160141 -1.908029096 0)
(102.037413 -2.039894807 0)
(102.3039556 -2.038190484 0)
(102.1301312 -2.184287431 0)
(101.8495692 -2.64186863 0)
(102.0450394 -2.486244777 0)
(102.1485635 -2.630608437 0)
(101.9546416 -2.804510029 0)
(101.6471419 -3.328507739 -2.839202679e-21)
(101.8648099 -3.144974657 -1.742172947e-22)
(101.9891126 -3.294108999 -1.742255679e-22)
(101.7228062 -3.516005053 -1.48062575e-20)
(101.8433653 -3.502015606 -1.211632059e-20)
(101.4701992 -4.011359801 1.10076712e-20)
(101.597216 -3.904814205 -8.731007176e-20)
(101.6655758 -3.988656609 -8.606852637e-20)
(101.5354964 -4.103071848 -4.280460599e-19)
(101.1235473 -4.86200347 -7.809887307e-20)
(101.2896144 -4.731590048 -4.323862363e-19)
(101.3547039 -4.817246884 -1.734183561e-19)
(101.1905986 -4.957013664 4.951966319e-21)
(100.6759742 -5.8618216 -1.206157979e-20)
(100.8705141 -5.69032649 -1.657019796e-19)
(100.9479667 -5.774994188 1.557727977e-19)
(100.7632215 -5.957620121 -1.644555108e-19)
(100.3001603 -7.083583622 5.007733911e-20)
(100.4972094 -6.839147048 -1.019792457e-19)
(100.6137308 -6.9012025 -1.361772894e-19)
(100.4574404 -7.153971016 -1.284742015e-19)
(97.779705 -8.219272182 8.824368827e-20)
(98.9850406 -8.005708195 1.209693393e-19)
(97.28809841 -7.74447723 -9.087889458e-20)
(94.05976109 -7.635178026 -4.411291725e-20)
(102.9468793 -0.4438908833 0)
(103.1626526 -0.2172151769 0)
(102.9260664 -0.8974734451 0)
(103.1515714 -0.6581615536 0)
(102.8873417 -1.369856508 0)
(103.133044 -1.109558334 0)
(102.7476772 -1.87790115 0)
(103.093896 -1.578616443 0)
(102.91524 -1.86433285 0)
(102.5611632 -2.023720311 0)
(102.8178777 -1.998498655 0)
(102.6646143 -2.151191375 0)
(102.4389833 -2.602331773 0)
(102.6102607 -2.438577499 0)
(102.7199847 -2.559259356 0)
(102.5545058 -2.737690164 0)
(102.3173034 -3.238326353 0)
(102.5022203 -3.053003518 0)
(102.6294394 -3.164921762 0)
(102.4035277 -3.404405564 0)
(102.5113882 -3.366186303 0)
(102.2189943 -3.873353451 -3.581703967e-20)
(102.3234247 -3.758814857 2.057811986e-20)
(102.3915106 -3.821201193 1.807607132e-20)
(102.2857044 -3.941240337 -1.625790469e-20)
(101.9882211 -4.634752454 -1.475055692e-19)
(102.1199791 -4.502965252 1.03168043e-19)
(102.1795751 -4.558062576 0)
(102.0496585 -4.696225101 -1.703820013e-21)
(101.665134 -5.45758129 -3.466413096e-20)
(101.8129567 -5.296384447 -3.34896768e-20)
(101.8701649 -5.337410842 0)
(101.7307562 -5.50251153 0)
(101.4035503 -6.333576953 -5.759276315e-20)
(101.5328399 -6.133226619 4.039029752e-19)
(101.6266574 -6.146307143 3.901374068e-19)
(101.5381705 -6.353099425 -7.836875024e-21)
(95.60738512 -6.527214931 -1.405187696e-19)
(97.54975585 -6.566167005 -1.197792213e-19)
(95.16965343 -6.215534577 -2.633790189e-19)
(94.23120722 -6.452152186 1.510632012e-19)
(103.3644618 -0.4317942839 0)
(103.5682797 -0.2097489583 0)
(103.3556144 -0.871350946 0)
(103.5644679 -0.6345586443 0)
(103.3367665 -1.325333223 0)
(103.5595145 -1.068543465 0)
(103.2304511 -1.816575703 0)
(103.5410473 -1.510031415 0)
(103.3867202 -1.786085431 0)
(103.0619085 -1.962888667 0)
(103.3025584 -1.919663271 0)
(103.1689319 -2.072763994 0)
(102.989084 -2.503750878 0)
(103.1373183 -2.339387653 0)
(103.2464135 -2.438068087 0)
(103.1060858 -2.613302669 0)
(102.9240405 -3.07737141 0)
(103.079091 -2.897541166 0)
(103.2004913 -2.978920686 0)
(103.009656 -3.217646964 0)
(103.1036197 -3.166043074 0)
(102.8703428 -3.636881456 0)
(102.9559396 -3.525875995 0)
(103.0174593 -3.569002978 0)
(102.9309709 -3.682506441 0)
(102.6950522 -4.291738726 3.816283209e-20)
(102.8023107 -4.163121514 -6.573170832e-20)
(102.8484906 -4.19407396 -8.184645743e-20)
(102.7412882 -4.325130593 -9.982166283e-21)
(102.3966633 -4.952014438 -1.792712948e-19)
(102.5161697 -4.806519843 -1.796214916e-19)
(102.5467359 -4.818635928 -1.911642881e-19)
(102.4323137 -4.964099199 -1.695284164e-19)
(102.173258 -5.595747723 -3.386448426e-19)
(102.2565562 -5.429580165 1.818871692e-19)
(102.3081354 -5.415177085 -3.031737999e-19)
(102.1476069 -5.57708974 -1.689518174e-19)
(94.74425549 -5.554230934 1.059673173e-19)
(96.22558227 -5.511916775 -3.24043341e-20)
(94.88205208 -5.394715419 1.226423087e-19)
(95.47999121 -5.739375559 1.179455613e-19)
(103.7661541 -0.413160217 0)
(103.9564019 -0.1995854019 0)
(103.7662185 -0.8320789676 0)
(103.9579783 -0.6026066411 0)
(103.7618185 -1.261012717 0)
(103.9624544 -1.01360346 0)
(103.6806244 -1.726178988 0)
(103.9582698 -1.42310161 0)
(103.8239269 -1.684121822 0)
(103.5293998 -1.86881438 0)
(103.7510156 -1.81338997 0)
(103.6346639 -1.962104168 0)
(103.4903457 -2.364353972 0)
(103.6180993 -2.205016847 0)
(103.721695 -2.284512474 0)
(103.6020987 -2.451277159 0)
(103.4589353 -2.872649637 0)
(103.5893866 -2.702990841 0)
(103.7000134 -2.761440435 0)
(103.5363581 -2.988274418 0)
(103.6164567 -2.930988976 0)
(103.4219739 -3.35381048 0)
(103.4936156 -3.251387477 0)
(103.545399 -3.279644385 0)
(103.4723644 -3.382763865 0)
(103.2596426 -3.891693 0)
(103.3506333 -3.775936331 0)
(103.3816965 -3.790822595 0)
(103.2889921 -3.905850308 0)
(102.9395611 -4.414993187 0)
(103.0456679 -4.286241176 0)
(103.0546471 -4.282457725 0)
(102.9524265 -4.408724724 0)
(102.5765995 -4.882707194 5.803711365e-20)
(102.6805057 -4.749099299 9.198458908e-20)
(102.6369351 -4.711606249 5.798206289e-20)
(102.2662314 -4.825891138 -4.470785151e-21)
(95.65803032 -4.957911385 -4.163438573e-20)
(96.22834238 -4.823970611 3.624792694e-20)
(95.91737097 -4.807887628 3.568528265e-20)
(96.95646235 -5.059876383 -4.681799138e-21)
(104.1467767 -0.3899124217 0)
(104.3226852 -0.187602902 0)
(104.1528347 -0.7837064887 0)
(104.3278878 -0.5651072554 0)
(104.1577996 -1.183504239 0)
(104.3380239 -0.9495108187 0)
(104.09396 -1.616881752 0)
(104.342424 -1.32522774 0)
(104.223736 -1.567999085 0)
(103.9585125 -1.752905428 0)
(104.1599401 -1.690380588 0)
(104.0581626 -1.831315295 0)
(103.9394581 -2.200323632 0)
(104.0500439 -2.049790513 0)
(104.1448756 -2.113345088 0)
(104.0415518 -2.26844764 0)
(103.923742 -2.64752902 0)
(104.0346139 -2.488575118 0)
(104.1310371 -2.532459521 0)
(103.988109 -2.735224995 0)
(104.0563779 -2.683279034 0)
(103.8835058 -3.054734758 0)
(103.9456065 -2.962222408 0)
(103.9865566 -2.979920319 0)
(103.9223319 -3.071911841 0)
(103.7087443 -3.49366356 0)
(103.7896245 -3.392762871 0)
(103.806059 -3.397204166 0)
(103.721984 -3.496344507 0)
(103.3570424 -3.902131321 0)
(103.4537594 -3.793389017 0)
(103.4451294 -3.781677937 0)
(103.3501122 -3.887148674 0)
(102.790504 -4.235144114 0)
(102.9427272 -4.130614588 0)
(102.8292694 -4.088558157 0)
(102.3661369 -4.171877262 0)
(96.49227659 -4.349744104 0)
(96.66888283 -4.216123429 0)
(96.65011713 -4.206491799 0)
(97.68532399 -4.384128667 0)
(104.5029733 -0.363821939 0)
(104.664479 -0.1745834095 0)
(104.5124107 -0.7298984682 0)
(104.6717809 -0.5245458911 0)
(104.522279 -1.098565266 0)
(104.6843692 -0.8804455395 0)
(104.4691787 -1.496736378 0)
(104.6924117 -1.222401296 0)
(104.5858698 -1.445479171 0)
(104.3474435 -1.62491911 0)
(104.5293322 -1.55935494 0)
(104.4391138 -1.690346868 0)
(104.3373881 -2.024938735 0)
(104.4342007 -1.885273003 0)
(104.5184678 -1.936194241 0)
(104.4272868 -2.078001283 0)
(104.3229266 -2.417490233 0)
(104.4194702 -2.269489597 0)
(104.5004327 -2.30364523 0)
(104.3733725 -2.480765306 0)
(104.4312887 -2.436104752 0)
(104.2685292 -2.758897931 0)
(104.3244778 -2.676482759 0)
(104.354526 -2.686887736 0)
(104.2957591 -2.76801968 0)
(104.0677158 -3.118070996 0)
(104.1426876 -3.030719016 0)
(104.1459084 -3.028777852 0)
(104.0667163 -3.113947138 0)
(103.6775018 -3.440280125 0)
(103.7693898 -3.348680502 0)
(103.7457065 -3.333084223 0)
(103.6528056 -3.421277383 0)
(102.9196787 -3.683370819 0)
(103.1119515 -3.599575478 0)
(102.9429733 -3.558545244 0)
(102.425873 -3.624370705 0)
(97.07048977 -3.803935848 0)
(97.05976315 -3.68052088 0)
(97.19510423 -3.679413512 0)
(98.14330455 -3.813160323 0)
(104.8329556 -0.3363951793 0)
(104.9804882 -0.1611733238 0)
(104.8436077 -0.6737018239 0)
(104.9886291 -0.4829690611 0)
(104.854711 -1.010916993 0)
(105.0011488 -0.80985717 0)
(104.8071821 -1.373462801 0)
(105.0089599 -1.119212107 0)
(104.9114628 -1.322308955 0)
(104.697316 -1.492513585 0)
(104.8604584 -1.426957187 0)
(104.7794481 -1.547139046 0)
(104.6877232 -1.848062648 0)
(104.7738086 -1.720122851 0)
(104.8466652 -1.761258521 0)
(104.7643777 -1.889309045 0)
(104.6645469 -2.191758126 0)
(104.7511662 -2.055464041 0)
(104.8161711 -2.082380707 0)
(104.7011344 -2.23578352 0)
(104.7504013 -2.197977664 0)
(104.5900225 -2.47749886 0)
(104.6422304 -2.404697029 0)
(104.6619754 -2.410222018 0)
(104.6063361 -2.481303042 0)
(104.3571857 -2.773128471 0)
(104.4289197 -2.697706118 0)
(104.4206348 -2.692101016 0)
(104.3440271 -2.765256975 0)
(103.9272204 -3.030819879 0)
(104.017263 -2.953362704 0)
(103.9809552 -2.936319566 0)
(103.8872158 -3.0105712 0)
(102.9976176 -3.21186831 0)
(103.2247773 -3.143853605 0)
(103.0117121 -3.104942017 0)
(102.4567951 -3.158859613 0)
(97.52861125 -3.333155032 0)
(97.39886837 -3.223493602 0)
(97.62754416 -3.226246737 0)
(98.47867051 -3.328822097 0)
(105.1362306 -0.3088279493 0)
(105.2706009 -0.1478724294 0)
(105.1464268 -0.6175025722 0)
(105.2785819 -0.441934411 0)
(105.155966 -0.9240832057 0)
(105.2891503 -0.7403701529 0)
(105.1099721 -1.252012147 0)
(105.2938489 -1.019032455 0)
(105.2028579 -1.202688868 0)
(105.010213 -1.361343299 0)
(105.1559493 -1.29794122 0)
(105.082079 -1.407158461 0)
(104.9950864 -1.676385431 0)
(105.0730378 -1.560249674 0)
(105.134411 -1.593860966 0)
(105.0584383 -1.708554112 0)
(104.9565635 -1.976023201 0)
(105.0369842 -1.852854276 0)
(105.0867088 -1.8732453 0)
(104.9801134 -2.008761277 0)
(105.0218745 -1.974048509 0)
(104.8592822 -2.216671833 0)
(104.9093594 -2.152758244 0)
(104.9196748 -2.155018494 0)
(104.8656653 -2.217056383 0)
(104.5929928 -2.46163111 0)
(104.6631375 -2.396529654 0)
(104.6450262 -2.389006698 0)
(104.569619 -2.451926805 0)
(104.125141 -2.67054677 0)
(104.215088 -2.604727573 0)
(104.1681515 -2.587650035 0)
(104.0718525 -2.65051855 0)
(103.0448651 -2.80755499 0)
(103.3010675 -2.75164592 0)
(103.0534824 -2.715733723 0)
(102.4739511 -2.760820492 0)
(97.89224149 -2.928583123 0)
(97.69151805 -2.832640401 0)
(97.97072621 -2.836553387 0)
(98.72816886 -2.916198831 0)
(105.4133 -0.282011694 0)
(105.5355224 -0.1350533221 0)
(105.4218117 -0.5630564651 0)
(105.5425807 -0.4025740289 0)
(105.427784 -0.8405843142 0)
(105.5498596 -0.6738693042 0)
(105.3803539 -1.135817201 0)
(105.5494182 -0.9242227547 0)
(105.4629424 -1.08946385 0)
(105.2890789 -1.235348348 0)
(105.4189478 -1.175544631 0)
(105.3505652 -1.274071635 0)
(105.2644727 -1.514044012 0)
(105.3363882 -1.40940479 0)
(105.3865807 -1.437187979 0)
(105.3150146 -1.539382921 0)
(105.2074122 -1.774497418 0)
(105.2840055 -1.664734148 0)
(105.3194267 -1.680063419 0)
(105.2180943 -1.799854519 0)
(105.2537078 -1.768104462 0)
(105.0856735 -1.978849974 0)
(105.1347176 -1.922898163 0)
(105.1366553 -1.923082023 0)
(105.0832671 -1.977164282 0)
(104.7870941 -2.183388294 0)
(104.8566386 -2.127156582 0)
(104.8302199 -2.11885114 0)
(104.7551995 -2.173059668 0)
(104.2842901 -2.354927287 0)
(104.3752275 -2.298760811 0)
(104.3191443 -2.282440347 0)
(104.2192419 -2.335859501 0)
(103.0740923 -2.460136101 0)
(103.3537648 -2.413619977 0)
(103.0795954 -2.381146942 0)
(102.4862231 -2.419477559 0)
(98.18080264 -2.580006964 0)
(97.94378885 -2.496776989 0)
(98.24319031 -2.500607427 0)
(98.91534438 -2.563182338 0)
(105.6653509 -0.2565803687 0)
(105.7765677 -0.1229811165 0)
(105.6713092 -0.5115959286 0)
(105.7821428 -0.3656715158 0)
(105.6723571 -0.7621418042 0)
(105.7852358 -0.6116331277 0)
(105.6213822 -1.02712555 0)
(105.7783194 -0.8363198381 0)
(105.6947863 -0.9844677251 0)
(105.5371521 -1.117135773 0)
(105.6527608 -1.061837188 0)
(105.588527 -1.150198862 0)
(105.5006015 -1.363521826 0)
(105.5681547 -1.269836433 0)
(105.6077295 -1.293174203 0)
(105.5390178 -1.383869188 0)
(105.4234747 -1.590105148 0)
(105.4978642 -1.492954879 0)
(105.5201913 -1.50470131 0)
(105.4220792 -1.610217833 0)
(105.4526045 -1.581611384 0)
(105.2771365 -1.764691578 0)
(105.325919 -1.715818433 0)
(105.3204262 -1.714815518 0)
(105.2670149 -1.761896977 0)
(104.9485342 -1.936855297 0)
(105.0180547 -1.888257846 0)
(104.9846411 -1.879930324 0)
(104.909544 -1.926689922 0)
(104.413695 -2.079314134 0)
(104.5063459 -2.031268419 0)
(104.4422095 -2.016142636 0)
(104.3381443 -2.061619162 0)
(103.0932501 -2.161273866 0)
(103.3913263 -2.122216359 0)
(103.0970832 -2.093320186 0)
(102.4983139 -2.126296475 0)
(98.41055537 -2.279304056 0)
(98.16203861 -2.207394094 0)
(98.46043575 -2.210826192 0)
(99.0568941 -2.260486693 0)
(105.894022 -0.232963484 0)
(105.9954133 -0.1118359547 0)
(105.8968429 -0.4639410586 0)
(105.9991111 -0.3317445078 0)
(105.8921059 -0.6898599938 0)
(105.9974638 -0.5544863276 0)
(105.836167 -0.9272985849 0)
(105.9832689 -0.7562482814 0)
(105.9014539 -0.8887631962 0)
(105.7577316 -1.008296766 0)
(105.8606751 -0.9580072038 0)
(105.7994984 -1.03688906 0)
(105.7078551 -1.226249436 0)
(105.7723625 -1.142775266 0)
(105.8020324 -1.162796918 0)
(105.7349877 -1.243022521 0)
(105.6102008 -1.423862729 0)
(105.6835628 -1.338233172 0)
(105.6940246 -1.347585142 0)
(105.5977164 -1.440187418 0)
(105.6240129 -1.414754131 0)
(105.4400734 -1.573836402 0)
(105.4891055 -1.531224105 0)
(105.4770562 -1.529668329 0)
(105.4232148 -1.570598536 0)
(105.0842019 -1.719924316 0)
(105.1540239 -1.677916737 0)
(105.1147296 -1.670062309 0)
(105.0392801 -1.710417874 0)
(104.5199097 -1.839417156 0)
(104.6147434 -1.798280294 0)
(104.5434401 -1.784581822 0)
(104.4349919 -1.823331801 0)
(103.1071912 -1.904240782 0)
(103.4192682 -1.871229822 0)
(103.1102401 -1.845869729 0)
(102.5124568 -1.874475804 0)
(98.59484267 -2.020088057 0)
(98.35241459 -1.958012869 0)
(98.63509877 -1.961141576 0)
(99.164925 -2.000871352 0)
(106.1012497 -0.2114302395 0)
(106.1940306 -0.1017272651 0)
(106.1005697 -0.4205916489 0)
(106.1955864 -0.3010948887 0)
(106.0895587 -0.6243747782 0)
(106.1888975 -0.5028948532 0)
(106.0277255 -0.8370618688 0)
(106.1670048 -0.684463891 0)
(106.0859159 -0.8028651977 0)
(105.9539887 -0.9097021362 0)
(106.0458038 -0.864648897 0)
(105.9867902 -0.9348052906 0)
(105.8901582 -1.10284364 0)
(105.9526572 -1.028738629 0)
(105.9732015 -1.046365148 0)
(105.9069254 -1.117134318 0)
(105.772198 -1.275804515 0)
(105.8454079 -1.200556714 0)
(105.8451818 -1.208443682 0)
(105.7496641 -1.289419832 0)
(105.7724418 -1.267088762 0)
(105.5796164 -1.405366151 0)
(105.6292328 -1.368271351 0)
(105.6114306 -1.366605851 0)
(105.5569069 -1.402142854 0)
(105.1993256 -1.530352236 0)
(105.2696376 -1.494046891 0)
(105.2253881 -1.486972451 0)
(105.1493973 -1.521794222 0)
(104.6078499 -1.63148796 0)
(104.7051393 -1.596268436 0)
(104.6274423 -1.584109201 0)
(104.5146119 -1.617127375 0)
(103.1188966 -1.683619055 0)
(103.4412433 -1.65558737 0)
(103.1217009 -1.633612731 0)
(102.5295776 -1.65857306 0)
(98.74424429 -1.797100272 0)
(98.52031884 -1.743420219 0)
(98.77715453 -1.746475588 0)
(99.24824858 -1.778457966 0)
(106.2891562 -0.192128182 0)
(106.3745156 -0.09271428041 0)
(106.2847744 -0.3818077303 0)
(106.3737614 -0.2738733788 0)
(106.2672655 -0.5659787674 0)
(106.3619075 -0.4570779377 0)
(106.1989616 -0.7566815139 0)
(106.3321658 -0.6211184281 0)
(106.2510019 -0.7269073318 0)
(106.1289648 -0.8216924027 0)
(106.2111004 -0.7819143064 0)
(106.1535106 -0.8441204949 0)
(106.0510506 -0.9933473544 0)
(106.112365 -0.9277445521 0)
(106.1245768 -0.9437322003 0)
(106.0583805 -1.006009757 0)
(105.9134238 -1.145409755 0)
(105.9871288 -1.079453582 0)
(105.9773164 -1.086598538 0)
(105.8818442 -1.157147889 0)
(105.9016975 -1.137793057 0)
(105.6999625 -1.258043255 0)
(105.7503696 -1.225807683 0)
(105.7275389 -1.224355373 0)
(105.6721885 -1.255160591 0)
(105.2979375 -1.365892152 0)
(105.3688563 -1.334547508 0)
(105.320397 -1.328448176 0)
(105.2437245 -1.35845337 0)
(104.6813078 -1.452233467 0)
(104.7811794 -1.422121663 0)
(104.6977718 -1.411555106 0)
(104.5807018 -1.439645903 0)
(103.1301235 -1.494906274 0)
(103.4596392 -1.471052738 0)
(103.1329744 -1.452257492 0)
(102.5498112 -1.474087291 0)
(98.86703497 -1.605863306 0)
(98.67027343 -1.55930307 0)
(98.89436545 -1.56256839 0)
(99.31336561 -1.588393594 0)
(106.45992 -0.1751207969 0)
(106.5390239 -0.08482011497 0)
(106.4517501 -0.3476863303 0)
(106.5358604 -0.2501239411 0)
(106.4277005 -0.5147405424 0)
(106.5188381 -0.4170838878 0)
(106.3525891 -0.6861397501 0)
(106.4812705 -0.5661611568 0)
(106.3993566 -0.6607884036 0)
(106.2854856 -0.7442780544 0)
(106.3592966 -0.7097012676 0)
(106.3025066 -0.7647166428 0)
(106.1936713 -0.8974784327 0)
(106.2544671 -0.8395287753 0)
(106.2591213 -0.8545136992 0)
(106.1924602 -0.9091971063 0)
(106.0372418 -1.031896146 0)
(106.111921 -0.9742310705 0)
(106.0935249 -0.9811718852 0)
(105.9975602 -1.0424204 0)
(106.0150012 -1.025874411 0)
(105.8045628 -1.130542071 0)
(105.8558816 -1.102591051 0)
(105.828666 -1.101604764 0)
(105.7724104 -1.128246941 0)
(105.3831817 -1.224462175 0)
(105.4547887 -1.197465139 0)
(105.4027122 -1.192475577 0)
(105.3252497 -1.218253328 0)
(104.7432294 -1.298828043 0)
(104.8457099 -1.273167122 0)
(104.7571915 -1.264220493 0)
(104.636105 -1.288028446 0)
(103.1417657 -1.334381985 0)
(103.47593 -1.314117458 0)
(103.1447922 -1.298281167 0)
(102.5728221 -1.317338896 0)
(98.96965851 -1.442751552 0)
(98.80601601 -1.402224607 0)
(98.99278671 -1.406007896 0)
(99.36515864 -1.426842236 0)
(106.6157828 -0.1604123124 0)
(106.6897238 -0.07804574385 0)
(106.6038094 -0.3182133631 0)
(106.6840991 -0.2298236827 0)
(106.5732916 -0.4705763947 0)
(106.6619761 -0.3828475365 0)
(106.491158 -0.625272676 0)
(106.6167392 -0.5194400771 0)
(106.5334552 -0.6042779293 0)
(106.4261771 -0.6772703579 0)
(106.4929116 -0.6477486549 0)
(106.4363935 -0.6963078781 0)
(106.3208237 -0.8147860719 0)
(106.3816571 -0.763671733 0)
(106.3795055 -0.7782104475 0)
(106.3119167 -0.8261284917 0)
(106.1464367 -0.9342601587 0)
(106.222502 -0.8841688148 0)
(106.1963402 -0.8910031279 0)
(106.099674 -0.9444994289 0)
(106.1151709 -0.9300774142 0)
(105.896314 -1.021589778 0)
(105.9486308 -0.9974290459 0)
(105.9175818 -0.9971089241 0)
(105.8603709 -1.020066964 0)
(105.4575712 -1.104195523 0)
(105.5299392 -1.081027818 0)
(105.4747225 -1.077235692 0)
(105.3963767 -1.099283606 0)
(104.7959309 -1.168859726 0)
(104.9009949 -1.147103113 0)
(104.8078924 -1.139779769 0)
(104.6830384 -1.159834896 0)
(103.1541896 -1.199003345 0)
(103.4909957 -1.181882329 0)
(103.157431 -1.168784451 0)
(102.5980932 -1.185332563 0)
(99.05719648 -1.304829784 0)
(98.93067166 -1.269403358 0)
(99.07721647 -1.27398815 0)
(99.40737579 -1.290712607 0)
(106.7587751 -0.1479797777 0)
(106.8287359 -0.07237403624 0)
(106.7430365 -0.2933167055 0)
(106.820621 -0.2129053991 0)
(106.7061975 -0.4333237123 0)
(106.7934985 -0.3542393295 0)
(106.6169836 -0.5736804464 0)
(106.740767 -0.480696199 0)
(106.6555783 -0.5570246418 0)
(106.5534419 -0.6203561207 0)
(106.6143096 -0.5957288347 0)
(106.5575741 -0.6384783275 0)
(106.4350581 -0.74472325 0)
(106.4963924 -0.6996728364 0)
(106.4881449 -0.7142305589 0)
(106.4192749 -0.7561812391 0)
(106.2435566 -0.8513193714 0)
(106.3214222 -0.8085244436 0)
(106.2883703 -0.8151496277 0)
(106.1905278 -0.8630180702 0)
(106.2043787 -0.8494470075 0)
(105.9775653 -0.9300181503 0)
(106.0308986 -0.9092315539 0)
(105.9965079 -0.9097010125 0)
(105.9383293 -0.9293990961 0)
(105.5231543 -1.003442917 0)
(105.5963457 -0.9836672452 0)
(105.5383774 -0.9811342217 0)
(105.4590697 -0.9998744092 0)
(104.8412681 -1.060278219 0)
(104.9488625 -1.041972849 0)
(104.8516331 -1.036269985 0)
(104.7232587 -1.053007995 0)
(103.1674742 -1.086297105 0)
(103.5053545 -1.071981298 0)
(103.1709253 -1.061424404 0)
(102.6250706 -1.075655538 0)
(99.13367096 -1.18966737 0)
(99.04681124 -1.158559506 0)
(99.15144812 -1.164194472 0)
(99.44291515 -1.177485891 0)
(106.8915434 -0.1377563366 0)
(106.958144 -0.06779977088 0)
(106.872055 -0.2728684978 0)
(106.9475383 -0.1993193713 0)
(106.8290367 -0.4027402515 0)
(106.9154999 -0.3311181053 0)
(106.7324299 -0.5312196124 0)
(106.8556318 -0.4498428953 0)
(106.767948 -0.5188105488 0)
(106.6695868 -0.5731905131 0)
(106.7255881 -0.5532283055 0)
(106.6682809 -0.5908368844 0)
(106.5386656 -0.6866590921 0)
(106.600908 -0.6469851875 0)
(106.5872211 -0.6619223507 0)
(106.5167822 -0.6986702575 0)
(106.3310809 -0.7824732223 0)
(106.4110499 -0.7464302436 0)
(106.3720463 -0.7533349932 0)
(106.2722803 -0.7965137058 0)
(106.2847236 -0.783569307 0)
(106.0502798 -0.8546653943 0)
(106.1046451 -0.8368730196 0)
(106.0673562 -0.8382232644 0)
(106.0081974 -0.8550537384 0)
(105.5816401 -0.9207609893 0)
(105.6557218 -0.9039905091 0)
(105.5953314 -0.9027624824 0)
(105.5149819 -0.9185669545 0)
(104.8807522 -0.9713575057 0)
(104.9908208 -0.9561154507 0)
(104.8898615 -0.9520233158 0)
(104.7581895 -0.9658135936 0)
(103.1815807 -0.9942665606 0)
(103.5193383 -0.9824811729 0)
(103.1852306 -0.9742924755 0)
(102.6532563 -0.9863670402 0)
(99.2022885 -1.095263525 0)
(99.15652056 -1.067814184 0)
(99.21853148 -1.074705382 0)
(99.47405075 -1.085107207 0)
(107.0141614 -0.1297623648 0)
(107.0800426 -0.06425462377 0)
(106.9910603 -0.2568264608 0)
(107.0668956 -0.1889114134 0)
(106.9420925 -0.3787436812 0)
(107.0300288 -0.3132875446 0)
(106.8389781 -0.4963951556 0)
(106.9625937 -0.4258894738 0)
(106.8724472 -0.4888163303 0)
(106.7764384 -0.535313483 0)
(106.829316 -0.519942715 0)
(106.7706036 -0.5526870433 0)
(106.6337175 -0.6399651424 0)
(106.6972727 -0.6050462151 0)
(106.6787156 -0.6207879564 0)
(106.6063798 -0.6529446102 0)
(106.4113772 -0.7277508413 0)
(106.4933699 -0.6969789279 0)
(106.449114 -0.7055874823 0)
(106.3469135 -0.7421080627 0)
(106.3584413 -0.7321953865 0)
(106.11627 -0.794383046 0)
(106.1717401 -0.779183576 0)
(106.1319701 -0.7815738026 0)
(106.0717505 -0.7958950724 0)
(105.6345383 -0.8548840963 0)
(105.7095917 -0.8407819666 0)
(105.647053 -0.8409150633 0)
(105.565571 -0.8541025928 0)
(104.9156594 -0.9006328206 0)
(105.0281552 -0.8881284852 0)
(104.9238045 -0.8856495378 0)
(104.7890255 -0.8967981656 0)
(103.1964722 -0.9212812952 0)
(103.5332134 -0.9118072869 0)
(103.2003162 -0.9058526304 0)
(102.6822669 -0.9158989415 0)
(99.26565991 -1.019950264 0)
(99.26146698 -0.99562274 0)
(99.28093853 -1.003939634 0)
(99.50260135 -1.011885271 0)
(107.1361016 -0.1237181463 0)
(107.1962701 -0.0618849583 0)
(107.1091013 -0.2448261353 0)
(107.1806648 -0.1819092336 0)
(107.0537472 -0.3608863635 0)
(107.139062 -0.3010614265 0)
(106.9409269 -0.4720956629 0)
(107.0649642 -0.4102936952 0)
(106.9725642 -0.4676134881 0)
(106.8771639 -0.5065617798 0)
(106.9266032 -0.4952163603 0)
(106.8666537 -0.5247272454 0)
(106.7220712 -0.6043802756 0)
(106.7872319 -0.5737195223 0)
(106.7642871 -0.5906136991 0)
(106.6897725 -0.6186562668 0)
(106.4855411 -0.6866765802 0)
(106.5697594 -0.6599341479 0)
(106.5208505 -0.6709033416 0)
(106.4163139 -0.7009068742 0)
(106.4271093 -0.6941390998 0)
(106.1773172 -0.7484563082 0)
(106.233989 -0.7355744095 0)
(106.1919901 -0.7391446849 0)
(106.1306464 -0.751192563 0)
(105.6831928 -0.804800722 0)
(105.7593099 -0.7930910719 0)
(105.6948345 -0.7946489204 0)
(105.6121263 -0.8054824501 0)
(104.9470966 -0.8469301137 0)
(105.0619873 -0.83689399 0)
(104.954533 -0.8360500423 0)
(104.816803 -0.8448092868 0)
(103.2121336 -0.8660645417 0)
(103.5472153 -0.8587306212 0)
(103.2161701 -0.8549150888 0)
(102.7118144 -0.8630272063 0)
(99.32586151 -0.9623958532 0)
(99.36288716 -0.9407811941 0)
(99.34061611 -0.9506574758 0)
(99.53000677 -0.9564859634 0)
(107.23018 -0.1204229305 0)
(107.3093952 -0.06017368378 0)
(107.2003592 -0.2377124009 0)
(107.2908403 -0.1772546085 0)
(107.1406438 -0.3501807802 0)
(107.2447146 -0.2928657318 0)
(107.0307631 -0.4568439613 0)
(107.1634311 -0.3990485867 0)
(107.0612086 -0.4531557109 0)
(106.9719538 -0.4860172803 0)
(107.0174131 -0.4803318579 0)
(106.956906 -0.5052385279 0)
(106.8053724 -0.5794281001 0)
(106.8722563 -0.5523270325 0)
(106.8457735 -0.5708344273 0)
(106.7685256 -0.5953320156 0)
(106.5552851 -0.6582244539 0)
(106.6418053 -0.6347504598 0)