/*--------------------------------*- C++ -*----------------------------------*\
| =========                 |                                                 |
| \\      /  F ield         | OpenFOAM: The Open Source CFD Toolbox           |
|  \\    /   O peration     | Version:  v2012                                 |
|   \\  /    A nd           | Website:  www.openfoam.com                      |
|    \\/     M anipulation  |                                                 |
\*---------------------------------------------------------------------------*/
FoamFile
{
    version     2.0;
    format      ascii;
    class       volVectorField;
    location    "2.95";
    object      U;
}
// * * * * * * * * * * * * * * * * * * * * * * * * * * * * * * * * * * * * * //

dimensions      [0 1 -1 0 0 0 0];


internalField   nonuniform List<vector> 
3019
(
(99.9987263 0.003104621579 -4.287150508e-21)
(99.99827528 0.01051404308 1.327701169e-25)
(99.99706386 0.02239118955 -4.280336831e-21)
(99.99504843 0.04167429462 -4.254673389e-21)
(99.99971976 0.03289514235 4.107914014e-21)
(99.9974879 0.05438581797 0)
(99.99615667 0.08776577809 0)
(99.99575385 0.1336162694 -7.226197495e-21)
(99.99458162 0.1940259628 8.433322859e-22)
(99.99380817 0.2670481458 -5.520044151e-21)
(99.9940408 0.3438916951 6.927976383e-22)
(99.99560176 0.4090532737 0)
(99.9885006 0.008201269583 1.717079313e-20)
(99.98341217 0.02822882699 4.289622355e-21)
(99.97205173 0.06093215529 2.99691045e-20)
(99.95273184 0.1143528195 -1.28358619e-20)
(99.95521652 0.155999857 4.138362498e-21)
(99.92569159 0.2608277245 -4.774710116e-23)
(99.88700446 0.421127248 0)
(99.86651161 0.5658981901 -7.274112672e-21)
(99.82418544 0.8311569131 -6.742496113e-21)
(99.79201798 1.161128395 -1.174798247e-20)
(99.78858627 1.520208769 -4.859276417e-21)
(99.83192084 1.83244581 -3.257446012e-21)
(99.96942754 0.01011226651 -1.713254333e-20)
(99.95505134 0.03600926221 -3.439866373e-20)
(99.92390954 0.08098323337 -7.716429631e-20)
(99.87211899 0.1565717107 1.026805492e-19)
(99.84541058 0.2446064259 -8.485972768e-21)
(99.75649146 0.4226803964 -8.2618532e-21)
(99.63684516 0.6975394226 -1.434125464e-20)
(99.57001604 0.9977001353 0)
(99.43356311 1.503891212 2.792778114e-20)
(99.32778106 2.152997846 4.408700986e-20)
(99.33120785 2.876347381 4.153359288e-20)
(99.49499387 3.552778918 6.97032979e-21)
(99.948505 0.006810535392 -8.633145838e-21)
(99.92090826 0.02747879746 6.044602113e-20)
(99.86199909 0.07216128732 -1.729406402e-20)
(99.76555045 0.1521763658 0)
(99.6889734 0.2751653792 0)
(99.51352851 0.5035005685 -6.679629449e-20)
(99.27014785 0.8686207079 -1.336814961e-19)
(99.07634528 1.313359779 3.149895773e-20)
(98.75878248 2.051781944 0)
(98.50892582 3.037266705 0)
(98.45034051 4.269764813 -3.901212841e-19)
(98.79679235 5.528039854 -4.084563522e-19)
(99.93821299 -0.003005194895 0)
(99.89516672 -0.001636296022 0)
(99.80420833 0.02665484426 8.721219699e-21)
(99.65419769 0.09169271938 1.318460519e-20)
(99.51512003 0.2313974102 2.182696112e-20)
(99.22644004 0.4741252225 0)
(98.82245179 0.8686573808 0)
(98.43267493 1.423562152 0)
(97.86292049 2.338407882 5.261759532e-19)
(97.28970386 3.709016284 0)
(96.9606663 5.637779901 6.341445027e-20)
(97.45162788 7.925765668 3.254928374e-19)
(99.95266648 -0.01980105664 0)
(99.89375992 -0.05279000742 0)
(99.77086259 -0.05963536576 -1.747731859e-20)
(99.56480276 -0.03033724241 3.559151806e-20)
(99.35217276 0.1004942549 0)
(98.94112725 0.311190891 0)
(98.34965272 0.6761489267 2.790461482e-20)
(97.7372095 1.253723448 1.810470012e-20)
(96.8038471 2.225134575 1.526356488e-19)
(95.64708644 3.849478384 1.213807825e-18)
(94.51436215 6.566994572 -2.923019665e-19)
(94.53653472 10.78782221 0)
(100.0055636 -0.04319063555 4.268013605e-21)
(99.93229298 -0.1243866985 -4.300035671e-21)
(99.78152953 -0.1841907435 8.776569721e-21)
(99.52574857 -0.2131237291 -3.212352487e-20)
(99.23457213 -0.1191633742 7.825877143e-23)
(98.71149463 0.01244196028 2.749987243e-20)
(97.94863515 0.2782203398 -4.724269014e-20)
(97.11973605 0.7614056598 6.201563759e-19)
(95.76254467 1.610181296 -1.337503013e-18)
(93.81885428 3.114053262 -3.623004941e-19)
(91.02440745 5.908243156 0)
(87.56445074 12.50626256 -2.273047813e-18)
(100.1087502 -0.07189283051 -4.268462242e-21)
(100.0244026 -0.2123226842 4.301578269e-21)
(99.85303044 -0.3388451184 -5.45993969e-21)
(99.56078848 -0.443723183 -3.673382046e-21)
(99.20178437 -0.4131342619 1.566642514e-20)
(98.5926433 -0.3994756589 9.33593586e-21)
(97.71669698 -0.3070312522 -4.85726242e-21)
(96.70676799 -0.01142525384 -8.060213755e-20)
(95.02669843 0.4893902293 -1.440910078e-18)
(92.48146464 1.333652583 7.32596084e-20)
(88.26581665 2.586440163 -9.81873964e-19)
(80.0961427 4.797127723 1.699203966e-20)
(100.270942 -0.1039093041 -2.056350622e-21)
(100.180104 -0.3104016152 -1.545133077e-21)
(99.99772187 -0.5118174634 -5.298069234e-22)
(99.68624287 -0.7030519494 1.604053285e-21)
(99.27748086 -0.7547066208 -3.078145342e-23)
(98.62350513 -0.8815854727 0)
(97.70896115 -0.995487373 4.952508005e-21)
(96.59881786 -0.9479013168 0)
(94.80663932 -0.8872815304 -3.825441677e-19)
(92.21028629 -0.8478749616 8.664858224e-19)
(88.37567534 -1.291542333 1.000454272e-18)
(83.44016786 -3.316633819 -2.216979243e-18)
(100.4965204 -0.1368232398 4.051056653e-21)
(100.4043275 -0.4111755265 6.263726807e-23)
(100.2214923 -0.68918969 0)
(99.90953662 -0.9694955801 2.079700954e-22)
(99.47331614 -1.112573685 -2.148274116e-21)
(98.81917938 -1.383507734 2.289583718e-21)
(97.9347585 -1.701235759 -2.462760918e-21)
(96.82198359 -1.895494753 1.333854181e-18)
(95.11333922 -2.215916805 0)
(92.78491523 -2.722738609 5.141860515e-20)
(89.75913594 -3.79488257 -8.885302238e-19)
(86.69563869 -5.617583748 1.16320263e-18)
(100.7850767 -0.1682878644 -1.994530694e-21)
(100.6963658 -0.5072617774 2.011936563e-21)
(100.5227017 -0.8572881199 1.961352477e-21)
(100.229423 -1.222182876 -1.835891296e-21)
(99.78560189 -1.456159865 -2.117164186e-21)
(99.17139247 -1.857454952 0)
(98.36744588 -2.351830592 7.289886941e-20)
(97.31966317 -2.750413738 -7.966295538e-20)
(95.78153826 -3.344681481 -1.436659569e-18)
(93.77193585 -4.159277695 -7.686256506e-19)
(91.27341972 -5.418996746 -2.323408548e-21)
(88.81768534 -6.926218663 0)
(101.131613 -0.1962347396 7.309445701e-21)
(101.050656 -0.5920639501 0)
(100.8935095 -1.002401599 -1.957508512e-21)
(100.6320016 -1.449380637 0)
(100.1941842 -1.760600863 0)
(99.65608314 -2.265544947 -6.28786878e-21)
(98.96537069 -2.897443387 -2.152296164e-21)
(98.02528021 -3.452375699 2.589649007e-18)
(96.6917103 -4.231323611 3.37671381e-19)
(94.97260414 -5.237252899 -7.386355136e-19)
(92.793755 -6.640047579 0)
(90.48729989 -8.140996511 -1.016473355e-20)
(82.87380997 -2.818040585 -1.152599416e-18)
(86.38030029 -5.408899756 1.636778679e-20)
(88.58963116 -6.785839518 -8.177376429e-19)
(90.27718833 -7.977376829 7.246147127e-19)
(80.52590483 6.352546019 3.362003581e-20)
(89.38330273 -3.277596654 -1.813728586e-18)
(86.73060528 -5.071927539 -2.482186331e-21)
(84.07996395 -2.8008259 1.095714942e-18)
(90.89773244 -5.06404492 1.659279738e-18)
(88.8645212 -6.543543964 0)
(87.03477643 -5.294792357 -1.837256743e-18)
(87.57181244 -6.173175118 -1.963475314e-18)
(86.70597695 -7.189854097 0)
(85.53856092 -6.646543391 -1.674630748e-18)
(92.40558501 -6.359542597 -1.48351823e-18)
(90.53888916 -7.764383047 7.050961555e-19)
(89.08806276 -6.696547894 0)
(89.45724831 -7.354510047 0)
(88.45563875 -8.047072003 0)
(87.85746327 -7.631488215 2.275584257e-18)
(90.74786398 -7.92419803 -1.419040952e-18)
(91.26603629 -8.630108223 -2.417371569e-22)
(89.72793856 -9.445522027 1.917271873e-21)
(89.13415122 -8.762062967 1.085403306e-18)
(75.86034735 -4.720015209 1.344677952e-18)
(81.2030862 -6.143458397 -2.587038094e-19)
(69.2179426 6.835381141 1.650675058e-18)
(74.79708022 -4.102369012 4.396062475e-20)
(85.37574603 -6.554065844 4.166920823e-19)
(84.16084464 -6.052749117 -8.946656661e-19)
(85.30788971 -4.681112202 -1.996631234e-18)
(83.98728222 -6.26785848 -1.138740289e-18)
(85.24499802 -6.695530379 1.279024677e-18)
(81.68485436 -6.171938763 -2.261024071e-18)
(83.78203936 -6.233611744 -1.154561553e-18)
(87.7488273 -7.579977978 -2.477385579e-18)
(86.85822943 -7.244005974 3.933496398e-19)
(87.8429171 -6.338468543 -1.275748636e-18)
(86.67647357 -7.347506747 -1.214486751e-18)
(87.61497819 -7.665354287 0)
(85.32487002 -6.750207488 -6.393185404e-19)
(86.60035622 -7.316147904 6.092277103e-19)
(89.08779277 -8.717177263 -5.444784729e-19)
(88.49174463 -8.083459231 0)
(89.66178783 -7.504408739 -5.638725748e-19)
(88.34051405 -8.112374637 0)
(88.86742699 -8.756381348 -1.105249404e-18)
(87.66703715 -7.695989414 0)
(88.30871415 -8.077267973 -1.739633257e-18)
(89.76772443 -9.49966894 -1.555248009e-18)
(91.38124772 -8.721009299 5.504057376e-19)
(89.40455798 -9.523765018 5.291488713e-19)
(88.91236466 -8.800352703 -1.109145804e-18)
(89.3761657 -9.472086746 5.264327673e-19)
(88.14471178 -0.4481592341 9.671809589e-19)
(83.61366989 -2.27663158 0)
(81.74210232 4.547093177 0)
(80.5694208 0.51431778 0)
(75.64372743 -3.096227588 1.362116099e-18)
(71.41944999 6.611733484 0)
(84.89824717 -4.402270728 -1.039885708e-18)
(83.95006549 -6.004895465 1.787903474e-18)
(81.7720765 -5.688723407 1.023359329e-18)
(81.30237518 -5.603355339 1.049706637e-18)
(76.52646131 -3.736888708 0)
(81.08562156 -0.5719035802 0)
(78.75425301 -8.846682328 7.817477317e-18)
(54.62254738 9.603182611 9.002810049e-19)
(62.51455717 -6.936133137 -1.5892296e-18)
(78.7243642 18.97010174 3.303771039e-18)
(69.65154518 9.125176406 -7.488035857e-19)
(89.47797969 -9.093574909 -5.631990714e-19)
(90.33440234 -8.823566484 6.288399901e-19)
(90.66154105 -9.099794653 -1.238430393e-18)
(74.30767125 -10.37203813 9.328240947e-19)
(78.2993072 -9.051946531 4.51564013e-18)
(78.60450568 -5.765866167 -1.171584532e-18)
(78.48589862 -8.698280272 9.828862182e-19)
(74.40699785 -9.365313953 0)
(80.76867464 -7.714304153 -1.844807827e-18)
(78.90740047 -8.541723396 -2.970246206e-18)
(79.36015851 -5.919806655 8.735024013e-19)
(70.48454266 0.5993579788 -3.014639546e-18)
(63.76332836 -5.341423542 4.707540894e-18)
(57.4288806 9.183989879 0)
(73.5432501 -9.262802872 1.765129887e-18)
(65.15892429 -6.413906349 -2.98239903e-18)
(71.47783578 -1.009329368 0)
(64.1985684 -8.018234214 0)
(73.47477962 -10.17378874 -1.833640025e-18)
(84.61417456 -6.376615576 -6.457143945e-19)
(82.83006036 -6.766412004 1.944330685e-18)
(84.6955314 -6.413454984 1.290242497e-18)
(82.77778068 -6.173188133 9.569100301e-19)
(82.04175517 -7.012968271 0)
(80.9282106 -7.609997595 1.082258566e-20)
(82.77148102 -6.759856668 0)
(82.15060185 -6.937193641 0)
(83.06458393 -6.173985426 0)
(87.16137347 -7.489236025 0)
(87.22343716 -7.516031451 0)
(85.92685276 -7.060278309 0)
(86.01364193 -7.106359863 0)
(88.60034017 -8.403320802 5.944856575e-19)
(88.63710552 -8.442724004 -5.869565666e-19)
(88.00498756 -7.860724786 -1.701996972e-18)
(88.04662231 -7.887269059 5.658902496e-19)
(90.77590609 -9.195418115 6.12744975e-19)
(89.2016843 -9.070875555 0)
(89.23297599 -9.114255656 0)
(66.71747245 26.63383934 -1.025419937e-17)
(55.11638295 12.6483947 2.147943839e-20)
(88.17312309 -7.847992862 0)
(88.74005219 -7.546771561 6.845033609e-19)
(89.03671176 -7.75111406 6.711954369e-19)
(88.31124311 -7.295021072 -6.982979953e-19)
(88.63690999 -7.482155079 -6.82376201e-19)
(88.1280933 -7.822952521 5.552003092e-19)
(89.91970792 -8.473904883 0)
(90.22968311 -8.73397297 -6.368284463e-19)
(89.44052841 -9.047917168 5.589820564e-19)
(87.40135264 -7.435042559 -7.673534087e-19)
(87.83498558 -7.04836632 4.06483213e-21)
(88.19717937 -7.233114474 -4.871871614e-21)
(87.06688312 -7.786661101 -6.905881366e-19)
(86.93857006 -7.719260756 -2.024152872e-18)
(87.45552985 -7.59937453 0)
(88.8107762 -8.409135346 0)
(89.5198082 -8.138121537 1.320520859e-18)
(89.81805526 -8.388374629 6.509215004e-19)
(89.13284669 -7.824415943 6.648695364e-19)
(89.42204954 -8.05696915 -6.595269882e-19)
(88.76997454 -8.367719135 5.652015507e-19)
(88.44063803 -8.234165728 -5.902681578e-19)
(87.40796326 -8.258500286 0)
(87.37128732 -8.10921459 0)
(86.9429316 -8.711552255 1.422468033e-18)
(86.87831512 -8.580570152 1.325097739e-18)
(88.74696192 -8.613601588 -1.363344637e-18)
(87.82113751 -7.764413597 0)
(87.24196293 -7.885251163 -1.751163196e-19)
(87.11390975 -7.812572438 -1.393583119e-18)
(87.36310714 -8.078056416 2.599962897e-18)
(87.31531521 -8.019117766 -2.543403426e-18)
(88.20676353 -7.988026226 0)
(89.05022384 -8.921146133 0)
(87.16654641 -8.878023462 0)
(86.9818109 -8.768607394 2.135565837e-18)
(87.27195798 -9.255342343 -1.785982724e-18)
(89.34539105 -9.328752169 1.404295067e-19)
(79.71257603 -8.310055094 5.779594154e-19)
(80.00215662 -8.191461216 -3.314486903e-18)
(56.19331216 0.5898055206 -1.804704432e-18)
(57.50453383 -1.817344419 5.318793395e-18)
(76.28184138 -9.82937172 4.577751837e-18)
(76.84193527 -9.598901118 4.614170547e-18)
(77.05143061 -9.112583445 1.996135245e-18)
(77.15046951 -7.283416816 -2.983333338e-18)
(78.6320983 -7.344925832 0)
(74.71966852 -6.826013312 0)
(76.59194 -7.220535312 4.036871649e-18)
(76.48585598 -9.240767084 -1.964087624e-18)
(80.19934596 -8.017176002 0)
(80.42035661 -7.175653173 5.235727108e-21)
(81.16369114 -7.026495414 0)
(79.06279493 -7.33297821 -2.720132125e-18)
(80.13073299 -7.222013383 0)
(79.90219213 -8.10726675 0)
(70.38191975 -8.80171775 0)
(71.60395106 -5.670867889 -2.636607848e-20)
(73.97699397 -6.613322622 -2.342581041e-18)
(68.7261831 -9.904140578 3.524592148e-20)
(70.13239777 -10.10088611 3.911175679e-18)
(83.17149316 -6.783833055 0)
(83.91139563 -6.624990394 -1.943427791e-19)
(84.08539895 -6.674211053 1.093763287e-20)
(83.56125503 -6.584241859 -7.890883871e-19)
(83.82969371 -6.61387393 -7.906079551e-19)
(83.08709541 -6.8024252 -1.963579893e-18)
(84.37024799 -6.842729614 4.993296588e-22)
(84.55453451 -6.999599047 0)
(84.1334483 -6.704461056 0)
(84.31122419 -6.803007028 -4.191322413e-18)
(81.63120695 -7.223026434 0)
(82.12185944 -6.791664846 1.511018405e-18)
(82.57088283 -6.68312128 0)
(81.37651315 -6.977181632 2.259725574e-18)
(81.95243125 -6.835580204 3.026867408e-18)
(81.48318162 -7.312146185 -1.955215584e-18)
(82.50782079 -6.847410265 2.909711447e-18)
(83.16456814 -6.593174511 7.784675277e-19)
(83.46917465 -6.579915011 7.856460068e-19)
(82.70269559 -6.653610812 0)
(83.05431607 -6.601596842 -7.749224895e-19)
(82.3968607 -6.860319153 -1.947565126e-18)
(86.14464299 -7.648738476 -1.351541925e-18)
(86.31090517 -7.699103463 1.370450051e-18)
(85.90582457 -7.655488295 2.588275947e-18)
(86.09628521 -7.643405342 1.337421098e-18)
(86.56388264 -7.729478577 -1.178339017e-21)
(86.67342867 -7.800152758 0)
(86.37386728 -7.710138545 2.751145649e-18)
(86.52853194 -7.719787947 -2.798488705e-18)
(84.99249317 -7.286278791 7.355751889e-19)
(85.27902854 -7.408541351 1.497995518e-18)
(84.62674579 -7.063826538 0)
(84.89685505 -7.239001958 -1.465223594e-18)
(85.73148966 -7.565699615 7.549461413e-19)
(85.86112438 -7.637062916 -2.606029773e-18)
(85.37373935 -7.443481047 -2.257553223e-18)
(85.64973093 -7.536972785 -1.527028748e-18)
(87.57161284 -8.442312412 1.397498849e-18)
(87.44254428 -8.319949954 0)
(88.47852371 -8.278106318 5.955690215e-19)
(86.53380433 -8.273800276 0)
(86.69642648 -8.382212553 -3.106078256e-18)
(86.49581783 -8.026287107 0)
(86.49320386 -8.198318557 7.702099933e-19)
(86.69326557 -8.406771691 -8.091133975e-19)
(88.72105059 -8.564913336 -1.105927295e-18)
(86.97989455 -8.541233047 3.630010009e-18)
(87.56913406 -8.477613978 -7.077245674e-19)
(87.18559438 -7.964115174 -1.351448347e-18)
(87.27478973 -7.918975145 0)
(87.86891571 -7.794005148 0)
(86.85890203 -7.929008282 1.477927606e-18)
(86.36292272 -7.935338242 1.730991075e-19)
(86.71932253 -7.828237363 2.17018831e-18)
(86.82765558 -7.901342553 -5.631061965e-19)
(86.46843929 -7.959286001 2.242705495e-18)
(86.49945904 -7.999502032 1.508697256e-18)
(86.37028975 -7.935532089 1.44853384e-18)
(86.44722818 -7.950597484 7.465853246e-19)
(88.16929819 -7.961936063 -1.140585765e-18)
(87.29189505 -8.005368164 1.258567413e-18)
(87.20545553 -7.9785211 1.856810605e-21)
(87.29233336 -8.95450073 7.195804463e-19)
(87.21354321 -8.896731419 1.563814631e-21)
(89.09291108 -8.957412717 0)
(89.32009146 -9.269481474 5.887546448e-19)
(87.25530911 -9.184498613 0)
(87.29695059 -8.981457915 -7.241665028e-19)
(86.2152698 -6.992446403 -6.067694248e-19)
(86.69668127 -6.492159616 -7.468178255e-19)
(87.15226921 -6.720443624 7.354312335e-19)
(86.06006107 -6.141765895 -7.778072037e-19)
(86.53946809 -6.408518105 7.511852688e-19)
(86.0451603 -6.913559246 8.179947722e-19)
(87.2968775 -6.790885709 -2.957545599e-21)
(87.70657264 -6.985700387 -1.425882118e-18)
(87.27477917 -7.388580175 1.940620246e-19)
(86.89681554 -7.405893954 1.579185058e-21)
(86.43471759 -7.606280936 -2.539173421e-18)
(86.22425624 -7.578859902 1.253725376e-18)
(86.15894774 -7.557512941 -1.266311711e-18)
(85.94893537 -7.486250306 -3.533238957e-19)
(86.35751465 -7.241720213 6.238501987e-19)
(79.13939027 -8.619516335 1.115270892e-18)
(75.04861673 -10.28279242 1.030520781e-18)
(73.91446204 -10.66057701 -1.801573073e-17)
(77.82751735 -9.222645215 4.589884924e-18)
(78.03767714 -8.836150113 -3.960064432e-18)
(78.14103361 -8.356318345 -1.911463958e-18)
(78.58349336 -8.25284385 -2.83565665e-18)
(80.61738325 -7.838591279 0)
(80.77243312 -7.581703722 0)
(80.97484596 -7.500146708 1.602175292e-18)
(78.99503192 -8.135072796 9.51414512e-19)
(79.36926573 -8.014046746 3.789802858e-18)
(79.28413746 -8.37285507 -3.975209305e-18)
(68.16661322 -3.093662354 3.052321292e-20)
(70.75972318 -5.080674893 -1.025697359e-20)
(69.14459866 -8.470211325 3.287190804e-20)
(65.78306244 -8.916439615 0)
(65.24896884 -11.21383414 0)
(63.27518772 -9.678127503 0)
(73.19643116 -10.80231786 0)
(72.27829743 -11.02253431 4.395682372e-18)
(72.5127861 -10.16593647 -3.862098759e-18)
(83.09764282 -6.736118899 0)
(83.45742719 -6.747875196 -6.785587382e-19)
(83.41583376 -6.765599874 -1.53285918e-18)
(83.18693049 -6.735477512 -8.697933374e-19)
(83.26865768 -6.744458211 -2.778130282e-22)
(82.90237626 -6.780638214 0)
(83.6241508 -6.980983467 8.926461358e-19)
(83.65744727 -7.056774974 -3.58521384e-18)
(83.4038298 -6.785161292 -1.644528487e-18)
(83.43666511 -6.802637773 1.735900002e-18)
(81.9038886 -7.093297883 9.723234125e-19)
(82.17070217 -7.008054239 1.669166914e-18)
(82.30558191 -6.948481622 8.348570979e-19)
(81.16963011 -7.426950469 8.009677425e-19)
(81.36337424 -7.356534389 -9.227090062e-21)
(81.11303282 -7.515734741 -3.918399673e-18)
(82.70986981 -6.775291643 9.672155381e-19)
(83.0310296 -6.748067904 -5.154003164e-18)
(83.11082231 -6.734374576 2.592621353e-18)
(82.4243137 -6.890575557 -1.680479447e-18)
(82.5256052 -6.847557538 1.687959549e-18)
(82.22998249 -6.889336413 1.943811979e-18)
(86.673265 -7.663492041 -1.303830756e-18)
(86.49450741 -7.616785305 0)
(86.96509139 -7.433016722 2.17416318e-21)
(87.40069474 -7.571833559 -1.13816258e-21)
(86.89500732 -7.705324279 1.339312029e-18)
(86.7343615 -7.676369726 -2.620574328e-18)
(85.49847095 -7.325649626 1.424193838e-18)
(85.21918151 -7.200807978 -7.03935016e-19)
(85.66333197 -6.940190206 -6.330563197e-19)
(84.31882403 -7.494838206 -1.774986412e-18)
(84.41421534 -7.528161982 1.775427296e-18)
(83.71074572 -7.15729413 -1.79652512e-18)
(83.80058016 -7.250536204 8.978449164e-19)
(84.72589309 -7.68055008 1.892837121e-17)
(84.50799907 -7.558137435 -2.660044706e-18)
(84.5996578 -7.584822945 1.768672513e-18)
(86.27390054 -7.203429976 -6.277021089e-19)
(85.86403112 -7.45814948 -7.178697819e-19)
(85.59133802 -7.361960928 -7.140420877e-19)
(87.38893219 -8.198853344 6.678495412e-19)
(87.88929603 -8.220814463 1.275430858e-18)
(87.91495976 -8.271257298 0)
(86.91063901 -8.665401164 -1.411792294e-18)
(87.94158408 -8.73936726 1.180099084e-18)
(87.97796539 -8.780141396 -2.393487063e-18)
(87.9006505 -8.649223266 8.578372642e-19)
(87.90885933 -8.698932462 -2.912866513e-18)
(86.87618477 -8.623522949 2.76823507e-18)
(87.63858322 -9.433709625 1.307086465e-18)
(87.65960771 -9.460050034 6.651420554e-19)
(87.10566298 -8.854667787 -1.425328366e-18)
(88.11588992 -8.907061902 1.225823109e-18)
(88.16580003 -8.935649174 0)
(88.01669743 -8.825711149 -1.210129104e-18)
(88.06333834 -8.870549894 0)
(87.03819789 -8.820122936 -7.151715956e-19)
(87.73518606 -9.398978076 4.565249255e-18)
(87.64229791 -9.41365622 3.1119072e-19)
(88.32743508 -9.353038507 0)
(87.88673288 -9.373058629 -6.026096924e-18)
(86.92582476 -9.284941455 0)
(79.44017787 -8.436966381 -2.255426751e-18)
(80.19023631 -8.016284703 3.053487371e-17)
(47.87838316 1.807702741 0)
(49.76792108 -1.888968599 3.017756826e-18)
(57.7266518 -10.42240194 6.441660609e-18)
(60.09148574 -11.14408874 -9.321257665e-18)
(52.35719963 -5.09503526 1.035363043e-18)
(55.06880463 -8.875721958 -7.292398361e-19)
(52.52116721 -9.765965814 -7.413614571e-18)
(75.6798555 -10.07144516 0)
(77.35140946 -9.393046334 -4.600778598e-18)
(80.2983388 -7.744920653 0)
(80.55043439 -7.667226979 -2.532332291e-18)
(80.41544024 -7.953962336 -9.059429263e-18)
(79.60823569 -8.22260388 2.003025363e-18)
(79.70374111 -7.904531138 7.079377348e-21)
(80.00870671 -7.814204731 9.473144434e-19)
(68.45104073 -11.70125252 -5.717179668e-18)
(66.97846862 -11.67948143 4.815686705e-18)
(67.26422021 -9.525089913 3.313364482e-19)
(62.36275034 -11.55264894 1.0761669e-17)
(64.30105897 -11.96552957 0)
(71.4079727 -10.16517499 -2.61190035e-18)
(71.18329985 -11.28455557 1.003027203e-17)
(69.88336027 -11.53961856 0)
(83.52390906 -6.761538952 1.083167587e-19)
(83.5913686 -6.75647984 1.761924429e-18)
(83.2287653 -6.750998623 -4.714499076e-18)
(82.98882626 -6.797957331 0)
(83.356552 -6.755533859 2.640212833e-18)
(83.44719452 -6.762471515 2.659599493e-18)
(83.56013915 -6.882013734 -1.781248582e-18)
(83.59316668 -6.924019418 -1.785207164e-18)
(83.48217216 -6.823054524 -2.645471846e-18)
(83.52338849 -6.849328113 2.662214168e-18)
(81.8857256 -7.128203049 1.668442646e-18)
(82.03036387 -7.064737498 0)
(81.7647274 -7.155460351 9.774508501e-19)
(81.30700709 -7.414960948 -1.955980863e-18)
(81.55274338 -7.281132968 1.645066932e-18)
(81.72834038 -7.202262094 -3.315353974e-18)
(82.82897517 -6.792965811 8.512318081e-19)
(82.93656798 -6.771936786 -4.144927821e-21)
(82.62101335 -6.81279354 -4.927873257e-21)
(82.30562595 -6.866971045 1.94764327e-18)
(82.62120355 -6.821694178 -8.498110514e-19)
(82.72130966 -6.806926087 1.703166646e-18)
(86.19432074 -7.663093696 3.281041194e-21)
(85.51198582 -7.655327347 -2.404613955e-18)
(85.47458878 -7.640351546 -7.991304059e-19)
(85.62800998 -7.696221879 0)
(85.5633297 -7.678091309 7.995315023e-19)
(86.24979556 -7.68186006 -1.362517465e-18)
(85.97263062 -7.657415003 -2.6228802e-18)
(85.33755522 -7.683228093 1.557656021e-18)
(85.27805678 -7.705516106 1.490726165e-18)
(85.44281501 -7.638544662 -7.950237727e-19)
(85.40005037 -7.655132425 -1.582516846e-18)
(86.04035853 -7.648858015 1.325547032e-18)
(86.59723573 -7.747314115 -7.084261556e-19)
(85.89258441 -7.708645288 0)
(85.87260916 -7.691393531 -1.018577499e-21)
(85.95220114 -7.769268317 8.118520776e-19)
(85.91731642 -7.735511418 0)
(86.63290084 -7.771611215 -7.124060841e-19)
(86.43346117 -7.715237371 6.87774657e-19)
(85.76251504 -7.701007679 -1.600215315e-18)
(85.69791059 -7.702915007 0)
(85.85020211 -7.685596848 1.603149596e-18)
(85.81467514 -7.691691395 8.780929507e-22)
(86.48572805 -7.716878267 -2.087234583e-18)
(84.12348359 -7.416570519 1.777963578e-18)
(84.22157626 -7.458342685 8.827556479e-19)
(85.08799437 -7.330281258 -2.21708183e-18)
(84.76240937 -7.40692705 -7.810339865e-19)
(84.66442823 -7.364651825 -7.76461474e-19)
(84.95778862 -7.480655042 2.935032114e-21)
(84.86051918 -7.445298057 0)
(85.18366686 -7.370975061 -1.486311406e-18)
(83.91409856 -7.316294807 -2.679013407e-18)
(84.02330762 -7.368611911 8.939422946e-19)
(84.84220172 -7.656936565 -9.295279421e-19)
(84.90735922 -7.667059879 -2.145070896e-18)
(85.81032159 -7.602830012 -1.45796069e-18)
(85.4882369 -7.665289055 2.39310795e-18)
(85.40343228 -7.632140086 -8.134809116e-19)
(85.26929427 -7.713121457 6.894068172e-18)
(85.29630601 -7.696219363 -1.523078721e-17)
(85.83186647 -7.616077762 -6.843807364e-19)
(85.46738893 -7.475983207 1.517086795e-18)
(85.14854288 -7.543787371 -3.157133331e-18)
(85.05394372 -7.513493243 1.56916242e-18)
(85.33071003 -7.601835198 0)
(85.24057414 -7.573136795 3.180876669e-18)
(85.55962587 -7.506833968 -1.528089988e-18)
(84.6876588 -7.611392481 8.868353471e-19)
(84.77463666 -7.634787346 -8.964582391e-19)
(87.53562825 -8.408839152 0)
(88.03077797 -8.411235656 0)
(88.0667352 -8.449811824 6.630131843e-19)
(87.94878284 -8.323163185 0)
(87.98951876 -8.370297242 -1.313246393e-18)
(87.49000506 -8.370297141 2.730302662e-18)
(86.5978538 -8.324713664 -1.53203103e-18)
(86.65598696 -8.357656245 -7.67712914e-19)
(86.48927991 -8.065800647 -7.594702755e-19)
(86.48312405 -8.12064479 3.057295149e-18)
(86.68033684 -8.418160235 0)
(86.31551438 -8.434383876 -2.221247507e-17)
(87.15036734 -8.508688258 6.392821302e-18)
(88.01504471 -8.548703013 -2.990804253e-18)
(87.94218742 -8.590712277 0)
(88.08475895 -8.486975079 -1.486840987e-18)
(88.09748897 -8.536238737 1.271179772e-18)
(87.57498484 -8.516016001 6.994970608e-19)
(86.53459919 -7.923534537 9.001405595e-18)
(85.82774219 -7.869560893 -2.19135217e-17)
(86.11503256 -7.867877386 -3.458724757e-18)
(86.42512453 -7.933963851 1.274813043e-18)
(86.76608201 -7.853042436 -2.194458412e-18)
(86.04649582 -7.821017451 -8.124688541e-19)
(85.99835082 -7.798892601 8.11119908e-19)
(86.10229407 -7.859473626 4.270363157e-19)
(86.08944474 -7.838853533 1.643430182e-18)
(86.81003764 -7.875883305 -1.480380574e-18)
(86.48593449 -7.969080249 -1.499676883e-18)
(86.49658948 -7.981391367 -2.255570725e-18)
(86.39898851 -7.937870215 -2.211602537e-18)
(86.42464522 -7.943186533 -1.484678984e-18)
(87.2751901 -8.933898388 1.435072518e-18)
(88.27060483 -9.012517079 -1.894605349e-18)
(88.29273191 -9.043105458 0)
(88.20789549 -8.960631654 2.484512632e-18)
(88.24237657 -8.985573531 6.282706616e-19)
(87.2487033 -8.914892569 -1.43126232e-18)
(87.27676267 -9.090000587 0)
(88.32339453 -9.190646777 0)
(88.30809739 -9.269422929 0)
(88.30823378 -9.0799938 1.287546407e-18)
(88.31646273 -9.128519957 0)
(87.28892642 -9.026137013 1.461480274e-18)
(99.66529852 0.8972332194 -1.466376512e-20)
(99.5899187 1.2199261 6.942414114e-21)
(99.86151805 0.7491565986 6.955156921e-21)
(99.5602454 1.343171724 -2.079068784e-20)
(99.50130033 1.75826421 -6.420682704e-21)
(99.83591093 1.062917022 -3.81752436e-22)
(99.48062056 1.909327502 0)
(99.47912529 2.379205774 0)
(99.83464754 1.419129171 4.858393288e-21)
(99.48374916 2.534758584 1.535995164e-19)
(99.57686689 2.97642815 3.910734776e-21)
(99.87692303 1.753128996 -1.827584884e-21)
(99.61153692 3.10495357 -6.953185366e-21)
(99.21599216 1.249535407 -1.562808125e-20)
(99.01825767 1.741130128 -1.521934248e-20)
(99.46929002 1.363553203 0)
(98.95175267 1.933107863 2.559838678e-20)
(98.78744186 2.586388253 4.462466819e-19)
(99.35086615 1.979416383 -6.703596859e-21)
(98.74794034 2.830287955 -6.32351536e-21)
(98.70138828 3.634902495 0)
(99.32113356 2.693697011 1.348459179e-19)
(98.7169689 3.918011594 3.065343705e-19)
(98.90295364 4.750874825 -3.083041361e-20)
(99.44304401 3.399692602 -3.920538859e-21)
(99.01358194 5.001063879 -2.005436063e-19)
(98.60467821 1.42032992 5.133721029e-19)
(98.22902918 2.049718711 -6.507240554e-20)
(98.83809698 1.844089847 1.517157231e-20)
(98.10530722 2.299306894 -4.65445569e-19)
(97.74346189 3.209976716 -2.532341311e-19)
(98.56038711 2.765333066 -2.271788594e-19)
(97.63568433 3.5722201 2.538741276e-19)
(97.42039167 4.837121457 0)
(98.43640764 3.945868165 3.895363106e-19)
(97.4077071 5.310620031 -5.35874855e-20)
(97.6691148 6.800345851 -7.845256067e-20)
(98.6628004 5.234632177 4.316462858e-19)
(97.88259917 7.278824329 -3.9797718e-19)
(97.90720062 1.326894883 4.451253305e-20)
(97.30272762 2.003818871 -1.419902914e-20)
(98.0087935 2.072021482 0)
(97.07687653 2.293984694 -7.387582475e-20)
(96.34660871 3.411157764 8.479952841e-19)
(97.42478901 3.316293971 1.334096815e-19)
(96.09484735 3.888540629 -5.855679765e-19)
(95.40161681 5.688482664 -5.674321548e-19)
(96.99442058 5.104596015 1.560688298e-20)
(95.2347788 6.425819953 5.696126375e-19)
(95.2308606 9.072196722 0)
(97.21166874 7.358386398 0)
(95.50869598 10.04949637 0)
(97.26018769 0.913279905 -6.962393009e-19)
(96.3614536 1.539779919 -1.462922183e-18)
(97.06103753 1.931800143 5.21367831e-19)
(96.00702817 1.815728818 9.993740476e-19)
(94.75073872 2.916906341 3.463606395e-19)
(95.95159537 3.362877193 -3.076305859e-19)
(94.26059765 3.400420209 7.320347932e-19)
(92.5703981 5.384749584 5.538839214e-19)
(94.75763915 5.755292197 1.198698837e-18)
(91.94588845 6.301059784 1.861185595e-18)
(90.21776323 10.45866478 0)
(94.28824346 9.597796705 0)
(89.90681594 12.5962336 0)
(96.78389635 0.203565474 0)
(95.63258223 0.6203049589 -1.400329788e-18)
(96.14912646 1.349734002 1.317318358e-18)
(95.16688066 0.8066075957 1.076903205e-18)
(93.44159679 1.53892547 -7.677982536e-19)
(94.37270321 2.653013757 1.792615719e-20)
(92.7262619 1.852544995 0)
(89.94231437 3.084485016 3.963518151e-20)
(91.81806529 5.016066894 7.814269427e-19)
(88.70461746 3.621336481 9.765668064e-19)
(82.11528903 5.822882394 2.260146398e-18)
(88.40811569 10.18399482 2.576712253e-18)
(84.63589749 10.84305393 2.00220148e-18)
(82.38233141 16.61800548 0)
(88.33133644 16.33411478 7.512605921e-19)
(96.5945097 -0.7044776794 8.230054324e-20)
(95.32032045 -0.5913571848 -2.674675711e-21)
(95.51111288 0.3344526165 1.402477426e-18)
(94.80898191 -0.5378841362 0)
(92.93843649 -0.3644023291 0)
(93.22855366 1.086799767 -1.206145495e-18)
(92.1747707 -0.314856852 1.060411198e-19)
(89.32512284 -0.3248967673 -2.165125636e-20)
(89.56454828 2.230400964 -9.324492685e-19)
(88.04593385 1.520100114 1.942934885e-20)
(86.52391521 1.669564551 7.323565614e-22)
(86.73503477 2.952218531 -1.02111375e-18)
(79.99665481 3.253675968 -1.267402381e-18)
(78.15016242 3.198379328 -3.610867818e-21)
(78.18099656 5.043796522 2.720909472e-18)
(96.73850845 -1.663573347 1.776127815e-19)
(95.48975746 -1.835693344 0)
(95.31796872 -0.9092781532 2.925274429e-18)