/*--------------------------------*- C++ -*----------------------------------*\
| =========                 |                                                 |
| \\      /  F ield         | OpenFOAM: The Open Source CFD Toolbox           |
|  \\    /   O peration     | Version:  v2012                                 |
|   \\  /    A nd           | Website:  www.openfoam.com                      |
|    \\/     M anipulation  |                                                 |
\*---------------------------------------------------------------------------*/
FoamFile
{
    version     2.0;
    format      ascii;
    class       pointVectorField;
    location    "0.23";
    object      pointDisplacement;
}
// * * * * * * * * * * * * * * * * * * * * * * * * * * * * * * * * * * * * * //

dimensions      [0 1 0 0 0 0 0];


internalField   nonuniform List<vector> 
6962
(
(0 0 0)
(0 0 0)
(0 0 0)
(0 0 0)
(0 0 0)
(0 0 0)
(0 0 0)
(0 0 0)
(0 0 0)
(0 0 0)
(-0.001281204662 -9.686162282e-05 5.606626274e-15)
(0 0 0)
(0 0 0)
(0 0 0)
(0 0 0)
(0 0 0)
(0 0 0)
(0 0 0)
(0 0 0)
(0 0 0)
(0 0 0)
(0 0 0)
(0 0 0)
(0 0 0)
(0 0 0)
(-0.002278371731 -0.0005558097731 9.978129434e-15)
(-0.002077046318 -0.0004189447704 9.089951014e-15)
(-0.001777484135 -0.0002838560662 7.78543896e-15)
(-0.008852659197 -0.001515590137 4.247990848e-14)
(-0.009513610272 -0.002064124813 4.563016631e-14)
(-0.01444500868 -0.003248834726 7.269185254e-14)
(-0.01363353866 -0.002413284321 6.866729407e-14)
(-0.02912826639 -0.005748854827 1.719874243e-13)
(-0.02968841539 -0.00752690374 1.750544154e-13)
(-0.03381773829 -0.008995998082 2.114558528e-13)
(-0.03334404111 -0.006883645219 2.088468287e-13)
(-0.03991771108 -0.009874516387 3.061717546e-13)
(-0.04010738005 -0.01284622218 3.068240106e-13)
(-0.04001074256 -0.013866395 3.310546282e-13)
(-0.03971883935 -0.01064154279 3.296529716e-13)
(-0.03246998648 -0.0119085207 0)
(-0.03260555108 -0.01537033683 0)
(-0.02892965189 -0.01551661843 0)
(-0.02886221558 -0.01378630058 0)
(-0.02879525532 -0.01205580245 0)
(-0.01780897575 -0.01249297907 0)
(-0.01784113347 -0.0133573953 0)
(-0.01693094074 -0.01339300784 0)
(-0.01689887315 -0.01252882963 0)
(0 0 0)
(0 0 0)
(0 0 0)
(0 0 0)
(0 0 0)
(0 0 0)
(0 0 0)
(0 0 0)
(0 0 0)
(0 0 0)
(0 0 0)
(0 0 0)
(0 0 0)
(0 0 0)
(-0.002160815864 -0.0008961006625 9.506284648e-15)
(-0.002441994487 -0.0009088374721 1.074140776e-14)
(-0.002609438097 -0.000860397515 1.147693052e-14)
(-0.01054293231 -0.003761703725 5.07649478e-14)
(-0.01020462375 -0.004115767225 4.912736884e-14)
(-0.01524387442 -0.006405617243 7.696621118e-14)
(-0.01564858533 -0.005812108161 7.903400157e-14)
(-0.03109197464 -0.01319506908 1.837002772e-13)
(-0.03060386956 -0.01472796384 1.806610417e-13)
(-0.03471142434 -0.01760135025 2.171041125e-13)
(-0.03518216056 -0.01572528131 2.202960037e-13)
(-0.0410692017 -0.02222664604 3.141098492e-13)
(-0.04078484164 -0.02503483094 3.112649027e-13)
(-0.04040355636 -0.02682429142 3.33288952e-13)
(-0.04058785285 -0.02377454256 3.356759315e-13)
(-0.03260691114 -0.02580610449 0)
(-0.03274635874 -0.0292683281 0)
(-0.02906023663 -0.02941679363 0)
(-0.02899052902 -0.02768608395 0)
(-0.02892078903 -0.02595457002 0)
(-0.01786258353 -0.02639996014 0)
(-0.01793232353 -0.02813147406 0)
(-0.01608934289 -0.02820570359 0)
(-0.0160544567 -0.02733954451 0)
(-0.0160196029 -0.02647418967 0)
(-0.01694109322 -0.0264370749 0)
(0 0 0)
(0 0 0)
(0 0 0)
(0 0 0)
(0 0 0)
(0 0 0)
(0 0 0)
(0 0 0)
(0 0 0)
(0 0 0)
(0 0 0)
(0 0 0)
(0 0 0)
(0 0 0)
(-0.000504553637 -0.0002953503178 2.220446049e-15)
(-0.0009155931902 -0.0004968697855 4.024558464e-15)
(-0.001360393744 -0.0006801581751 5.981326545e-15)
(-0.007817632992 -0.004253320983 3.766431611e-14)
(-0.006677893791 -0.003949110341 3.218258993e-14)
(-0.01089215496 -0.00673078571 5.506706202e-14)
(-0.0123242363 -0.007001488238 6.225575611e-14)
(-0.02682384897 -0.01754690958 1.583039255e-13)
(-0.02486140344 -0.01772069708 1.468131172e-13)
(-0.02893831134 -0.02175981022 1.809524752e-13)
(-0.03093805625 -0.02134365986 1.933453397e-13)
(-0.03795318591 -0.03164635311 2.886024753e-13)
(-0.03628549027 -0.03296526895 2.75932055e-13)
(-0.03673673017 -0.03599947254 3.014116734e-13)
(-0.03816100237 -0.03434250974 3.132216708e-13)
(-0.03277398086 -0.03924293248 3.558819905e-13)
(-0.03231649868 -0.04198610646 3.500116863e-13)
(-0.0293404173 -0.04291195002 3.567146578e-13)
(-0.02945929183 -0.03978212239 3.595457265e-13)
(-0.0184204387 -0.04025046305 0)
(-0.01855991869 -0.0437134909 0)
(-0.014873877 -0.04386195319 0)
(-0.01473439701 -0.04039892534 0)
(-0.01657745807 -0.04032469258 0)
(0 0 0)
(0 0 0)
(0 0 0)
(0 0 0)
(0 0 0)
(0 0 0)
(0 0 0)
(0 0 0)
(0 0 0)
(0 0 0)
(0 0 0)
(0 0 0)
(0 0 0)
(0 0 0)
(0 0 0)
(0 0 0)
(-1.23918409e-05 -8.309560906e-06 5.551115123e-17)
(-0.00296844046 -0.002179059784 1.433575481e-14)
(-0.001862829346 -0.001456235338 8.992806499e-15)
(-0.004336762929 -0.003553962258 2.201017146e-14)
(-0.005959704869 -0.004582256863 3.019806627e-14)
(-0.01745194796 -0.01557074567 1.035144193e-13)
(-0.01468993515 -0.01400272431 8.731904089e-14)
(-0.01822204998 -0.01835924467 1.147693052e-13)
(-0.02119078527 -0.01997128727 1.331296184e-13)
(-0.02909545354 -0.03315375505 2.222666495e-13)
(-0.02607566843 -0.03179782834 1.998262666e-13)
(-0.02734245552 -0.03592953929 2.259720189e-13)
(-0.03020499718 -0.03708716349 2.488287354e-13)
(-0.02861251878 -0.04624941752 3.098493684e-13)
(-0.02656332598 -0.04591331814 2.885469641e-13)
(-0.02492675674 -0.04829120772 3.031325191e-13)
(-0.02665508967 -0.04831830235 3.23213678e-13)
(-0.01805684433 -0.05191363386 3.450156827e-13)
(-0.01717240556 -0.05266581464 3.287509154e-13)
(-0.01397771513 -0.05332522499 3.321232178e-13)
(-0.01465610716 -0.05243650991 3.47610829e-13)
(0 0 0)
(0 0 0)
(0 0 0)
(0 0 0)
(0 0 0)
(0 0 0)
(0 0 0)
(0 0 0)
(0 0 0)
(0 0 0)
(0 0 0)
(0 0 0)
(0 0 0)
(0 0 0)
(0 0 0)
(0 0 0)
(0 0 0)
(-1.087908638e-05 -1.004764567e-05 5.551115123e-17)
(0 0 0)
(-0.000112034319 -0.000114352121 5.689893001e-16)
(-0.0006622505194 -0.0006429721106 3.372302437e-15)
(-0.006708498515 -0.007639450797 4.01761957e-14)
(-0.004467112514 -0.00536448398 2.681188604e-14)
(-0.006665040577 -0.008489994096 4.249378627e-14)
(-0.009312447789 -0.01123718925 5.9188765e-14)
(-0.01611415213 -0.02367526144 1.25177646e-13)
(-0.01281533755 -0.01993311424 1.001143612e-13)
(-0.01425010481 -0.02393849864 1.203204203e-13)
(-0.01757924102 -0.02787026322 1.47479251e-13)
(-0.01860891769 -0.0389127369 2.060296378e-13)
(-0.01564882527 -0.03476354142 1.748462486e-13)
(-0.01510219814 -0.0376711558 1.893901702e-13)
(-0.01782483978 -0.04180966871 2.21253571e-13)
(-0.01273863142 -0.04756076833 2.509104036e-13)
(-0.01090336511 -0.043524828 2.182976022e-13)
(-0.008867883084 -0.04443250229 2.225997164e-13)
(-0.01037826315 -0.04845088218 2.552402734e-13)
(0 0 0)
(0 0 0)
(0 0 0)
(0 0 0)
(0 0 0)
(0 0 0)
(0 0 0)
(0 0 0)
(0 0 0)
(0 0 0)
(0 0 0)
(0 0 0)
(0 0 0)
(0 0 0)
(0 0 0)
(0 0 0)
(0 0 0)
(0 0 0)
(0 0 0)
(0 0 0)
(0 0 0)
(-0.0002875086018 -0.0003979686481 1.734723476e-15)
(0 0 0)
(-0.0002089905332 -0.0003213553774 1.346145417e-15)
(-0.001036710218 -0.001527326657 6.661338148e-15)
(-0.004439765547 -0.00807057533 3.524958103e-14)
(-0.002470831679 -0.004705416466 1.970645869e-14)
(-0.003334473024 -0.006892132273 2.886579864e-14)
(-0.005509478341 -0.01085510319 4.743427873e-14)
(-0.007287874672 -0.01921370452 8.403000518e-14)
(-0.004994910669 -0.01388048868 5.818956428e-14)
(-0.005088493367 -0.01598791087 6.702971511e-14)
(-0.007274120211 -0.02163926517 9.464651285e-14)
(-0.00547665904 -0.0267190509 1.16739951e-13)
(-0.003935553647 -0.02048080054 8.58202398e-14)
(-0.003169996812 -0.02119016898 8.876233082e-14)
(-0.004419558184 -0.02751451114 1.201677646e-13)
(0 0 0)
(0 0 0)
(0 0 0)
(0 0 0)
(0 0 0)
(0 0 0)
(0 0 0)
(0 0 0)
(0 0 0)
(0 0 0)
(0 0 0)
(0 0 0)
(0 0 0)
(0 0 0)
(0 0 0)
(0 0 0)
(0 0 0)
(0 0 0)
(0 0 0)
(0 0 0)
(0 0 0)
(0 0 0)
(0 0 0)
(0 0 0)
(0 0 0)
(0 0 0)
(0 0 0)
(0 0 0)
(-3.231662804e-05 -7.570048197e-05 2.775557562e-16)
(-0.0005798536249 -0.001851543794 6.911138328e-15)
(-6.519970543e-05 -0.000216374158 7.771561172e-16)
(-0.0001424224923 -0.0005383219833 1.942890293e-15)
(-0.0007347956329 -0.002668318502 9.964251646e-15)
(-0.0007572496588 -0.004683518893 1.748601264e-14)
(-0.0002439195549 -0.001580749343 5.689893001e-15)
(-0.0002092099196 -0.001781016451 6.411537967e-15)
(-0.0006214333896 -0.005028180885 1.876276912e-14)
(0 0 0)
(0 0 0)
(0 0 0)
(0 0 0)
(0 0 0)
(0 0 0)
(0 0 0)
(0 0 0)
(0 0 0)
(0 0 0)
(0 0 0)
(0 0 0)
(0 0 0)
(0 0 0)
(0 0 0)
(0 0 0)
(0 0 0)
(0 0 0)
(0 0 0)
(0 0 0)
(0 0 0)
(0 0 0)
(0 0 0)
(0 0 0)
(0 0 0)
(0 0 0)
(0 0 0)
(0 0 0)
(0 0 0)
(0 0 0)
(0 0 0)
(0 0 0)
(0 0 0)
(0 0 0)
(0 0 0)
(0 0 0)
(0 0 0)
(0 0 0)
(0 0 0)
(0 0 0)
(0 0 0)
(0 0 0)
(0 0 0)
(0 0 0)
(0 0 0)
(0 0 0)
(0 0 0)
(0 0 0)
(0 0 0)
(0 0 0)
(0 0 0)
(0 0 0)
(0 0 0)
(0 0 0)
(0 0 0)
(0 0 0)
(0 0 0)
(0 0 0)
(0 0 0)
(0 0 0)
(0 0 0)
(0 0 0)
(0 0 0)
(0 0 0)
(0 0 0)
(0 0 0)
(0 0 0)
(0 0 0)
(0 0 0)
(0 0 0)
(0 0 0)
(0 0 0)
(0 0 0)
(0 0 0)
(0 0 0)
(0 0 0)
(0 0 0)
(0 0 0)
(0 0 0)
(0 0 0)
(0 0 0)
(0 0 0)
(0 0 0)
(0 0 0)
(0 0 0)
(0 0 0)
(0 0 0)
(0 0 0)
(0 0 0)
(0 0 0)
(0 0 0)
(0 0 0)
(0 0 0)
(0 0 0)
(0 0 0)
(0 0 0)
(0 0 0)
(0 0 0)
(0 0 0)
(0 0 0)
(0 0 0)
(0 0 0)
(0 0 0)
(0 0 0)
(0 0 0)
(0 0 0)
(0 0 0)
(0 0 0)
(0 0 0)
(0 0 0)
(0 0 0)
(0 0 0)
(0 0 0)
(0 0 0)
(0 0 0)
(0 0 0)
(0 0 0)
(0 0 0)
(0 0 0)
(0 0 0)
(0 0 0)
(0 0 0)
(0 0 0)
(0 0 0)
(0 0 0)
(0 0 0)
(0 0 0)
(0 0 0)
(0 0 0)
(0 0 0)
(0 0 0)
(0 0 0)
(0 0 0)
(0 0 0)
(0 0 0)
(0 0 0)
(0 0 0)
(0 0 0)
(0 0 0)
(0 0 0)
(0 0 0)
(0 0 0)
(0 0 0)
(0 0 0)
(0 0 0)
(0 0 0)
(0 0 0)
(0 0 0)
(0 0 0)
(0 0 0)
(0 0 0)
(0 0 0)
(0 0 0)
(0 0 0)
(0 0 0)
(0 0 0)
(0 0 0)
(0 0 0)
(0 0 0)
(0 0 0)
(0 0 0)
(0 0 0)
(0 0 0)
(0 0 0)
(0 0 0)
(0 0 0)
(0 0 0)
(0 0 0)
(0 0 0)
(0 0 0)
(0 0 0)
(0 0 0)
(0 0 0)
(0 0 0)
(0 0 0)
(0 0 0)
(0 0 0)
(0 0 0)
(0 0 0)
(0 0 0)
(0 0 0)
(0 0 0)
(0 0 0)
(0 0 0)
(0 0 0)
(0 0 0)
(0 0 0)
(0 0 0)
(0 0 0)
(0 0 0)
(0 0 0)
(0 0 0)
(0 0 0)
(0 0 0)
(0 0 0)
(0 0 0)
(0 0 0)
(0 0 0)
(0 0 0)
(0 0 0)
(0 0 0)
(0 0 0)
(0 0 0)
(0 0 0)
(0 0 0)
(0 0 0)
(0 0 0)
(0 0 0)
(0 0 0)
(0 0 0)
(0 0 0)
(0 0 0)
(0 0 0)
(0 0 0)
(0 0 0)
(0 0 0)
(0 0 0)
(0 0 0)
(0 0 0)
(0 0 0)
(0 0 0)
(0 0 0)
(0 0 0)
(0 0 0)
(0 0 0)
(0 0 0)
(0 0 0)
(0 0 0)
(0 0 0)
(0 0 0)
(0 0 0)
(0 0 0)
(0 0 0)
(0 0 0)
(0 0 0)
(0 0 0)
(0 0 0)
(0 0 0)
(0 0 0)
(0 0 0)
(0 0 0)
(0 0 0)
(0 0 0)
(0 0 0)
(0 0 0)
(0 0 0)
(0 0 0)
(0 0 0)
(0 0 0)
(0 0 0)
(0 0 0)
(0 0 0)
(0 0 0)
(0 0 0)
(0 0 0)
(0 0 0)
(0 0 0)
(0 0 0)
(0 0 0)
(0 0 0)
(0 0 0)
(0 0 0)
(0 0 0)
(0 0 0)
(0 0 0)
(0 0 0)
(0 0 0)
(0 0 0)
(0 0 0)
(0 0 0)
(0 0 0)
(0 0 0)
(0 0 0)
(0 0 0)
(0 0 0)
(0 0 0)
(0 0 0)
(0 0 0)
(0 0 0)
(0 0 0)
(0 0 0)
(0 0 0)
(0 0 0)
(0 0 0)
(0 0 0)
(0 0 0)
(0 0 0)
(0 0 0)
(0 0 0)
(0 0 0)
(0 0 0)
(0 0 0)
(0 0 0)
(0 0 0)
(0 0 0)
(0 0 0)
(0 0 0)
(0 0 0)
(0 0 0)
(0 0 0)
(0 0 0)
(0 0 0)
(0 0 0)
(0 0 0)
(0 0 0)
(0 0 0)
(0 0 0)
(0 0 0)
(0 0 0)
(0 0 0)
(0 0 0)
(0 0 0)
(0 0 0)
(0 0 0)
(0 0 0)
(0 0 0)
(0 0 0)
(0 0 0)
(0 0 0)
(0 0 0)
(0 0 0)
(0 0 0)
(0 0 0)
(0 0 0)
(0 0 0)
(0 0 0)
(0 0 0)
(0 0 0)
(0 0 0)
(0 0 0)
(0 0 0)
(0 0 0)
(0 0 0)
(0 0 0)
(0 0 0)
(0 0 0)
(0 0 0)
(0 0 0)
(0 0 0)
(0 0 0)
(0 0 0)
(0 0 0)
(0 0 0)
(0 0 0)
(0 0 0)
(0 0 0)
(0 0 0)
(0 0 0)
(0 0 0)
(0 0 0)
(0 0 0)
(0 0 0)
(0 0 0)
(0 0 0)
(0 0 0)
(0 0 0)
(0 0 0)
(0 0 0)
(0 0 0)
(0 0 0)
(0 0 0)
(0 0 0)
(0 0 0)
(0 0 0)
(0 0 0)
(0 0 0)
(0 0 0)
(0 0 0)
(0 0 0)
(0 0 0)
(0 0 0)
(0 0 0)
(0 0 0)
(0 0 0)
(0 0 0)
(0 0 0)
(0 0 0)
(0 0 0)
(0 0 0)
(0 0 0)
(0 0 0)
(0 0 0)
(0 0 0)
(0 0 0)
(0 0 0)
(0 0 0)
(0 0 0)
(0 0 0)
(0 0 0)
(0 0 0)
(0 0 0)
(0 0 0)
(0 0 0)
(0 0 0)
(0 0 0)
(0 0 0)
(0 0 0)
(0 0 0)
(0 0 0)
(0 0 0)
(0 0 0)
(0 0 0)
(0 0 0)
(0 0 0)
(0 0 0)
(0 0 0)
(0 0 0)
(0 0 0)
(0 0 0)
(0 0 0)
(0 0 0)
(0 0 0)
(0 0 0)
(0 0 0)
(0 0 0)
(0 0 0)
(0 0 0)
(0 0 0)
(0 0 0)
(0 0 0)
(0 0 0)
(0 0 0)
(0 0 0)
(0 0 0)
(0 0 0)
(0 0 0)
(0 0 0)
(0 0 0)
(0 0 0)
(0 0 0)
(0 0 0)
(0 0 0)
(0 0 0)
(0 0 0)
(0 0 0)
(0 0 0)
(0 0 0)
(0 0 0)
(0 0 0)
(0 0 0)
(0 0 0)
(0 0 0)
(0 0 0)
(0 0 0)
(0 0 0)
(0 0 0)
(0 0 0)
(0 0 0)
(0 0 0)
(0 0 0)
(0 0 0)
(0 0 0)
(0 0 0)
(0 0 0)
(0 0 0)
(0 0 0)
(0 0 0)
(0 0 0)
(0 0 0)
(0 0 0)
(0 0 0)
(0 0 0)
(0 0 0)
(0 0 0)
(0 0 0)
(0 0 0)
(0 0 0)
(0 0 0)
(0 0 0)
(0 0 0)
(0 0 0)
(0 0 0)
(0 0 0)
(0 0 0)
(0 0 0)
(0 0 0)
(0 0 0)
(0 0 0)
(0 0 0)
(0 0 0)
(0 0 0)
(0 0 0)
(0 0 0)
(0 0 0)
(0 0 0)
(0 0 0)
(0 0 0)
(0 0 0)
(0 0 0)
(0 0 0)
(0 0 0)
(0 0 0)
(0 0 0)
(0 0 0)
(0 0 0)
(0 0 0)
(0 0 0)
(0 0 0)
(0 0 0)
(0 0 0)
(0 0 0)
(0 0 0)
(0 0 0)
(0 0 0)
(0 0 0)
(0 0 0)
(0 0 0)
(0 0 0)
(0 0 0)
(0 0 0)
(0 0 0)
(0 0 0)
(0 0 0)
(0 0 0)
(0 0 0)
(0 0 0)
(0 0 0)
(0 0 0)
(0 0 0)
(0 0 0)
(0 0 0)
(0 0 0)
(0 0 0)
(0 0 0)
(0 0 0)
(0 0 0)
(0 0 0)
(0 0 0)
(0 0 0)
(0 0 0)
(0 0 0)
(0 0 0)
(0 0 0)
(0 0 0)
(0 0 0)
(0 0 0)
(0 0 0)
(0 0 0)
(0 0 0)
(0 0 0)
(0 0 0)
(0 0 0)
(0 0 0)
(0 0 0)
(0 0 0)
(0 0 0)
(0 0 0)
(0 0 0)
(0 0 0)
(0 0 0)
(0 0 0)
(0 0 0)
(0 0 0)
(0 0 0)
(0 0 0)
(0 0 0)
(0 0 0)
(0 0 0)
(0 0 0)
(0 0 0)
(0 0 0)
(0 0 0)
(0 0 0)
(0 0 0)
(0 0 0)
(0 0 0)
(0 0 0)
(0 0 0)
(0 0 0)
(0 0 0)
(0 0 0)
(0 0 0)
(0 0 0)
(0 0 0)
(0 0 0)
(0 0 0)
(0 0 0)
(0 0 0)
(0 0 0)
(0 0 0)
(0 0 0)
(0 0 0)
(0 0 0)
(0 0 0)
(0 0 0)
(0 0 0)
(0 0 0)
(0 0 0)
(0 0 0)
(0 0 0)
(0 0 0)
(0 0 0)
(0 0 0)
(0 0 0)
(0 0 0)
(0 0 0)
(0 0 0)
(0 0 0)
(0 0 0)
(0 0 0)
(0 0 0)
(0 0 0)
(0 0 0)
(0 0 0)
(0 0 0)
(0 0 0)
(0 0 0)
(0 0 0)
(0 0 0)
(0 0 0)
(0 0 0)
(0 0 0)
(0 0 0)
(0 0 0)
(0 0 0)
(0 0 0)
(0 0 0)
(0 0 0)
(0 0 0)
(0 0 0)
(0 0 0)
(0 0 0)
(0 0 0)
(0 0 0)
(0 0 0)
(0 0 0)
(0 0 0)
(0 0 0)
(0 0 0)
(-0.01686684389 -0.01166360268 0)
(-0.01777686606 -0.01162775536 0)
(-0.01690620702 -0.02557091583 0)
(-0.01782769734 -0.02553380106 0)
(-0.02872890606 -0.01032447418 0)
(-0.02866223511 -0.008593158858 0)
(-0.03233569569 -0.008446331046 0)
(-0.01774488806 -0.01076180136 0)
(-0.01956797878 -0.01068974236 0)
(-0.01963304127 -0.01242112246 0)
(-0.01755208471 -0.005568853892 0)
(-0.02885104903 -0.0242230561 0)
(-0.02905556969 -0.02253092248 0)
(-0.03273603839 -0.02237809308 0)
(-0.01779284354 -0.02466844622 0)
(-0.0196359046 -0.02459421345 0)
(-0.01970564459 -0.02632572737 0)
(-0.01969806812 -0.0141516179 0)
(-0.01787368091 -0.01422348747 0)
(-0.01807203024 -0.01941613101 0)
(-0.01716136467 -0.01945200425 0)
(-0.01712772694 -0.01858684209 0)
(-0.01803838926 -0.01855088843 0)
(-0.01077605133 -0.01970378771 0)
(-0.01073118477 -0.01927503485 0)
(-0.01120252302 -0.01925508417 0)
(-0.01123757179 -0.01968527965 0)
(-0.01047405856 -0.01278607065 0)
(-0.01096405312 -0.01276432135 0)
(-0.01098943489 -0.01319450343 0)
(-0.01050651423 -0.01321548449 0)
(-0.01650771808 -0.03859317866 0)
(-0.01835069871 -0.03851894913 0)
(-0.01045111003 -0.01235450172 0)
(-0.01094536212 -0.01233225872 0)
(-0.01758421708 -0.006434640563 0)
(-0.01667419814 -0.006470568311 0)
(-0.009990317578 -0.01280708476 0)
(-0.009958435814 -0.01237652005 0)
(-0.01049187406 -0.02669199616 0)
(-0.01045839327 -0.02581853064 0)
(-0.01091502142 -0.02580255569 0)
(-0.0113747061 -0.02578806871 0)
(-0.0114115716 -0.02665737022 0)
(-0.01127613975 -0.02011485007 0)
(-0.01082259069 -0.02013247319 0)
(-0.01810597994 -0.02028103895 0)
(-0.01719522748 -0.02031675458 0)
(-0.01042608555 -0.02014659044 0)
(-0.01037635026 -0.0197183559 0)
(-0.009572611464 -0.0267290212 0)
(-0.009544848773 -0.02585532537 0)
(-0.01000412152 -0.02583441068 0)
(-0.01003146523 -0.01323550408 0)
(-0.01032444365 -0.01929061158 0)
(-0.005863470768 -0.01665597836 0)
(-0.005392904804 -0.01667670348 0)
(-0.005359922021 -0.0162490025 0)
(-0.005826769188 -0.01622834661 0)
(-0.01077087627 -0.01622810064 0)
(-0.01119674418 -0.01621360628 0)
(-0.01121655787 -0.01664554314 0)
(-0.0107983075 -0.01665916681 0)
(-0.0143094665 -0.01609669365 0)
(-0.01434204577 -0.01696157623 0)
(-0.01344132031 -0.01699624358 0)
(-0.01340914639 -0.01613142522 0)
(-0.01444202952 -0.01955798625 0)
(-0.01354114321 -0.01959266007 0)
(-0.01352356842 -0.01916031082 0)
(-0.01350696195 -0.01872800312 0)
(-0.01440823418 -0.01869291098 0)
(-0.01417866954 -0.01263524937 0)
(-0.01421105234 -0.01349925377 0)
(-0.01330831953 -0.01353408252 0)
(-0.01327522264 -0.01267034854 0)
(-0.01337593021 -0.0152667294 0)
(-0.01427681004 -0.01523189474 0)
(-0.01073617511 -0.01579853558 0)
(-0.01117029747 -0.01578298377 0)
(-0.01046288191 -0.009309175343 0)
(-0.0109054228 -0.009292640033 0)
(-0.01092623072 -0.009725261832 0)
(-0.01048866311 -0.009741274618 0)
(-0.01404972501 -0.009171797193 0)
(-0.01408219526 -0.01003797302 0)
(-0.01317954936 -0.01007295938 0)
(-0.0131469215 -0.00920687045 0)
(-0.01324311619 -0.01180520526 0)
(-0.01414656309 -0.01177010609 0)
(-0.01395232184 -0.006577458193 0)
(-0.01304808042 -0.006612831025 0)
(-0.01311399462 -0.008341357441 0)
(-0.01401720348 -0.008306348412 0)
(-0.01043404148 -0.008877521498 0)
(-0.01088245317 -0.008860346962 0)
(-0.01002399056 -0.009325321999 0)
(-0.009987255916 -0.008894469432 0)
(-0.01005764666 -0.009756540222 0)
(-0.01447628797 -0.02042255953 0)
(-0.01357627336 -0.02045687603 0)
(-0.01355838659 -0.02002478101 0)
(-0.014390071 -0.02312595305 0)
(-0.01348478434 -0.02312737428 0)
(-0.01358059898 -0.02264027306 0)
(-0.01362111832 -0.02219229258 0)
(-0.01452244247 -0.02217048973 0)
(-0.01076197646 -0.02323333504 0)
(-0.01091196503 -0.02274107137 0)
(-0.01134140184 -0.02273118594 0)
(-0.01120247124 -0.02323379844 0)
(-0.0105352475 -0.02312767785 0)
(-0.01063420158 -0.02273252314 0)
(-0.00625042319 -0.02355448496 0)
(-0.00622606916 -0.02312401983 0)
(-0.006660989826 -0.02311608848 0)
(-0.00668561562 -0.023546301 0)
(-0.006015246697 -0.02012149145 0)
(-0.006463797666 -0.02010777512 0)
(-0.006487008344 -0.02053925294 0)
(-0.006040033449 -0.02055210026 0)
(-0.01034995908 -0.01624191227 0)
(-0.01030589207 -0.01581361054 0)
(-0.006282331983 -0.01618132082 0)
(-0.006413354982 -0.01653297741 0)
(-0.005991465236 -0.01969084216 0)
(-0.006443252128 -0.01967586774 0)
(-0.006312969112 -0.01708438356 0)
(-0.005875454235 -0.01709330549 0)
(-0.01039022721 -0.01667149477 0)
(-0.005412809188 -0.01711089219 0)
(-0.005571297059 -0.02013325028 0)
(-0.005544657665 -0.01970384384 0)
(-0.0293391966 -0.03634284932 0)
(-0.03293372299 -0.03610557804 3.588518371e-13)
(-0.01828099111 -0.03678823944 0)
(-0.02012405216 -0.03671400667 0)
(-0.02196711322 -0.03663977391 0)
(-0.02210656082 -0.04010199752 0)
(-0.01977538458 -0.0280572413 0)
(-0.01814151112 -0.0333252116 0)
(-0.01629853049 -0.03339944112 0)
(-0.01622879049 -0.0316679272 0)
(-0.01807177112 -0.03159369767 0)
(-0.01076940361 -0.03362213715 0)
(-0.01069966362 -0.03189062323 0)
(-0.01254266838 -0.03181639273 0)
(-0.01261240837 -0.03354790665 0)
(-0.01144681188 -0.02752432057 0)
(-0.01052586822 -0.02756060778 0)
(-0.01072094324 -0.0179705567 0)
(-0.01118409294 -0.01795149971 0)
(-0.01116957347 -0.01838900819 0)
(-0.01068752294 -0.0184097931 0)
(-0.01257025944 -0.01789542757 0)
(-0.01258389081 -0.01832986894 0)
(-0.01212201973 -0.01834847167 0)
(-0.01211344207 -0.01791350454 0)
(-0.01263584658 -0.01962783374 0)
(-0.01217566114 -0.01964628802 0)
(-0.01215359885 -0.01921452229 0)
(-0.0126166698 -0.01919571012 0)
(-0.009604940864 -0.02759769987 0)
(-0.008926366681 -0.03369636895 0)
(-0.008856626687 -0.03196485503 0)
(-0.01034454221 -0.007585821506 0)
(-0.009874860569 -0.007605302698 0)
(-0.009838990032 -0.007175704188 0)
(-0.0103157697 -0.007155453787 0)
(-0.01049305932 -0.01104542432 0)
(-0.0104646475 -0.0114834118 0)
(-0.009991255219 -0.01150336466 0)
(-0.0100536211 -0.011061593 0)
(-0.01084916662 -0.02372450404 0)
(-0.01025467787 -0.02383705736 0)
(-0.01407114381 -0.02395158606 0)
(-0.01314804503 -0.02398876561 0)
(-0.01321177527 -0.02358906863 0)
(-0.01417646142 -0.02654842567 0)
(-0.01325469744 -0.02658474592 0)
(-0.0132193611 -0.02571941051 0)
(-0.01414133396 -0.02568227631 0)
(-0.01265597548 -0.0200595968 0)
(-0.01219947656 -0.02007758038 0)
(-0.01271603781 -0.02135683232 0)
(-0.01227061139 -0.02137372551 0)
(-0.01224867755 -0.02094114906 0)
(-0.01269715681 -0.02092405236 0)
(-0.0109634799 -0.02142008951 0)
(-0.01091961674 -0.02099024904 0)
(-0.01135596526 -0.02097476868 0)
(-0.01139112685 -0.02140576515 0)
(-0.005599010886 -0.02056253288 0)
(-0.006179462662 -0.02270266745 0)
(-0.01058131882 -0.02143274294 0)
(-0.01053225071 -0.02100327322 0)
(-0.007916351394 -0.02179237397 0)
(-0.007881344063 -0.02136660727 0)
(-0.008309554095 -0.02133526339 0)
(-0.008449499511 -0.02167584696 0)
(-0.006804964907 -0.02684452108 0)
(-0.006770899031 -0.02597832897 0)
(-0.007694713136 -0.02593950953 0)
(-0.0077273477 -0.02680656484 0)
(-0.006749085773 -0.02396294648 0)
(-0.006312875541 -0.02397246029 0)
(-0.01062200967 -0.01450662076 0)
(-0.01017062076 -0.01452407632 0)
(-0.01012421276 -0.01409345225 0)
(-0.01058280101 -0.01407514285 0)
(-0.01022816562 -0.01845640786 0)
(-0.01018426018 -0.01809471759 0)
(-0.005782167082 -0.01485355954 0)
(-0.005653602688 -0.01450494552 0)
(-0.00569080203 -0.01540073578 0)
(-0.01251403436 -0.01616546371 0)
(-0.01253031914 -0.01659778436 0)
(-0.01208617302 -0.01661446488 0)
(-0.01206996543 -0.01618206056 0)
(-0.01210629316 -0.01748001038 0)
(-0.01255653849 -0.01746276199 0)
(-0.01077660684 -0.01752977998 0)
(-0.011208138 -0.01751449365 0)
(-0.01108005104 -0.01448833339 0)
(-0.01111083469 -0.01492063395 0)
(-0.01066079689 -0.01493803509 0)
(-0.01244280196 -0.01443489599 0)
(-0.01246083069 -0.01486851581 0)
(-0.01201203621 -0.01488578632 0)
(-0.01199175887 -0.01445233761 0)
(-0.01205153513 -0.01575047075 0)
(-0.01249696155 -0.01573357756 0)
(-0.0103741108 -0.008015754393 0)
(-0.009911856921 -0.008034453095 0)
(-0.01008855514 -0.01062294006 0)
(-0.01051058686 -0.01060860021 0)
(-0.01141418338 -0.02183821583 0)
(-0.01099436933 -0.02185101639 0)
(-0.0127294565 -0.0217899934 0)
(-0.01228548094 -0.02180690871 0)
(-0.01257532457 -0.02316118511 0)
(-0.01211755619 -0.02318365029 0)
(-0.01223001466 -0.0226937843 0)
(-0.01267985732 -0.02267453828 0)
(-0.008093499998 -0.02347904326 0)
(-0.00802087465 -0.02306929138 0)
(-0.008536559448 -0.02302838275 0)
(-0.008740596419 -0.02338604004 0)
(-0.008370925011 -0.02221678872 0)
(-0.007936734411 -0.02222404624 0)
(-0.01062764417 -0.02186111482 0)
(-0.007787469002 -0.02004906465 0)
(-0.007923939903 -0.0203947825 0)
(-0.007391629752 -0.02051111465 0)
(-0.00736042857 -0.02008124752 0)
(-0.007462185758 -0.02180808863 0)
(-0.007434381902 -0.02137897075 0)
(-0.006123641045 -0.02184452087 0)
(-0.006093917866 -0.02141394978 0)
(-0.006536672992 -0.02140433347 0)
(-0.00656315042 -0.02183551861 0)
(-0.01021628082 -0.0149547305 0)
(-0.006008673553 -0.0154518926 0)
(-0.005929167028 -0.01839329392 0)
(-0.006384344434 -0.01837769962 0)
(-0.00640259355 -0.01881139112 0)
(-0.005948188209 -0.01882695433 0)
(-0.007322283166 -0.01965576832 0)
(-0.00765031886 -0.01970168253 0)
(-0.005913645715 -0.01795892867 0)
(-0.006373200831 -0.01794122476 0)
(-0.01038497279 -0.01754023723 0)
(-0.0123716311 -0.01270585631 0)
(-0.01238779334 -0.0131371347 0)
(-0.0119317802 -0.01315517927 0)
(-0.01191369427 -0.01272413947 0)
(-0.01197139462 -0.0140187313 0)
(-0.01242396251 -0.0140011477 0)
(-0.01104901964 -0.0140558817 0)
(-0.01094718899 -0.01102761671 0)
(-0.01094000368 -0.01146321873 0)
(-0.01231025513 -0.01097400551 0)
(-0.01232440411 -0.01140729828 0)
(-0.01187023746 -0.01142518793 0)
(-0.01185841428 -0.01099164038 0)
(-0.01189692696 -0.01229183825 0)
(-0.01235422363 -0.01227366143 0)
(-0.009573705606 -0.01282418681 0)
(-0.009527192604 -0.01239775577 0)
(-0.009482508881 -0.0119903423 0)
(-0.009952856609 -0.0119423988 0)
(-0.01044646854 -0.01192026214 0)
(-0.01087119045 -0.02056091457 0)
(-0.01047890575 -0.02057421741 0)
(-0.01054372772 -0.01364462614 0)
(-0.01007714718 -0.01366390188 0)
(-0.009670676147 -0.01367898441 0)
(-0.009620289535 -0.01325117886 0)
(-0.01069578684 -0.01884437011 0)
(-0.01027393048 -0.01886466387 0)
(-0.005523554152 -0.01415228304 0)
(-0.00530565789 -0.0135539254 0)
(-0.01224691984 -0.009241508641 0)
(-0.01226379674 -0.009674530431 0)
(-0.01181548156 -0.00969170108 0)
(-0.01179828297 -0.009258692247 0)
(-0.01184586729 -0.01055812198 0)
(-0.01229538557 -0.01054082232 0)
(-0.01094963905 -0.01059244708 0)
(-0.01081125467 -0.007566621011 0)
(-0.01083479966 -0.007997199279 0)
(-0.01217881479 -0.007512587143 0)
(-0.01219562366 -0.007943920044 0)
(-0.01174450338 -0.007961445335 0)
(-0.01172673267 -0.007530231728 0)
(-0.01178052466 -0.008825786511 0)
(-0.0122298821 -0.008808493329 0)
(-0.00958820187 -0.009341102029 0)
(-0.00954395424 -0.008911115938 0)
(-0.009499220942 -0.008481471623 0)
(-0.009949540223 -0.008464059147 0)
(-0.01040412026 -0.0084462334 0)
(-0.01050698439 -0.01017415768 0)
(-0.01008306596 -0.01018865407 0)
(-0.009668720924 -0.0102020399 0)
(-0.00963094402 -0.009771309863 0)
(-0.01098638034 -0.02228866462 0)
(-0.01140655171 -0.02227673576 0)
(-0.01183923293 -0.02226140311 0)
(-0.01178244328 -0.02271342216 0)
(-0.01165820581 -0.02320883746 0)
(-0.00921421199 -0.02336503098 0)
(-0.009056544379 -0.0229258384 0)
(-0.009473170541 -0.02340808865 0)
(-0.01065630542 -0.02229632025 0)
(-0.006589698109 -0.02226484819 0)
(-0.006151827806 -0.02227394554 0)
(-0.007484881505 -0.02223878165 0)
(-0.007625298814 -0.02350088143 0)
(-0.007557520871 -0.02308908158 0)
(-0.009964714551 -0.01625460934 0)
(-0.009915619739 -0.01582747676 0)
(-0.009868044593 -0.01539907466 0)
(-0.0102613729 -0.01538468258 0)
(-0.010698992 -0.01536874828 0)
(-0.005753014118 -0.01581654584 0)
(-0.006144387346 -0.01581101287 0)
(-0.006644551028 -0.01712854386 0)
(-0.006779476906 -0.01747690166 0)
(-0.006347085642 -0.01751123333 0)
(-0.005892982781 -0.01752710657 0)
(-0.0108068236 -0.0170926059 0)
(-0.01041348625 -0.01710337342 0)
(-0.01006451409 -0.0171082458 0)
(-0.01001521554 -0.01668305471 0)
(-0.005472900892 -0.01840965705 0)
(-0.005453088658 -0.01797715626 0)
(-0.009327798393 -0.006765169579 0)
(-0.009369026909 -0.007195196717 0)
(-0.008957877132 -0.007211514889 0)
(-0.008913346457 -0.006781701306 0)
(-0.009411097973 -0.00762414272 0)
(-0.009002264276 -0.00763996484 0)
(-0.009655471416 -0.01107327933 0)
(-0.009442869334 -0.01162936631 0)
(-0.009377650242 -0.01103629794 0)
(-0.0122855087 -0.02362959791 0)
(-0.01181487259 -0.02365258136 0)
(-0.01225822286 -0.02488814137 0)
(-0.01179405078 -0.02490361463 0)
(-0.01176983593 -0.02447040506 0)
(-0.01223653353 -0.02445563563 0)
(-0.01042066905 -0.02492670866 0)
(-0.01038453056 -0.02447625751 0)
(-0.01083448177 -0.02448310655 0)
(-0.01086926603 -0.02492233471 0)
(-0.01131631293 -0.02054427529 0)
(-0.01176968182 -0.02052657887 0)
(-0.01180067759 -0.02095814591 0)
(-0.01182798684 -0.02139018364 0)
(-0.007837083806 -0.02094330765 0)
(-0.008165235665 -0.02099050605 0)
(-0.009993384466 -0.02493102975 0)
(-0.01000632053 -0.02445040821 0)
(-0.008602834753 -0.02502167489 0)
(-0.008602053029 -0.02457946614 0)
(-0.009084402587 -0.02454070569 0)
(-0.009075052978 -0.02499057234 0)
(-0.008770225525 -0.02384287545 0)
(-0.008273657373 -0.02385401475 0)
(-0.009771421552 -0.01453870485 0)
(-0.009721885085 -0.01410820679 0)
(-0.009144385086 -0.008925759372 0)
(-0.009096518518 -0.008496321809 0)
(-0.009192028144 -0.009355447598 0)
(-0.009454664798 -0.00805262571 0)
(-0.009048766441 -0.008067926834 0)
(-0.009688880653 -0.01063476836 0)
(-0.009334040942 -0.01064036039 0)
(-0.009287161455 -0.01021483021 0)
(-0.00923959882 -0.00978513874 0)
(-0.01184583205 -0.02182324698 0)
(-0.007989235269 -0.0226427446 0)
(-0.00843673772 -0.02262979548 0)
(-0.008859906211 -0.02260227958 0)
(-0.008699435536 -0.02226389212 0)
(-0.007410413458 -0.02094687902 0)
(-0.006960001025 -0.0209589787 0)
(-0.006939282691 -0.02052458111 0)
(-0.00691442501 -0.02009341128 0)
(-0.009819984898 -0.0149692421 0)
(-0.00688071445 -0.01922664097 0)
(-0.006851524185 -0.01879790116 0)
(-0.007280838921 -0.01876538503 0)
(-0.007416358595 -0.01910888568 0)
(-0.006814773121 -0.01837164082 0)
(-0.007143616175 -0.0184172003 0)
(-0.006894614452 -0.01966115208 0)
(-0.006911863644 -0.01782181736 0)
(-0.01010976012 -0.01750162026 0)
(-0.01364124954 -0.001753396074 6.872280522e-14)
(-0.008798262095 -0.001100114575 4.22301083e-14)
(-0.02889553049 -0.004068350863 1.708078123e-13)
(-0.02404557544 -0.00327336728 1.344063749e-13)
(-0.02385396019 -0.004531462443 1.332406407e-13)
(-0.03309532583 -0.00484812639 2.0758395e-13)
(-0.03966243261 -0.006906214588 3.050060204e-13)
(-0.03862412287 -0.006282133011 2.761124662e-13)
(-0.03888533337 -0.008975410759 2.773753449e-13)
(-0.03947917185 -0.007450455108 3.286398931e-13)
(-0.03567585425 -0.008237924711 3.565620021e-13)
(-0.03585242754 -0.01168123293 3.569783358e-13)
(-0.03220288168 -0.0049848069 0)
(-0.0285304666 -0.005131592602 0)
(-0.02486263565 -0.00527819367 0)
(-0.02669582732 -0.005204922289 0)
(-0.01539013634 -0.00496400874 7.750744491e-14)
(-0.01030286947 -0.003195834164 4.946043575e-14)
(-0.03087889261 -0.0113409912 1.819377982e-13)
(-0.02602963696 -0.009126630184 1.45189416e-13)
(-0.02627194228 -0.01063221498 1.469241395e-13)
(-0.02488146948 -0.006041776817 1.388056337e-13)
(-0.03500873164 -0.01352863501 2.186306691e-13)
(-0.04104551093 -0.01917396524 3.130828929e-13)
(-0.04022705842 -0.01751368634 2.856187509e-13)
(-0.04030268718 -0.02032232378 2.868955074e-13)
(-0.03916250416 -0.01169611842 2.787214903e-13)
(-0.0406141911 -0.02053302382 3.349542865e-13)
(-0.0362770278 -0.02215310687 3.584632591e-13)
(-0.0361674045 -0.02557936813 3.58602037e-13)
(-0.03603265627 -0.01513277082 3.574085472e-13)
(-0.03274394948 -0.01884251081 0)
(-0.02906645847 -0.01897927063 0)
(-0.02899773159 -0.01724691036 0)
(-0.02539362185 -0.01912558998 0)
(-0.02532531328 -0.01739361564 0)
(-0.02716091764 -0.01732024708 0)
(-0.02722946748 -0.01905221171 0)
(-0.02512469322 -0.01220259408 0)
(-0.02695925208 -0.01212926763 0)
(-0.02702596783 -0.01385969505 0)
(-0.02519100685 -0.01393303769 0)
(-0.01793890101 -0.01595478067 0)
(-0.01702847671 -0.01599064419 0)
(-0.01699597462 -0.01512567795 0)
(-0.01790623483 -0.01508974048 0)
(-0.0151808199 -0.01519677289 0)
(-0.01521331875 -0.01606165871 0)
(-0.01508356082 -0.01260001147 0)
(-0.01511570235 -0.01346402559 0)
(-0.01355374039 -0.007028294111 6.845912726e-14)
(-0.008812866935 -0.004379672686 4.243827512e-14)