/*--------------------------------*- C++ -*----------------------------------*\
| =========                 |                                                 |
| \\      /  F ield         | OpenFOAM: The Open Source CFD Toolbox           |
|  \\    /   O peration     | Version:  v2012                                 |
|   \\  /    A nd           | Website:  www.openfoam.com                      |
|    \\/     M anipulation  |                                                 |
\*---------------------------------------------------------------------------*/
FoamFile
{
    version     2.0;
    format      ascii;
    class       volScalarField;
    location    "0.38";
    object      omega;
}
// * * * * * * * * * * * * * * * * * * * * * * * * * * * * * * * * * * * * * //

dimensions      [0 0 -1 0 0 0 0];


internalField   nonuniform List<scalar> 
3019
(
31.93085093
31.93172313
31.93264735
31.93347795
31.96669214
31.96722142
31.96764174
31.96849123
31.97018657
31.97316328
31.97764227
31.98286984
31.79426194
31.79678938
31.79940469
31.80167187
31.83560286
31.83744166
31.83980185
31.85932911
31.86721726
31.88124155
31.90254017
31.92805579
31.65935365
31.66382939
31.66837035
31.67199285
31.70629234
31.70993457
31.71546255
31.73997563
31.75921825
31.79276161
31.84285313
31.90053703
31.5258598
31.53182422
31.53781125
31.54274702
31.57830787
31.58490993
31.5965064
31.63143312
31.67197754
31.74352673
31.84937787
31.97228014
31.39464504
31.40222979
31.40990779
31.41647464
31.45307728
31.46388709
31.484894
31.53679933
31.61920376
31.76695175
32.01254479
32.33281965
31.26454867
31.27345782
31.28252412
31.29099545
31.33094242
31.34871651
31.38606951
31.46459729
31.60970354
31.91925757
32.53861383
33.65180542
31.13652441
31.14715058
31.15832396
31.16950103
31.21219636
31.23945521
31.29950356
31.41602359
31.66157868
32.27279972
33.83187649
38.8776039
31.01031744
31.02236914
31.03539813
31.04968167
31.0980567
31.13740425
31.22625026
31.38442537
31.7711291
32.80252109
35.97124522
51.97736135
30.88724885
30.90134037
30.91735567
30.93604487
30.98976623
31.04352945
31.16471411
31.36910355
31.91576234
33.36125098
37.8027311
62.10691977
30.76712559
30.78285671
30.80157954
30.82524029
30.88751488
30.95754075
31.11194702
31.36652982
32.06789133
33.84278008
39.0276901
70.01678318
30.65205744
30.67027663
30.69269974
30.72315698
30.790557
30.87886582
31.06600909
31.37499352
32.22213158
34.27565089
40.15369466
79.6151414
30.54065945
30.56066746
30.58634651
30.62351584
30.6989177
30.80645135
31.02544053
31.3926791
32.37852437
34.70226327
41.46850249
91.5057429
61.40985688
68.85841348
78.38483618
90.07347888
49.90639302
38.7571017
58.93730359
54.50029603
39.89451452
66.06227422
59.72579878
73.610994
213.7616364
188.2720903
41.18594695
74.28933145
67.00343756
83.67515041
321.8563395
251.9364866
75.36451788
94.00720257
508.8696143
401.0425511
144.7064195
176.2044839
92.4272765
139.4070729
185.1038308
164.0176445
65.34686704
216.9347005
234.9716245
181.9678593
213.4167695
248.3103668
217.9350498
74.79448928
282.2723337
329.984498
237.3251865
278.7794097
396.4163059
325.4841924
85.12827462
401.6007403
509.315379
333.1293558
397.2497843
519.1232694
94.4295591
712.2533397
514.8775211
694.9514125
37.42929454
53.916822
46.70565791
57.27807999
114.9035175
81.1238862
64.64535124
161.4593866
140.0260901
136.3984852
117.9419116
58.51843257
1291.863067
198.5167501
471.9248942
56.41583878
85.00972273
440.3103849
165.5671504
173.9131235
1109.506351
1291.577485
156.8232722
796.6035386
621.4617496
1277.983799
799.250669
160.594833
115.5803477
332.7121433
162.0458576
540.3792186
361.1824594
123.1867511
497.6190167
790.2663461
220.1251052
1465.652137
220.7599943
195.7393931
1386.056735
1301.401941
1456.10889
1396.750262
200.0207833
304.0431823
307.1335009
255.0161977
257.5800971
434.4487068
441.6771499
364.3034442
368.7048169
176.9035308
555.3576536
560.4073267
95.19880385
182.4575083
293.4834163
132.1329076
137.4435338
125.5722098
130.4397659
287.461681
155.8117799
163.0987846
435.2840538
234.4861241
119.529358
124.0317394
693.7919136
678.4572891
319.8475025
356.7547153
147.1118612
153.5711211
139.2874756
145.0730903
352.05365
414.6725544
1027.505418
1016.133606
1652.596432
1601.948201
486.7760563
345.1598849
734.0725842
696.3795498
1011.145485
1002.691112
384.8344805
531.6648752
1688.621581
1660.479246
1699.147935
606.7287147
1362.056072
1296.051976
307.5263698
333.8134603
1226.012327
1242.864785
776.9351281
268.7952346
292.9155756
241.2985416
261.8853195
768.5002025
857.514269
335.360252
369.6512715
301.321767
326.5229997
863.0179183
473.021024
216.8874853
235.4183224
696.0982792
730.5813817
1516.466991
488.9360853
555.5439916
461.4614712
477.3926414
1475.207535
609.8383662
623.1017602
577.7291114
605.107939
1355.575103
402.4953732
417.6580898
378.544297
397.2029163
1343.164272
1431.297738
442.0263858
456.0926319
422.6330912
437.1967141
1425.794906
957.1296385
963.9496461
927.6117511
954.9195751
979.6517091
994.5767696
966.3612167
976.4913094
643.9193776
656.5469702
627.264896
639.5649814
701.7433858
881.9447867
662.5612311
677.3407794
1043.174893
1034.25995
419.4059729
1679.622342
1685.15242
1642.899389
1668.871895
1734.382027
475.1529179
1563.58064
1100.303126
968.617675
755.999667
349.5876679
1047.896117
1535.838423
995.6596363
1058.39804
1602.523045
1629.403047
1557.245743
1591.180782
380.7954537
999.9717293
988.3241572
1726.097188
1694.231047
536.9009674
589.6577761
1796.96328
1729.352155
202.0384386
108.6224297
112.5496659
103.6508607
107.3550824
198.4481768
113.9014912
118.0922915
230.3453668
291.7566892
639.3506169
611.4437596
588.5450911
520.2252084
268.7382813
1320.802845
1157.046046
1546.616792
1273.770865
788.84148
532.7315224
540.900507
1238.503623
754.6188622
797.2081001
546.3590136
558.3902932
815.2988592
190.7298382
211.5708015
444.9222561
567.2634951
1022.949698
730.9698996
1208.23545
1258.30863
792.7335918
1830.326253
1319.452599
1373.928921
899.3797472
902.1700728
1470.989884
1487.288093
1502.133356
1407.607452
1430.762144
1373.93451
843.7040527
848.7855275
815.6355684
822.5805556
1317.2351
1448.591221
886.9305621
891.5867498
854.2033546
859.6512808
1406.741449
656.9486848
644.1351391
294.849819
316.7362874
674.2458876
661.0797736
487.432402
474.3052154
247.2258785
1543.527394
1546.161506
1508.123495
1513.541336
1914.881621
1554.59763
1555.788985
265.8334388
508.4719615
492.7155622
1025.501801
708.9866151
712.8613595
1637.117265
1037.673085
1042.070856
1009.416183
1030.840702
1625.216245
1678.887153
1694.589666
1677.829737
1048.767654
1052.735269
1044.046984
1046.94147
1670.902322
1614.02803
1657.207141
1130.185198
1550.888436
2144.471607
1320.188822
1655.641639
488.7785535
669.9399815
1051.258352
1162.362936
699.1456789
1023.463221
1346.891407
1198.557593
1265.415203
607.8856559
682.1665797
1190.635112
814.8507609
563.2800931
587.6923023
1139.66258
1101.143463
653.5045964
1116.464772
1454.368094
736.0307093
1198.862693
1180.611093
963.315096
955.6535072
1437.744604
1482.619606
914.8535984
911.808544
1466.525356
1479.238509
1443.950176
1456.819829
835.3067262
839.8510923
1368.179384
1330.271661
826.9235244
831.022368
875.5059618
880.3894021
1438.437477
1417.690222
865.4145114
870.5038037
959.5552451
1537.975509
1527.242252
1552.959358
1545.960578
961.6227713
945.718381
1491.372236
1473.378754
1517.259752
1505.340386
951.8133626
985.108556
1599.928213
1589.526958
1615.269435
1605.176831
987.7852129
969.2524598
1566.679132
1560.523704
1583.276945
1573.739975
972.1556878
1531.949838
1536.125082
647.9891217
941.0171837
938.0864163
948.1335263
945.7400525
652.8059772
1520.695722
1525.542835
1601.088543
1516.292534
723.0440763
1006.079929
1015.797502
1437.600215
1383.50427
801.734652
665.1733867
955.7514279
954.4796629
963.7785948
967.4276074
675.5576445
1567.273378
1559.975603
1047.424963
733.6763833
735.5548282
719.6044354
722.2794632
1034.958629
1680.057738
1694.356382
1648.847082
1666.099052
1637.614959
2080.178367
1497.917367
869.3637962
958.6798096
762.2679823
785.1729419
1089.15877
1440.001604
1994.600534
1575.961828
1499.080428
1007.896552
1629.682253
1615.960505
1666.735484
1621.950609
1004.029054
1610.252447
1622.383825
1569.969537
1582.090537
1710.863853
1062.426997
1070.55418
1054.804863
1060.532885
1706.975984
1748.795586
1084.452233
1142.42208
1072.256629
1087.362079
1752.029984
31.76903335
31.78000072
31.86449642
31.78462387
31.80439788
31.87658295
31.81205606
31.84242124
31.89591741
31.85312265
31.88894394
31.92094106
31.89994293
31.65740789
31.68071797
31.75344876
31.6911625
31.73378021
31.7832098
31.75154211
31.8158846
31.82982297
31.83935051
31.91428242
31.88689239
31.93552292
31.5592652
31.60710011
31.65934962
31.62892285
31.71549665
31.72333239
31.75177403
31.89305054
31.82139544
31.9487331
32.13639395
31.9390643
32.17573869
31.48022724
31.56642494
31.5935837
31.60687363
31.78198865
31.72200039
31.86475557
32.20832646
31.94208016
32.3557184
32.93992797
32.23097858
33.07269771
31.42630659
31.56909627
31.56260925
31.64319627
31.9912163
31.81897891
32.16481006
32.98795602
32.34547474
33.4089079
35.67778982
33.25346545
36.57338326
31.39119453
31.61941259
31.5772234
31.74180638
32.34310695
32.06550006
32.66412104
34.37453849
33.2825946
35.41426543
45.21820826
36.706377
42.23784304
48.61477634
40.71286958
31.37139055
31.70160026
31.6357075
31.87848055
32.75397792
32.44122018
33.228091
35.82010315
34.76590612
36.51282741
38.52539032
37.77138797
53.96588958
61.20030341
58.39236419
31.36606569
31.80127295
31.72571277
32.02944478
33.13872914
32.85455637
33.7289165
36.86360954
36.11128601
38.14927275
40.77346458
40.31152033
62.97865946
74.66711609
73.30883248
31.37186766
31.90805227
31.82765917
32.18274061
33.48850171
33.22870313
34.16969253
37.72524414
37.07954294
39.32324091
42.36954065
41.95926778
71.21369882
93.66188469
90.82815415
31.38652251
32.01981403
31.93633931
32.33828742
33.82787783
33.57357836
34.59597775
38.61801681
37.92760813
40.50694157
44.18939229
43.61034373
80.91043942
111.0598834
107.4078032
32.04975221
33.91228607
38.84531395
41.93321352
47.81396116
45.66820718
94.00542958
135.2891994
129.9527127
72.26901375
70.95079134
60.51367187
89.84933529
86.63921436
67.71486456
106.2448858
102.8532477
77.16734764
128.2911949
123.5142859
88.23020254
75.95667598
52.25235913
43.94435667
41.85062689
51.4231393
41.58667881
41.1809335
38.45297996
56.83464274
44.45691873
45.20664286
43.40079211
44.21414388
56.25151941
43.21243311
42.74621014
39.58193912
63.25670837
46.58287847
47.59354214
45.45756259
46.28959359
62.31305015
97.59365466
94.61615484
72.41755616
209.6078497
162.2410985
164.855419
148.0526056
150.2705288
191.5596929
45.36361737
44.58834788
40.77316222
70.92514972
49.62078878
51.07267251
47.95429776
49.1924473
69.9149195
116.2870882
112.3198683
82.25546302
310.8748823
210.6834785
214.0878221
190.2066175
193.9005519
258.6927377
51.531048
52.96175767
79.41984787
142.9856056
137.1135001
94.63471321
470.5242388
285.472731
281.4101232
252.5691428
257.8772942
415.2030645
149.1043838
208.5916811
190.641313
284.6757512
265.2313563
169.7545702
99.2855285
116.6068461
106.1064953
179.5121874
171.8163983
135.0321548
176.2448213
99.02776313
102.4503811
95.33808956
98.02095595
173.2688019
66.58508997
85.25794943
78.29341653
223.1878712
371.7734954
358.5783872
452.5314996
439.4266424
228.0300554
187.0995409
304.6041956
290.3138006
354.4289337
342.3371413
208.5999051
243.1425852
184.2333215
187.4758324
167.5076897
170.200883
222.0509607
75.97608515
101.7713289
98.61091306
285.510001
350.6630581
345.831862
406.4775572
402.1139099
326.3847625
244.7570355
469.8066531
456.8758573
340.3415725
334.6692121
275.3298228
380.9837516
243.0062077
247.8849109
217.6497235
221.3588278
336.4157597
86.70427444
121.9946393
117.66391
405.8516056
520.9343726
516.3405868
699.183208
692.2097754
503.101572
336.810664
415.2584961
410.4331919
511.2705262
506.6633835
393.0812687
282.078539
145.0216694
722.6909656
1078.509313
1070.517252
520.5250401
710.0795786
704.6414917
1047.732674
994.0937812
668.0970153
39.80383466
39.20947056
36.99583887
51.63822741
41.9794703
43.10632066
39.9077575
41.55414087
50.66459715
66.15074492
63.82024651
55.73205325
103.3190354
73.64327355
78.40515491
67.08213435
71.87554893
98.06252477
77.76406932
75.65916467
63.61671834
153.0264019
90.19919145
94.30961205
86.44238615
89.15355928
150.3797937
128.3685947
83.3300669
85.71518647
79.53530957
82.57344082
125.9291505
59.63623019
69.6470712
68.00073011
232.686631
291.7417569
235.1372709
731.5301072
626.1586634
416.7289413
62.85460753
86.07615325
65.01211567
77.1825928
60.83256106
136.1990175
85.78322531
69.39265273
273.3725177
281.2835281
460.4345947
168.3522247
211.9908701
207.4960005
220.4917785
215.3160015
170.9945754
230.831398
213.9398577
153.0467698
411.4942049
447.4961585
699.9840977
164.729056
258.2697621
236.9203064
141.5974606
129.5233158
107.7431773
254.1377992
170.4426454
184.3640509
129.3379296
141.9212835
227.3118622
516.1959659
367.264257
384.436972
281.7033626
295.1818919
384.1459474
129.0194858
162.9419728
153.0019334
406.6507339
378.014717
224.6430919
225.9127725
434.907945
416.4783025
321.7699403
309.0034256
191.3710218
204.4721563
338.2857652
325.949927
374.4874797
370.6384483
300.9455992
310.3060555
382.2602174
378.3422144
306.3424044
303.0543305
252.351158
260.318795
313.0489308
309.6861824
554.1629777
548.4471769
429.0650616
450.9199411
582.9287081
567.00102
468.1731762
457.6213423
359.7954596
372.8323339
482.5716599
476.3406801
224.9285514
744.5354317
736.4188018
548.3055811
569.0788662
761.1286284
748.0114143
114.9324565
129.4429926
204.1421606
207.3918762
307.0156147
133.8702305
163.0702083
160.6599706
167.9738153
165.5046059
135.638124
127.1758156
153.7584964
151.4778655
158.2693068
155.9204945
128.7823597
261.3782499
196.5730266
200.696969
158.1900022
197.1243439
193.6669164
204.2256499
200.3597534
160.5351345
419.9043992
262.6648467
268.8169635
178.4644929
181.4350849
239.0482659
121.0073987
145.2405562
143.2028223
149.4093622
147.2597727
122.4964389
687.4623182
513.4274318
518.9339019
504.2777832
509.278203
683.6647522
323.2231382
398.2295472
394.0670396
233.5583036
238.2733803
374.7451403
149.2076482
184.3185322
181.3231493
190.5401963
187.3478942
151.3431388
141.172427
173.0824092
170.4982579
178.4807571
175.7426146
143.1002989
340.1589883
225.2193409
229.2585179
530.7826759
526.3816273
410.3815187
698.7449037
703.1960335
1018.908738
495.9656159
682.8128106
667.0879165
426.7995151
420.0545189
340.4017153
708.8715559
535.0066135
547.030369
522.8220508
529.7664721
707.122451
1008.532496
689.0600847
693.571382
679.7744528
684.2629491
1004.833666
388.8920141
501.8562589
497.2811594
720.710708
715.0365423
525.8203077
633.915395
902.3238763
815.8898561
423.9840686
333.7250311
255.9193595
308.1006947
398.7441562
388.9246285
568.2430736
463.838291
512.3904312
524.1027931
784.4458242
276.4664986
368.8815229
357.0139237
389.6271777
379.2980674
284.0799067
248.0095248
316.1845919
301.3377307
344.4769244
331.05071
254.7991491
747.0481055
477.0805499
497.7679431
346.3408583
466.3445858
441.823997
517.9917437
495.3215443
358.5482802
310.065851
407.3888771
397.9814499
427.4731423
414.4445127
317.842459
340.7546288
351.1551725
482.2360396
223.3291402
267.9661858
258.5720404
288.7692886
277.5861763
228.4953291
502.7873874
683.6626151
662.3703722
838.5626281
760.8436345
526.699896
465.6159643
625.3095527
622.1867641
638.1062285
636.000881
472.2508716
614.349043
915.9241198
912.8299086
922.7014328
918.7805288
618.694197
591.2768564
900.6509612
882.4393879
910.3379845
906.9477769
599.3763746
407.650052
564.2622845
559.0232866
574.4344053
569.2827642
412.6732819
385.6194202
541.3047987
532.2832233
553.6503748
547.9261163
391.6648161
446.6572335
605.2053263
600.4261136
615.3740001
610.9731706
451.6457964
427.5389097
584.9093971
579.7118118
595.2489574
590.2307083
432.4280445
631.3170445
928.1474905
925.5277119
934.3263187
931.4557192
635.4841355
423.8080694
540.9269498
536.7491136
641.7465216
609.1318161
462.2834177
920.7941421
617.3420894
641.071314
561.8380777
586.7095904
836.698384
355.9022519
445.8228461
435.2129995
492.5785636
487.8214946
376.8361031
997.9370766
670.1687133
675.0626597
655.5480136
664.0902101
994.6125604
543.2025856
732.0082665
725.537545
792.2566509
763.9575732
575.8126947
157.266983
159.7190882
205.7314836
109.9114337
130.0873716
128.3523138
133.671082
131.8605912
111.2193432
104.8699324
123.3567859
121.7621163
126.6520464
124.9854482
106.1046637
194.954104
152.5440251
154.8772832
115.2772869
137.3937373
135.5154203
141.2435061
139.293674
116.669941
226.1107835
172.8980965
175.6960624
359.0495413
355.0454442
288.7315102
633.5247717
458.3243111
463.5514898
444.0428151
452.0868093
625.2515446
558.899434
422.0625523
433.628855
403.5681902
411.7615708
534.468905
271.9517683
329.2492282
324.443109
198.5289149
227.3878537
215.5245021
248.9525616
238.3565863
204.5461048
423.0611858
312.7905256
325.7048849
652.7656268
477.3867209
481.8718595
468.3215217
472.9064486
648.5614087
297.864546
366.7953239
362.9693607
390.1690301
386.1364665
313.4221693
669.5618223
495.2070375
499.9297758
486.2787891
490.8105615
665.3489588
483.320378
375.4757188
379.3854949
367.5234373
371.4196336
478.5657941
249.8342881
299.7861521
296.5473265
320.2578045
316.5680468
262.9608938
503.3324301
392.2754503
397.036865
383.6115098
387.5832096
496.612745
31.90215641
31.90270561
31.96741372
31.90351244
31.90504932
31.96778
31.9061027
31.90823888
31.96921987
31.91125313
31.9152985
31.97148357
31.92051146
31.92692979
31.97523247
31.93442672
31.94244935
31.98032524
31.95070747
31.95785635
31.98525918
31.77173473
31.77234246
31.83655865
31.77343522
31.77498833
31.83846142
31.77707956
31.76691024
31.85805288
31.82870821
31.83065771
31.86068567
31.83868427
31.84240868
31.86970291
31.85645803
31.86258178
31.88532817
31.88336115
31.89159428
31.90796204
31.91552638
31.92344542
31.93309609
31.64335412
31.64473169
31.70806154
31.64720148
31.65070722
31.71231389
31.65528411
31.65224671
31.73696285
31.71176358
31.71629847
31.74383235
31.73504263
31.74362557
31.76639628
31.77597056
31.78986913
31.80438441
31.83541663
31.85415518
31.85689636
31.90491686
31.92074269
31.91442881
31.51653628
31.51926508
31.58117771
31.52378023
31.53047668
31.5899611
31.5393778
31.54838905
31.62469921
31.60664718
31.61585241
31.63928047
31.65512426
31.67315642
31.6869243
31.74209318
31.77077958
31.76838875
31.87012093
31.90908669
31.87913979
32.01510647
32.05523533
31.99548399
31.39303532
31.39789909
31.45770045
31.40573414
31.4172117
31.47269874
31.4341617
31.46089501
31.52396905
31.51631666
31.53432358
31.55239823
31.611334
31.64664696
31.64801251
31.7905121
31.85473304
31.81910905
32.09860185
32.19633958
32.08651054
32.48380717
32.61379921
32.37824812
31.27267399
31.28071349
31.33834359
31.29366492
31.3127039
31.3636221
31.3412684
31.39396078
31.44188648
31.45055151
31.48178676
31.49224851
31.61625823
31.68414647
31.66592858
31.9878162
32.13460474
32.03916554
32.77167186
33.06735768
32.76125138
34.21660495
34.8067057
33.87034209
31.15602195
31.16822836
31.22321737
31.18790145
31.21738491
31.26344604
31.26146537
31.3445837
31.37997427
31.40687828
31.4539265
31.45852365
31.68574551
31.80729546
31.76743683
32.39362857
32.70351853
32.53282886
34.31380835
35.25867976
34.53802416
31.04450611
31.06227746
31.11360303
31.09037152
31.13255879
31.17307975
31.19468155
31.30801982
31.33405284
31.37938919
31.4489167
31.4479272
31.80699403
31.99685551
31.94301078
32.94949194
33.4768692
33.27618338
30.93855209
30.9631817
31.01056841
31.00106588
31.05745355
31.09278893
31.13824248
31.2826228
31.3007471
31.36715284
31.46356483
31.45837102
31.95334425
32.2099805
32.15649227
33.48876258
34.1902238
34.02543139
30.8382548
30.87121805
30.91427574
30.9197863
30.99093999
31.02129282
31.08989119
31.26697281
31.27771124
31.36769027
31.49209737
31.48393684
32.10606123
32.42107165
32.36902485
33.95406771
34.77624412
34.63707921
30.74430579
30.78608012
30.82464748
30.84589556
30.93185321
30.95710647
31.04849895
31.25971323
31.26429972
31.3781261
31.53019409
31.52055755
32.25974876
32.62724451
32.57678272
34.38188019
35.30979529
35.17589035
30.74098287
30.89867918
31.25959163
31.39604373
31.57503158
31.56543147
32.41728167
32.83591003
32.78380624
34.81493855
35.85837803
35.71354459
54.73927841
51.40748184
47.78195587
44.29953708
47.19348618
58.18310987
52.08113613
52.56807495
49.48090995
49.92323094
55.10401826
65.12520797
56.81035608
57.54172735
53.07543718
53.61770093
60.5526517
73.06930048
62.99255599
63.87041714
58.29515976
59.05574306
67.95482686
318.2493518
268.173919
270.803678
64.72122234
65.66404804
76.79151999
496.4456144
391.6712857
397.4856179
327.1922733
330.8770492
405.7170484
182.0524635
143.7781847
145.8920702
131.6156493
133.6394611
167.3226204
280.6443916
277.4694431
232.5727302
239.8007431
286.9649867
283.7984095
391.6397122
319.9332629
323.5619932
273.3969633
276.1922733
329.0988973
403.2481709
408.5940761
526.9582344
104.8345525
53.23307639
48.51848875
49.02859261
44.04721662
44.95411904
48.18087133
111.5774529
96.00167599
98.40865909
75.09753026
79.34028284
86.42009503
158.5066402
127.8265056
129.7585221
114.495914
116.6076103
143.7128489
133.4454969
110.9212162
112.6230602
100.5310153
102.5276043
120.7753867
95.37764969
87.1563272
79.21415777
358.4599724
363.1039961
446.3460287
308.5945419
250.7479833
264.728531
151.5820603
165.2966016
182.2489209
250.4296146
243.6435506
220.1281288
222.0800974
260.2758185
255.8187448
209.403162
173.4770745
157.1024415
256.4918864
257.4820051
298.5126559
280.0552641
256.572165
256.0442141
429.8231908
350.1091523
354.540365
297.0271769
300.6804522
362.2171362
347.8758868
290.5447738
293.7728724
31.77216083
31.80110499
31.79849149
31.80743622
31.80381522
31.77554893
31.86265898
31.83288106
31.83563532
31.79059712
31.81599197
31.8111186
31.82718827
31.82083924
31.79666473
31.87333186
31.84644283
31.85131237
31.82167978
31.84126895
31.83333411
31.85815179
31.84868121
31.83099996
31.89104751
31.86884515
31.87613737
31.86597577
31.8771695
31.86668215
31.89748302
31.88645739
31.87675827
31.91517926
31.89926025
31.90772963
31.91264407
31.91543042
31.90602096
31.9227284
31.92260973
31.93932296
31.93009536
31.66391213
31.68959493
31.68405206
31.70364078
31.69595443
31.67156208
31.74807867
31.72150718
31.72794028
31.70353209
31.72252859
31.71227499
31.74746456
31.73395169
31.71755895
31.77394753
31.75291209
31.76403101
31.77031905
31.77885522
31.76207645
31.81474122
31.7953347
31.79217205
31.81597755
31.80438129
31.81998363
31.8638456
31.85638356
31.83551902
31.8968793
31.87631851
31.88900626
31.87073396
31.87146775
31.88923657
31.96055766
31.93443603
31.91617062
31.95246655
31.97710329
31.92557606
31.93390219
31.57249495
31.59366509
31.58261688
31.62230877
31.60670657
31.5883646
31.64845357
31.62677864
31.63979227
31.6536715
31.66185853
31.64070636
31.71344186
31.68542882
31.6820129
31.703978
31.69334536
31.71545081
31.79362353
31.77815181
31.7445252
31.85749162
31.81564491
31.84102933
31.79415063
31.80096163
31.83421177
32.00910667
31.94789036
31.90194759
32.03790969
31.99122827
32.07566691
31.90871511
31.94923269
31.98689338
32.24583045
32.12449354
32.09452468
32.16756728
32.27961563
32.0227676
32.0765231
31.5045112
31.51840963
31.49736952
31.57263856
31.54352898
31.53322643
31.57119245
31.55610456
31.58189744
31.65411352
31.64817632
31.60639932
31.75472209
31.69590523
31.71218707
31.68348306
31.68760056
31.73501841
31.96300146
31.90344458
31.82397923
32.09613118
31.99350448
32.07763824
31.87730714
31.92798837
32.00952367
32.52278132
32.3370933
32.21131693
32.59186848
32.45338188
32.7340618
32.15445926
32.31194712
32.41841561
33.3312638
32.87362787
32.78395246
33.01781569
33.47707152
32.45404354
32.67788403
31.4646322
31.47237358
31.43772886
31.56497442
31.51360218
31.51112385
31.524559
31.51817923
31.56291634
31.73589084
31.70615473
31.62747363
31.92302857
31.80306931
31.85015604
31.73498519
31.76658712
31.86702875
32.38220473
32.24791128
32.06921796
32.73164819
32.46561451
32.65249733
32.17997582
32.31088794
32.52102747
33.94339181
33.45704586
33.05743608
34.46817523
33.89418068
34.70032885
32.97934711
33.4621023
33.89573247
38.12665294
36.02255625
35.36048414
36.91523149
40.44906879
34.19002945
35.19736218
31.44838678
31.4506219
31.398465
31.6021621
31.51668635
31.52311266
31.5116299
31.51339635
31.58918819
31.89674164
31.8487257
31.7110802
32.24212312
32.02206905
32.09280158
31.89927936
31.95958954
32.15165881
33.0817439
32.88356856
32.52203215
33.98342256
33.35628959
33.63314693
32.86213154
33.10208208
33.61961538
36.97139135
36.05553066
34.85279128
40.68768654
37.70726746
39.42740218
35.41067081
36.69573215
38.7358771
45.29677105
44.19309285
45.88754453
31.45383349
31.45046866
31.37484079
31.67848637
31.55015057
31.56230354
31.52949358
31.53983993
31.65735403
32.10264799
32.0488036
31.84174252
32.6510055
32.31236235
32.38783321
32.16129501
32.23834188
32.54834659
33.85134727
33.66740225
33.08984289
35.49589193
34.44023347
34.68473124
33.90760622
34.18229627
35.14666052
31.47633011
31.46957929
31.36602158
31.77570401
31.60435301
31.61963347
31.57563184
31.58956117
31.75030532
32.31625959
32.26356996
31.99153321
33.04681631
32.60791651
32.67841411
32.46251478
32.53566719
32.9519168
34.49483419
34.3459395
33.6111717
36.62685963
35.31748393
35.50451257
34.91066798
35.12207913
36.38280484
31.51019192
31.50109302
31.36953586
31.88136603
31.66977401
31.68695754
31.6358294
31.65234457
31.85408832
32.52445271
32.47337745
32.14485553
33.40338081
32.88481801
32.95149832
32.74818476
32.81670307
33.31673188
35.04468924
34.91060848
34.06251855
37.50440243
36.01927033
36.18826049
35.68009521
35.85393475
37.3010014
92.72018354
82.78412642
83.55792205
81.30304413
82.05805698
91.76838795
31.55223676
31.54221753
31.38286788
31.99272069
31.74338096
31.76129141
31.70564184
31.72312925
31.96304167
32.73131251
32.68034797
32.30024471
33.74258631
33.15238636
33.21888496
33.01890301
33.08463803
33.6576026
35.57925511
35.44143568
34.48767194
38.36916193
36.68720301
36.86651393
36.35074625
36.52207728
38.15893852
109.8146711
96.02545224
97.00724437
94.16807617
95.11199856
108.6075761
31.78217407
31.80006985
32.07701977
33.2858491
33.35417369
34.00053591
37.03853958
37.23065202
39.11492643
133.4214399
114.1542451
115.6813509
111.5003767
112.8182676
131.6852898
105.0907369
92.37422108
93.28720457
90.63864526
91.5198741
103.9680118
126.6442803
108.9757413
110.280414
106.5688195
107.7793135
125.0643908
62.8705691
57.18563386
60.74918888
49.50785439
52.04547364
57.41284255
45.71285839
48.37617907
45.63788673
44.70805797
45.54794135
43.35837333
53.84985216
50.03755991
47.22504749
51.29805763
57.50299065
51.18545553
51.62702891
57.48059181
48.25452119
47.91029841
44.95009594
55.64327721
50.33770959
50.76356849
55.42926769
56.10875713
64.19566138
46.90414814
50.65309543
50.20234288
51.64219672
51.13991331
47.23137117
45.72650374
48.97710691
48.60972852
49.76929792
49.36560932
45.99579381
61.415866
54.18564755
54.79132924
96.58237977
85.81543824
86.61595034
84.28847453
85.07485899
95.59589549
61.36644057
62.1831735
72.01006272
50.08142292
55.13218209
54.51584887
56.42988051
55.77340026
50.54712517
48.34811994
52.73318429
52.18315566
53.90154504
53.31556584
48.75069607
68.91527078
59.81172655
60.58885359
114.9324235
99.96878969
101.0370021
97.95690813
98.97678438
113.6166589
263.3300225
265.7321286
314.5863599
52.10709154
57.79916671
57.10445984
59.21594007
58.50417447
52.49796307
77.85769376
66.58800296
67.57895411
141.0036137
119.4080694
120.695512
116.897391
118.4800614
139.0925084
378.8182078
386.300975
482.6415049
313.2716221
304.8473306
281.4006024
410.3458737
334.5570491
338.4755535
202.803051
183.0313306
185.1965896
180.1826025
181.4893637
196.9742631
278.4602489
227.2342046
231.9031318
216.9743772
222.5547026
272.1463561
139.6456151
141.7022379
179.1178112
100.1241701
117.2167447
115.7862688
120.2077672
118.6915976
101.2725207
96.56283168
111.7235505
110.3123107
114.3993612
113.0548747
97.14008851
169.7231933
135.548787
137.5899861
367.054031
295.5741253
299.5726252
288.9550197
292.2580068
362.5609562
448.1750238
344.3439274
348.1654721
336.7551963
340.5457835
443.8181015
230.3055265
274.2879157
271.0462574
300.100992
242.8482005
246.3246768
235.6721178
239.3665352
295.3827558
350.429461
282.4743677
285.8903619
276.0043359
279.3159216
346.3665547
100.6962743
88.96700247
89.81527833
87.36708284
88.17381687
99.6491538
293.3347851
290.1363629
242.2145827
465.5186418
359.7039095
363.5738996
351.9964588
355.8258841
461.1512017
312.4291638
316.1911681
386.5670839
332.7535449
278.8806026
281.8019115
120.5160902
104.2676613
105.4368687
102.0713193
103.1824733
119.0778195
283.5220276
326.6308908
320.4184925
122.1584001
47.34067288
47.97224542
52.5064906
49.50768491
45.84085366
46.64398235
90.38900161
93.38483696
107.6801815
75.46978583
81.38723193
78.74749225
85.71976557
83.5594876
76.90206447
75.9958038
72.53481076
69.39378954
92.23940531
83.40641701
87.08278051
123.9232926
126.026321
155.8312066
91.49057373
105.8246574
104.0579008
108.9614085
107.4434789
92.8562943
87.29760997
99.19591698
97.94539251
102.2000053
100.6045749
88.12462974
147.2115653
119.1491989
121.6408783
107.6559389
109.3051858
130.853865
84.18113125
94.48130964
93.25167736
96.77875206
95.60859916
84.89055608
80.71277579
89.21918168
87.48531567
92.04569183
90.63226676
81.60155511
123.4005239
104.3051955
106.0453343
69.23087167
74.60243682
70.90825132
67.29571915
71.24656909
112.352276
100.4229756
109.5244758
79.71143718
86.19606263
98.19933867
73.48142793
79.12703088
72.74116503
452.4434522
367.5495139
373.3238547
224.8841805
192.2347502
195.4403561
187.1674178
189.7878981
219.4923044
251.0034607
206.5550748
211.7517608
198.489434
202.5008505
243.8383569
215.2251789
232.6211937
281.970777
203.8956103
190.6544252
176.0840452
203.2101251
181.5012756
195.7777902
395.7005117
311.2457416
315.714824
302.9777765
308.1331908
385.9634171
267.7048408
264.1660527
223.8811168
429.9743487
329.0561695
332.9535178
320.4743317
324.9422846
424.1052597
317.5540888
256.3626558
259.7355179