/*--------------------------------*- C++ -*----------------------------------*\
| =========                 |                                                 |
| \\      /  F ield         | OpenFOAM: The Open Source CFD Toolbox           |
|  \\    /   O peration     | Version:  v2012                                 |
|   \\  /    A nd           | Website:  www.openfoam.com                      |
|    \\/     M anipulation  |                                                 |
\*---------------------------------------------------------------------------*/
FoamFile
{
    version     2.0;
    format      ascii;
    class       surfaceScalarField;
    location    "2.13";
    object      phi;
}
// * * * * * * * * * * * * * * * * * * * * * * * * * * * * * * * * * * * * * //

dimensions      [0 3 -1 0 0 0 0];
oriented        oriented;


internalField   nonuniform List<scalar> 
6464
(
0.4582578553
0.002031911632
-0.002064991161
0.4583433764
0.002056614804
-0.002006112514
0.4584219918
0.001914120741
-0.001799832809
0.4584683065
0.001666526338
-0.001512424906
0.4584814936
0.001365931267
-0.001217560104
0.4584892759
0.001043284161
-0.0009664412624
0.458462282
0.0008541592909
-0.0007082664438
0.4584687457
0.000589520705
-0.001572196255
0.9187101775
5.362228559e-05
-0.000541603517
-0.0009832211221
0.9187610249
4.44198201e-05
0.9158223591
0.9138444198
-0.003236703305
-0.2289832319
0.2287809795
0.003439023245
-0.00412959188
-0.2291731053
0.2291304229
0.004172274191
-0.004015702687
-0.2293118291
0.2293762992
0.003951232633
-0.003577121832
-0.2294024693
0.2295465938
0.0034329974
-0.002952675765
-0.2294256566
0.2295989367
0.002779395676
-0.002309935555
-0.2293989006
0.2295612957
0.002147540437
-0.4589031358
-0.003340205644
0.4603694366
0.00187390478
-0.0005314195887
0.4610021832
-0.001185789115
-0.4592849745
-0.001288060089
0.9183888064
0.0001741243496
0.001435306888
-0.0007864143722
0.9182593792
0.0004519847707
0.9145839599
0.9142964046
-0.22741575
0.03345598816
0.2269248971
-0.03296268019
-0.221182852
0.02803482709
0.2184478398
-0.0252789285
-0.2226228653
0.01385206046
0.2179053984
-0.009112896852
-0.2302249054
-0.005808215374
0.2295777192
0.006456381826
-0.2303604147
-0.005477042447
0.2307012683
0.005136188878
-0.003868482989
-0.2303139972
0.2310023668
0.003180113412
-0.4630454362
-0.0005899197655
0.4619522654
0.001683090628
-0.4601529612
-0.001746534337
0.4602151883
0.001684307257
0.0007152855384
0.9204408292
-0.001586729495
-0.001180578838
0.0019574158
0.9170172489
0.0009149955203
0.9156263802
0.9152114001
-0.2254971969
0.04369596082
0.2250813985
-0.04327529722
-0.211805261
0.04072774688
0.2104278419
-0.03930668771
-0.2052635112
0.03239751319
0.2019947275
-0.0290632248
-0.2128898417
0.01597330581
0.2077463523
-0.01077810272
-0.2343207829
-0.00126465581
0.2364907158
-0.0009029296758
-0.00426529795
-0.231938633
0.231985152
0.004218778973
-0.4620538937
-0.006516236958
0.4634042313
0.005165899403
-0.4610319483
-0.003827574846
0.4621384854
0.002721037803
0.003699344305
0.9207752445
-0.002124206501
-0.001909553135
0.002519095346
0.9181974979
0.001167989371
0.9169774862
0.9163793895
-0.2241499429
0.01861551148
0.2239540619
-0.01841441097
-0.2100026298
0.0208048365
0.211500994
-0.02225242244
-0.1966094272
0.02584294524
0.19666011
-0.02580005114
-0.2067311429
0.03320519212
0.1978824822
-0.02425285527
-0.214354726
0.008443086631
0.2097699411
-0.003800607046
-0.00619273355
-0.2335075408
0.2341207876
0.005579486773
-0.4652295443
-0.007668362282
0.4670033611
0.00589454546
-0.4632132508
-0.004577132997
0.4643331412
0.003457242574
0.004557947271
0.9231011713
-0.003821228481
-0.003062645578
0.002546268436
0.9202091767
0.001161990363
0.9183617643
0.9175413799
-0.2230876337
-0.02934750834
0.2228343674
0.02960190697
-0.2233494298
-0.01741374866
0.2280427228
0.01274975069
-0.2091926256
0.007731506378
0.2111535205
-0.009597869227
-0.1902169542
0.01175254788
0.1904504246
-0.01185492095
-0.1994928786
0.008070880487
0.1973508251
-0.005822151981
-0.003156539743
-0.2323856941
0.2304010193
0.005155463548
-0.4686092609
-0.007999533326
0.4702536948
0.00635509942
-0.4650692
-0.005126085226
0.4657648236
0.004430461576
0.003892090821
0.9258353811
-0.003205022437
-0.003421278141
0.002158666484
0.921942601
0.0009148329015
0.9196055978
0.9184562128
-0.02636042274
-0.1087999479
0.1082089544
0.02695141618
-0.02145307905
-0.248406633
0.04085334957
-0.02186883938
0.1250072385
0.1258679633
-0.02236048591
-0.2231609146
0.2293076391
0.01627694271
-0.1950627125
-0.005311660596
0.1993002321
0.001212638039
-0.195393626
0.004344320824
0.1948105108
-0.003623510685
-0.0005022310008
-0.2221539027
0.2204513426
0.00225787366
-0.4719120045
-0.006903725834
0.4730332179
0.005782512426
-0.4668993053
-0.004420998096
0.4680111687
0.003309134682
0.002395126653
0.9278287928
-0.002048547198
-0.002339991175
0.001179767233
0.9231579605
0.0004631773373
0.9203221877
0.9189193901
-0.02891414456
-0.1373916464
0.1401086372
0.02619715378
-0.0283794767
-0.2490987254
0.2544816643
0.02303082008
-0.2066846187
-0.01251372426
0.2091261686
0.0102081629
-0.196100343
-0.005575177716
0.197235068
0.004594083876
0.0002668639562
-0.2183266832
0.2177063327
0.0004323708677
-0.4744937775
-0.004225369198
0.4756853755
0.003033771176
-0.4688923454
-0.002202939851
0.4696185716
0.001476713657
-3.442978098e-05
0.9287937324
-0.0001364174724
-0.0007940923869
-0.0002959269053
0.9234194576
-0.0002150260497
0.9202412869
0.918704364
-0.01293239953
-0.1531018549
0.1537341028
0.01230015159
-0.01583091216
-0.2667939984
0.2690441303
0.01360092188
-0.2166715742
-0.007750180198
0.2184562017
0.006102578678
-0.2005942865
-0.002147639933
0.2016163961
0.001293134621
6.915526916e-05
-0.2180288619
0.2181438478
-9.286580307e-05
-0.4770396924
-0.000358184787
0.4780670483
-0.0006691711098
-0.4699778037
0.001133730074
0.4701479783
-0.001303904746
-0.002953724662
0.9281763454
0.002091959535
0.001479152115
-0.002095869428
0.9225616023
-0.001092446069
0.9192378635
0.917611918
0.004554449358
-0.1518357743
0.1509272138
-0.00364588889
0.001105142516
-0.2690687649
0.267533808
0.0004522414731
-0.2205774905
-0.002124656655
0.2208236726
0.002021306084
-0.204472831
-0.0007664530336
0.2052279713
0.0001843732358
0.001414856035
-0.2199924364
0.2205022928
-0.001831426199
-0.4780015004
0.004884010176
0.4773616511
-0.004244160926
-0.4698924749
0.003983284462
0.4701003993
-0.004191208894
-0.006169938078
0.9259144153
0.004593353281
0.003838514877
-0.004038836997
0.9204305013
-0.002036705854
0.9172357324
0.9155752121
0.01420867541
-0.1427674466
0.1414671919
-0.01290842078
0.01290678343
-0.2592095457
0.2553420056
-0.008999220688
-0.2189433703
0.0007996147406
0.220214672
-0.001919704068
-0.2070760831
0.00200042518
0.2076732615
-0.002421273019
0.004113248156
-0.2232644227
0.2238842156
-0.004648008948
-0.4762783049
0.009788780239
0.4748100822
-0.008320557536
-0.4701100296
0.007037690965
0.4689611994
-0.005888860763
-0.009129268729
0.9222817054
0.006652556656
0.00610942204
-0.005904750775
0.9172059833
-0.002898062936
0.9142290446
0.9126771492
0.01766198571
-0.1326376613
0.131363017
-0.01638734138
0.01775154311
-0.2441164294
0.2402490408
-0.01381485711
-0.2172423736
0.008784170871
0.2133922022
-0.004764479027
-0.208830862
0.00203834629
0.2089630482
-0.001999457642
0.006313003589
-0.2263198567
0.2270405169
-0.006966394107
-0.4730290142
0.01370159471
-0.01164361613
-0.4677074003
0.009868783837
-0.008351886112
-0.01171109957
0.007130775728
-0.007507291153
-0.003640877289
0.1561239487
0.01547160571
-0.1551704197
-0.007941086423
-0.008484048356
-0.1382840628
-0.03208097916
0.1414508974
0.1539971617
-0.00273413541
-0.1549805765
0.002041540585
0.00167600963
0.1567172026
-0.006505251991
-0.007020401415
0.1438791092
-0.01348896268
-0.1452517037
0.007500608269
0.007360948974
0.1529345846
0.002988602223
0.002628424233
0.133082013
-0.01743395142
-0.1343352778
0.01868721621
0.01559631686
0.1424914677
0.01915658377
0.1315874149
-0.1055810767
0.1042948679
0.02918690711
-0.1349485737
-0.03252239625
-0.1222995737
-0.02297079113
0.1238172857
0.04157214608
0.009012328107
-0.04125327461
-0.009331199575
0.02381948539
-0.0697184416
-0.02591629647
0.07181525268
0.01456147847
-0.1521917276
0.2791634466
0.02002206142
-0.2765350897
-0.02264997693
-0.2622956824
-0.03404022861
0.2679623711
0.04797425923
0.000791211299
-0.04805994106
-0.0007055294654
-0.04472470711
0.003465293321
-0.00286849239
0.04412790618
-0.001959650446
-0.1526102592
0.2806610925
0.002945272376
-0.2815218739
-0.002084400633
-0.01752665219
0.2808593426
0.03879467975
-0.004241084576
-0.03914371388
0.004590118711
-0.0417977649
-0.001693316132
0.001240203967
0.04225087706
-0.01218977604
-0.1440666332
0.2709230901
-0.01056027763
-0.2742335972
0.01387427162
0.002630963699
0.2791355716
0.07001879313
-0.01104133943
-0.07050718401
0.01152973031
-0.07364584159
-0.01012068067
0.07319156877
0.00535859652
0.005216356965
0.008158703202
0.03076066228
-0.00785179184
-0.03106757364
0.06364866283
-0.01146475394
-0.06407798982
0.01189408093
-0.06674569377
-0.01166707645
0.0120330878
0.06637968242
0.004013597061
-0.0450780529
-0.003660251276
0.008659127242
-0.0088772029
0.04179022173
-0.1500379217
0.02273054408
0.1521476209
-0.01219617123
-0.01264407203
-0.08132540384
-0.008283245304
0.0820722153
0.01619556109
0.04358453465
0.004166130582
-0.04373706817
-0.001511836187
-0.04132997763
0.001044048924
0.0001420257946
-2.540366698e-06
0.0478347738
-0.07803289302
0.001888812116
-0.001863117427
0.07800719834
-0.04659081866
0.04641101522
0.0003218292371
0.04121729396
-0.001749407015
-0.04097972313
0.04327533216
0.003774495814
0.0007936859054
-0.04659329327
0.002587249989
-0.07815181804
-0.00246832496
-0.009930081322
-0.07412905203
0.00522673297
0.005186558799
-0.004111675782
0.004286859139
0.03861949639
-0.1492892904
-0.01038195946
0.1479507161
0.005976816878
0.005743716904
-0.0771856124
0.004096783606
0.07667897309
-0.007701820071
0.07343863317
-0.009483260486
-0.07388545401
0.04143936522
-0.001915387401
0.004084702402
-0.007431300271
-0.0391601547
-0.03891994441
-0.009171856551
-0.1505089828
0.005312942098
0.005078606846
-0.01157651342
-0.06719286481
0.01202368446
-0.01127798258
0.0116634501
0.0696333256
-0.02946935121
-0.007485680283
0.007063133104
-0.0298497897
0.008539141693
0.01171486116
-0.007456300866
0.03017794296
0.01259953227
-0.04279196809
1.449286015e-05
0.01871684753
-0.03514402158
-0.02065271672
0.03707989077
0.04539424189
-0.007701583768
-0.03752560718
-0.0001670509428
-0.01624803505
-0.1338235777
0.2539867671
-0.01722340448
-0.2586688791
0.02192904115
0.01667446137
0.2671618743
0.03899731751
-0.007464171989
-0.03134229398
-0.0001908515389
0.06471695674
-0.01328119388
-0.0652939923
0.006961197866
0.006897031582
-0.033253571
-0.006641115095
0.006731076138
0.03316360996
-0.06977043551
0.0714704402
0.0221194807
-0.009284360933
0.0173021227
-0.0803308375
0.02481572863
-0.1474794791
-0.01351832736
-0.01385584391
-0.006687467191
-0.0333946584
0.006828554586
-0.03535093291
-0.006852616391
0.007301414199
0.0349021351
-0.1384138929
-0.01656856873
0.01794616357
0.137036298
-0.07005021126
0.06958540608
-0.01081317739
0.06677562376
-0.01115518404
-0.06719695314
0.07301180081
-0.009693848298
-0.01067203532
-0.07041951537
-0.01610659529
-0.1397937723
0.01748647475
0.01853509487
-0.05233309198
-0.01730408878
0.05110208588
0.02371874958
-0.06774168991
-0.02569550126
0.03511158322
-0.1213635262
-0.01817276747
-0.01948020738
0.06135509394
0.06254982388
-0.05591711802
0.05495680202
0.01949541086
0.03053257299
-0.0003546300223
-0.0776443061
0.02163689659
0.07943887857
-0.01160101844
-0.01183045062
-0.04113853578
0.05611236895
0.01555873982
-0.03498748131
0.03654491534
0.0171594135
0.01436339426
-0.04290239778
0.02254125018
-0.07580271559
-0.01209226522
-0.01229057547
-0.04037154051
0.002523109653
-0.002517470395
0.04036590125
0.002210969033
-0.04067180379
-0.001910705757
-0.0394208848
-0.003219881669
0.003129388754
0.03951137772
-0.003452957458
-0.03972034196
0.003752414615
-0.006162903871
0.03629182664
-0.03535229483
0.005223372061
-0.009684331862
0.02208921195
0.03298936181
-0.07180963657
-0.01075914076
0.01113815035
0.07143062699
-0.03817253781
0.03631959655
-0.007831390605
0.03623735719
-0.006370197778
-0.03603006328
-0.03409749652
0.03813272336
-0.003808264288
-0.0002269625446
-0.006871992427
-0.03900212915
-0.01060221556
-0.07222817997
0.005544454437
0.005476304523
0.06279679664
-0.01299753473
-0.06328886262
0.01348960071
-0.01324818467
0.06418533521
0.006898626995
0.006881179203
0.01910027006
0.02896944395
-0.009072396502
-0.04293533953
0.006054768174
-0.005846467642
0.042727039
0.006461245145
-0.0429578785
-0.006438706174
-0.03907462184
-0.0009814284018
0.0008680025914
0.03918804765
-0.0013315447
-0.03924773926
0.001504662125
0.03992399066
-0.001056690859
-0.0401988445
0.08012477638
-0.0004333014574
-0.08039540732
0.0007039324039
-0.08104501837
0.001486995912
-0.001313558028
0.08087158049
0.0789748765
-0.002665553789
-0.07928449056
0.002975167857
-0.001022596036
0.001292163687
0.07985520873
0.03991350943
-0.0009709471749
0.04109330865
0.002347524798
-0.04122986442
0.08132509325
0.005078287978
-0.08133346721
-0.005069914021
-0.08111384904
0.007418774588
-0.007543834862
0.08123890932
0.002172022306
-0.08118189905
-0.002035141621
0.004334139149
-0.004314144542
0.08130509865
0.04122116941
0.002395248901
-0.03787457492
-0.004643355234
0.004820312512
0.03769761764
-0.001879362833
-0.03215032477
-6.780891686e-05
-0.004669592477
-0.03809272334
0.0048877409
0.006155468451
0.03640036868
-0.00631847994
0.006944720837
0.03483532161
-0.006636959041
-0.03514308341
0.06838412131
-0.01144667356
-0.06880095279
0.01186350504
-0.03584374789
0.007437535812
0.005491595891
0.0369556992
0.01932505958
-0.0002247895237
-0.01291485271
0.01326382201
0.03441125553
-0.03758401702
0.003172761496
0.03442370883
-0.007009547017
-0.0345023247
0.007088162889
-0.03210704816
-0.006976417922
0.006654870745
0.03242859534
-0.003738705824
-0.01292547156
0.01407609483
0.002588082569
-0.007687564881
-0.03308595462
0.008666471339
-0.03034411092
-0.007704883375
0.006452307625
0.03159668667
0.02428480119
-0.04807791183
-0.02261680521
0.0227590487
0.02365086714
0.01806678837
-0.03345949111
-0.01975131884
0.02590122264
-0.05762509632
-0.02744241403
0.05916628772
-0.05234257917
0.02688248149
0.0241019
0.02564299888
-0.0451972483
0.003810801117
-0.005703039059
0.04708948624
-0.04040915363
0.03968939799
0.0008639777187
-0.0001442220763
0.03863599623
0.0005808764024
-0.03886979738
-0.0003470752497
0.04219851596
0.002605688959
-0.04280736187
-0.001996843053
-0.04018671087
-0.003687721069
0.003825477149
0.04004895479
-0.04214529786
0.003504257555
0.04252925767
-0.00388821737
0.03744401147
0.006894335232
-0.005964412293
-0.03837393441
-0.03704826919
0.03717753444
-1.254140107e-05
-0.0001167238514
0.04279057929
-0.003521552725
-0.03905543515
-0.0002135914219
0.0424483967
-0.002969969259
-0.04277223714
0.003293809692
-0.04331887973
0.005867255015
-0.006790747645
0.04424237237
-0.03924691373
-0.02738148587
0.05535771465
0.01127068496
0.001820570205
-0.04203925863
-0.0001904652109
0.04224589113
0.006382258697
-0.04216690468
0.07997275114
0.01158529708
-0.07953528343
-0.01202276478
-0.07772141725
0.01400935546
-0.01469434438
0.07840640617
0.008239529061
-0.08092839939
-0.008424978713
0.01073547527
-0.01111531459
0.08035259046
0.04222916216
0.006071497144
-0.04008478586
-0.001140140245
0.0007556380351
0.04046928807
-0.03657284864
0.03666683466
0.0001540442839
-0.000248030304
0.000119942128
-0.03690054133
-0.0002676699844
0.04450607512
-0.002716628168
-0.04651427176
0.004724824807
0.003653824497
0.03811518792
-0.004325000948
0.00256634084
0.04132982686
-0.003499378427
-0.04039678928
0.03868919479
-0.004238043312
-0.03864458053
0.004193429055
0.07525434835
0.004559975582
-0.008612815632
-0.07587110078
-0.007324900981
0.07432783254
-0.07473130106
0.007728369496
-0.07593307947
-0.006442409294
0.006838909782
0.07553657898
0.03950093074
-0.003201670297
-0.0397522179
0.07751476977
-0.00457952251
-0.07792612894
0.004990881678
-0.003179671337
0.003500411393
0.07865413644
-0.006084023563
-0.07634733334
0.006498277431
-0.00498821141
0.005361385765
0.07714159541
0.03946301223
-0.003181963164
-0.01149198624
0.01184795545
0.0680281521
0.03457503202
-0.006592326799
0.06648034093
0.00667941516
-0.0129051092
-0.06694211407
-0.0383203404
-0.009521635425
0.01924486546
0.02859711037
-0.04038879402
0.01849028214
-0.01891791889
0.04081643077
-0.0308275739
0.04023850395
0.02500032547
0.01873002333
-0.03962757764
-0.01949123971
-0.0289710928
-0.002289268866
0.03143768123
-0.000177319567
-0.006144889421
-0.02260407123
-0.0002221321491
0.03344249612
-0.007320175193
-0.03361800015
0.007495679225
-0.007504923847
0.008064010286
0.03386462239
0.01981843569
-0.01955885658
-0.0002595791068
0.01512245544
-0.0183478085
0.00245301323
-0.01427522003
0.01367028692
0.002007877069
0.006674426424
-0.03157986114
0.03285602381
-0.00795058909
0.009335942219
0.03326187306
-0.008169436259
-0.03442837902
0.03403537576
-0.006777636742
-0.03435215406
0.007094415047
-0.04137364471
0.020365476
-0.02118951076
0.02802950528
-0.0001655681013
0.03069037272
-0.03020784461
-0.0004825281109
0.04473421887
0.01237769344
-0.04367382268
-0.01343808963
-0.0413333273
0.01308400865
-0.0138563863
0.04210570494
0.04643592217
0.01144086169
-0.04447342026
-0.0134033636
0.01160081901
-0.01190368004
0.04503707991
0.01327876294
-0.04066694627
-0.01394514397
-0.03813847065
0.01407335006
-0.01491452262
0.03897964321
-0.04070470649
0.04191390534
0.01728108329
-0.03729091923
0.03644162182
0.00115665763
-0.0003073602222
0.02600245073
-0.02592395981
-7.84909162e-05
0.004331187532
-0.04281857964
-0.006709856193
0.002424641147
-0.001855510832
0.04162938565
0.03834432033
0.0005117876336
-0.0002201117317
0.0006284972596
-0.03775450649
-0.0001649099992
0.0004291142896
-0.03739254166
0.03877805207
-0.00181462469
0.001068213817
-0.00219009718
-0.04102341449
-0.00344469865
-0.04003775648
0.003295744259
0.03750179958
-0.03608935095
-0.0003442348122
-0.03405508792
0.03503210793
-0.0005479057168
0.03542699726
-0.03502441943
0.006491757401
0.04139085013
-0.0003847929977
-0.002158438763
-0.03177183333
-0.0001248158284
-0.003519638739
0.004380575853
0.04158745959
0.05060846616
-0.007610734216
-0.0002071526538
-0.00356431277
-0.03598666766
-0.03762312152
-0.007015994166
0.007608560113
0.03703055557
-0.005460395347
-0.03620462945
0.004041903278
0.03755520686
-0.006064625625
-0.03695097658
0.03585754437
-0.005984361861
-0.03595618679
0.006083004276
-0.03682755956
-0.00585379567
0.006278187387
0.03640316784
0.03390335786
-0.006904307951
-0.03314393933
0.03690751465
-0.005850064406
-0.03724886586
0.006191415613
-0.03797977134
-0.005346697472
0.005201805799
0.03812466301
-0.005804435979
-0.03705962335
0.006036499765
-0.005652631254
0.005643774223
0.03691637168
0.0359587429
-0.004344653902
0.007453010241
0.03251263574
-0.00764037571
-0.03232527027
0.03238302344
-0.007134727599
-0.03263205715
0.007383761311
-0.007364248154
0.00771783863
0.03308890564
-0.002200287492
-0.04553382607
0.04369078875
0.004043324802
-0.00815047014
0.0085941764
-0.03969061999
0.005965797015
-0.04269494865
-0.006589728103
0.02734555711
-0.03526386541
-0.0002321618385
-0.04164730915
0.03959304861
-0.0001460269474
-3.592876879e-05
0.04055897031
0.006036787744
-0.04317556701
-0.003420191049
0.009848159488
-0.01064217886
0.04722994154
0.004979130195
-0.04643841683
-0.0001880225172
0.008990990168
-0.008066535151
0.0396345153
-0.04203694433
0.007523074144
-0.007804337132
0.04231820732
-0.04227143413
0.04263314733
0.008629276963
0.005840654462
-0.04639535033
-0.03595566638
0.03626101877
5.561027342e-06
-0.0003109134157
0.0002256447241
-0.03639006908
-0.0004084242822
-0.001022253144
-0.039737144
0.0006746112833
-0.003210156509
0.00571787495
0.04199835668
0.02531385907
-0.02500913068
-0.0003047283926
-0.0005728788799
-0.03532528707
-5.750043346e-05
0.03905339042
-0.005866957285
-0.03977078695
0.006584353814
-0.03768322667
-0.005137449145
0.004350505522
0.03847017029
-0.005178074565
-0.03756649041
0.004764793639
-0.006249864778
0.007389068859
0.03791418634
0.02307159557
-0.02268736386
-0.0003842317035
0.04142335988
-0.04006005343
0.001203034398
0.00197195538
0.03710886638
-0.00654566006
-0.03836801865
0.007230452049
-0.004255215569
0.003646225813
0.04203234963
-0.02090697727
-0.0002825334902
-0.03562637828
-0.006535795433
0.006283864207
0.03587830951
-0.02752679563
0.03067754913
-0.003039636663
-0.0001111168357
-0.009653429973
-0.04283340843
-0.006047474548
-0.02133198069
-0.0001473403904
-0.006928415037
-0.03591284036
0.007214877108
-0.03065278339
-0.0002145467747
0.02637663289
-0.1345813722
0.02806899675
-0.2547715017
-0.03558102531
-0.2319399808
-0.02961167956
0.2392296641
-0.02555653124
0.02850420809
-0.00272942022
-0.0002182566349
-0.01991002459
-0.005471696973
-0.0001748096723
0.0224000977
0.2493699503
-0.01960795309
-0.0003020715001
0.06641110128
-0.01130255396
-0.02150535988
-0.1290774745
0.01146294442
-0.01762787237
-0.1290443934
0.01887116681
0.01657619316
-0.02036743621
-0.01568672298
0.01947796603
-0.0202821534
-0.009205173817
0.01868590266
0.01080142456
-0.006056918846
0.006898769248
-0.01376732196
0.02365296371
-0.02872848186
-0.03250849887
0.01846660231
-0.0265719222
-0.01919584212
0.02730116201
-0.02285724261
0.02147046429
0.01796297148
-0.1274757728
0.02799556103
-0.02993663429
0.1294168461
-0.1241665895
0.1255612919
0.03371688085
0.02198403294
-0.06803571887
0.009860936675
-0.04031953393
-0.01015403015
0.0406126274
-0.04329783007
0.04377946714
0.01111918194
0.04554262457
0.0103976134
-0.04449937628
0.03124773715
-0.00703269121
-0.03146235492
0.007247308984
-0.007080183901
0.007472991895
0.03199021545
0.03155281222
-0.00856181191
0.006619038059
0.06600854586
-0.01278835808
0.06478731921
-0.01281135915
-0.06525715395
0.06519596654
-0.01161788971
-0.06561453816
0.01203646132
0.04597935066
0.00941143339
0.007341006088
-0.04357565247
0.007737177528
-0.04194338806
-0.007830733795
-0.02665607955
0.005574908546
0.00802778397
-0.02959411816
-0.00828345551
0.03602411328
-0.02773551311
-0.0002608162003
0.01790717543
-0.006958190509
0.007084910244
-0.05674314608
0.01448033358
-0.0005291555963
-0.03347289135
-0.003820648151
-0.0002320676752
-0.03294008808
0.03305220616
-0.007576290076
0.00487768601
-0.03115684975
-0.006660924338
-0.02621889956
-0.000245708407
-0.03321882099
0.03322097707
-0.006978574003
0.03398068811
-0.006938424899
-0.03405181023
0.03288366148
-0.006620521875
-0.03298196258
0.006718822978
0.0147748375
-0.07694072557
-0.01555552918
-0.07410452804
0.01676697484
-0.01780333336
0.07514088656
-0.07647934858
0.07794225634
0.02017398883
-0.006690018394
0.006999158723
0.03372623543
0.03326383523
-0.00770684554
-0.007273787778
-0.03363259809
-0.06348410547
0.02193531832
-0.02285568122
0.06440446837
-0.05999610771
0.06075604015
0.0251412902
0.01679188504
-0.03371257798
0.01372109786
0.04288514428
-0.0004938731919
-0.04354059795
0.04327610785
0.01398558796
-0.04261364353
0.0146317854
-0.02899448932
0.02908555403
-9.106471344e-05
0.009531013585
-0.03835553478
-0.0001699681249
0.007184317952
-0.03541379226
-0.00712282052
0.03328006279
-0.03222343936
0.006127694522
0.003002367693
0.03550106716
0.02222693822
-0.0001377262711
-0.0064143007
0.02869806456
-5.682563804e-05
0.03397959524
-0.00740453413
-0.006042359835
0.03517315827
-0.03529524122
0.006164442791
-0.005938065467
0.006134529221
0.03566108062
0.03716529276
-0.006626080073
-0.007546293167
0.04602230976
-0.00034329324
-0.03917399681
0.03821470214
-0.006586998497
-0.03823659941
-0.004745661689
-0.007484962187
0.005971494869
0.03048291127
-0.03217992034
0.03244844215
-0.007753484002
-0.008200110676
-0.03304616677
0.03507752027
-0.00180583303
-0.0002255204628
-0.03039717841
-0.002341865573
-0.00030712279
-0.03640449036
-0.00371147188
0.002387710841
-0.03442519232
-0.004367008884
-0.02961893572
-0.0001436782113
-0.02356398162
-0.006552479221
-0.0002807175721
-0.02336240793
-0.0002015736911
-0.004286506107
0.004426659684
0.03854904121
0.04154192738
-0.004467316089
0.03860584765
-0.005844034002
-0.03930747371
0.02560188541
-0.0003053309584
-0.03262990336
0.04011997229
-0.007257149959
-0.0002329189701
-0.003824698961
-0.0003009963071
0.03039631106
-0.02921313729
-0.004984655036
0.03265154588
0.03361956345
-0.006175623148
0.01067364762
-0.001111205891
0.004513653106
-0.010625303
0.01321338557
0.004796694045
0.00587695357
0.0074598745
-0.03320934791
-0.007336481213
0.04015461904
-0.03241422971
-0.0002805148308
0.02722926393
-0.02062508134
-0.0001518749627
-0.005032054719
-0.0001529110651
-0.006644715953
-0.03040009115
0.01588486548
-0.01655437454
0.03106960021
-0.02868185882
0.02937193883
0.0177765223
0.02314028027
-0.03031489046
-0.04554847792
0.04182015771
0.003903603996
-0.0001752837915
-0.05334726718
0.008119259614
-0.0003204703517
-0.04060809128
0.04025130757
0.0004311509259
-7.43672209e-05
0.001384219953
-0.0001721535159
0.000620268159
0.03926985791
-0.0002007280736
-0.04458470178
0.0436912996
0.001513670341
-0.04567370561
0.001952981543
-0.04290102089
0.04224886651
0.001233030781
-0.0005217159345
0.00131199465
-0.0001216554097
-0.0001024676644
0.03772502529
-0.0004450231903
-0.04239948213
0.04322879007
-0.0009317756083
-0.04181254679
-0.0005994767445
-0.04408115435
0.04414561146
-0.003586009836
0.0009741223567
-0.001826486629
-0.0003562874974
0.00901847046
0.04635975985
-2.051566534e-05
-0.04544063726
0.04716298084
0.007296126873
-0.04259182892
0.008421876624
-0.0468217321
0.002968596694
-0.004567599696
0.004908848444
-0.0002470984707
7.932145552e-05
0.03667467675
-8.716354365e-05
-0.04033458462
0.0407324314
-0.000318525327
-0.03992404785
-0.0002564924832
-0.04127117198
-0.0004214326779
-0.0002155463635
-0.0003231942136
-0.0004414109442
-0.04035365229
0.04147113775
-0.0007566409763
-0.000360844478
1.337115424e-05
-0.0001157158746
-0.04485476774
0.05237565542
-0.007214451362
-0.0003064363223
-0.003242952218
-0.0001406777734
-0.01822772985
-0.0002093651025
0.01963258229
-0.0003877168228
-0.007814641028
-0.0002882897972
-0.008811648818
-0.0003205544277
0.03377186399
-0.05231630369
-0.0003734791856
0.03444288193
-0.000671017942
0.01851616662
0.03974973567
0.0004887682818
-0.0354563871
0.05228313709
0.02292298568
0.02292397212
-0.03338003375
-0.03332513189
0.03298227489
0.0003428570035
0.01905787893
-9.987373607e-05
-0.001783264512
-0.0002519456084
-0.02220506079
-0.0003990104409
-0.006156945902
-0.000243517972
-0.02973253832
-0.007581257335
-0.009171422608
-0.01391835959
-0.03338667764
-0.007735141653
-0.0002518254091
-0.0002596053358
-0.005181880652
-0.0001752917088
-0.04198043698
0.05753455066
0.01513625904
-0.01276699962
0.01406267049
-8.969995353e-05
-0.01126111111
-0.04439623784
0.01118392869
0.04173168175
-0.04346177927
0.05741387218
-0.04599195224
0.007949558085
-0.0003131406182
0.01200124847
-0.0004586500533
0.002821963049
0.0337838312
-0.0001641724267
-0.03871757679
0.03754336046
0.003996179379
-0.03967689046
0.002115971297
-0.03766653676
0.0103217203
-0.008062932534
0.007939756242
-0.000203061147
0.0004667149991
0.03803089881
-0.0001532934774
-0.04161828507
0.04100117049
0.001083829583
0.001142369068
-0.04040261324
0.00135422004
-0.0005260120104
0.001124569257
-0.0002496196904
-0.001269419321
0.0001285555842
0.0399189158
-0.03920599172
-0.002278808526
0.04021538093
-0.03829203591
-0.002728580503
-0.035533991
-0.0003041101276
-0.0002512498205
-0.0003733274898
0.02375362304
-0.04924923657
-0.009528805898
0.02399954768
-0.0002459246443
0.03092134172
-0.0004300366406
-0.007605533622
-0.0002528528179
-0.02470765419
-0.006957935697
-0.0001062434361
-0.0243518886
-0.0003557655965
-0.009610158564
0.03586673613
-0.04226013244
0.03931101764
-0.006661043768
-0.005725255196
-0.03793231614
-0.003924032536
0.007077867224
-0.005699165723
0.0442861451
-0.03641836089
-0.000259224096
-0.009404635152
0.0214673409
-0.007787871841
0.02177643533
-0.0003090944298
-0.02808486064
0.03128218189
-0.0001949535577
-0.0001807307896
0.003040210611
-0.005265244825
0.03202072703
-0.0002824518608
-0.000355730588
-0.03629929563
-0.006598647801
0.03599363548
0.009326690355
-0.007411283851
0.003727641125
0.04160467353
-0.001641525901
-0.04362247022
0.04229096076
0.005059150587
0.005250081271
-0.04482922669
-0.04153132249
0.007533669971
-0.00515533781
0.005914976081
-0.003241284271
-0.03794947636
-0.0005556733137
2.046342813e-06
-0.00298730729
-0.04572940714
0.005541147423
0.03900695316
-0.04163354325
-0.0003607171922
0.03574435085
-0.0001575887468
0.04699757765
-0.0002258843315
0.005662839241
-0.000298804843
0.007163373645
-0.05588700332
0.009732536926
-0.0002839504337
0.02773409123
-5.627553101e-05
0.02806928404
-0.0003351928084
0.01181679602
0.0001214768626
0.03639726924
-0.0002577273253
-0.03878190769
0.03917545692
-0.0002720723667
-0.03825657898
-0.0005197676857
-0.0394957831
-0.0002026200274
-8.873028289e-05
-0.0002315958984
-8.153012688e-05
-0.007368979114
0.03288153434
-0.0001986961591
-0.03683693325
0.03655063936
-0.007082685225
-0.009470408504
-0.03752191896
-0.001307538901
0.002207212879
-0.003178492473
-0.0002365398501
-0.03910162013
0.04693948724
-0.007748164436
-8.970267499e-05
-0.00387383378
-0.000150266078
-0.006350050947
-0.0001972892082
-0.03373421818
-0.007041025082
-0.009482094806
0.000532766962
-0.03865799375
-0.001934826647
0.03495629115
-0.03421831543
-0.0002052087614
0.03649099874
-0.0003316731853
0.03327776973
-0.0003844726313
-0.0006541257865
-0.0002864199097
-0.002203253156
0.009821571774
-0.04073740841
-0.007452182022
0.03484539981
-0.04838623596
0.03552337264
0.04043376526
-0.0002965407073
-0.007745519515
-0.0002069511867
-0.006450578288
-0.004093914845
0.0349794581
-0.0002079941278
-0.03507227409
0.03658296943
-0.005604610184
-0.03282057746
-0.005291333294
-0.03622700048
-0.008211709828
0.03478528033
0.007594764265
-0.007238795312
-0.0002591860639
-0.03561984705
0.04341598992
-0.007573610812
-0.0002225320596
-0.004040965006
-0.0002967001512
-0.03169713364
-0.007170918371