/*--------------------------------*- C++ -*----------------------------------*\
| =========                 |                                                 |
| \\      /  F ield         | OpenFOAM: The Open Source CFD Toolbox           |
|  \\    /   O peration     | Version:  v2012                                 |
|   \\  /    A nd           | Website:  www.openfoam.com                      |
|    \\/     M anipulation  |                                                 |
\*---------------------------------------------------------------------------*/
FoamFile
{
    version     2.0;
    format      ascii;
    class       surfaceScalarField;
    location    "2.17";
    object      meshPhi;
}
// * * * * * * * * * * * * * * * * * * * * * * * * * * * * * * * * * * * * * //

dimensions      [0 3 -1 0 0 0 0];
oriented        oriented;


internalField   nonuniform List<scalar> 
6430
(
0
0
0
0
0
0
0
0
0
0
0
0
0
0
0
0
-1.208993008e-05
0
1.577325246e-05
1.551413796e-05
1.822787418e-05
-8.863488125e-05
-8.011681007e-05
9.491468848e-05
0.0001280106286
-0.0002579847705
-0.0003166478488
0.0002611568363
0.0003845436979
-0.0002915877193
-0.0005659071182
0.0002940923535
0.0006085530359
-0.000178445253
-0.0006657111648
0.0001786796015
0.0003300603868
0.0003354164295
-2.265674494e-05
-0.000164176511
2.270162e-05
0.0001641316359
0
0
0
0
0
0
0
0
0
0
0
0
0
0
0
0
-1.797703543e-05
0
1.477803003e-05
2.33044367e-05
2.18950651e-05
-0.0001044222632
-0.0001052710434
0.0001011786528
0.0001646965383
-0.00027166206
-0.0003856221365
0.0002673151259
0.0004628605174
-0.0002917733637
-0.0006595599176
0.0002904834478
0.0007041284385
-0.0001760362296
-0.0007521400215
0.0001760362296
0.0003734722984
0.0003786677231
-2.194244644e-05
-0.0003734722984
4.236323588e-05
-2.042078944e-05
0.0001859778372
0.0001874944612
0
0
0
0
0
0
0
0
0
0
0
0
0
0
0
0
-9.182550864e-06
0
3.357626984e-06
1.17494091e-05
7.50326805e-06
-7.850736198e-05
-8.331482454e-05
6.776254689e-05
0.0001408548124
-0.0002345455613
-0.0003703869193
0.0002174985932
0.0004546805628
-0.0002767448637
-0.0006811914185
0.0002673371214
0.0007380773066
-0.0001806900905
-0.0008317718281
0.0001832151985
0.0008385436163
-4.236323588e-05
-0.00083826938
7.864129393e-05
0.00083826938
-3.627805808e-05
0
0
0
0
0
0
0
0
0
0
0
0
0
0
0
0
-8.178463095e-08
0
0
6.926483062e-08
0
-3.294664494e-05
-3.055172353e-05
2.245042064e-05
6.909971049e-05
-0.0001528309502
-0.0002581189425
0.0001287492992
0.0003365198521
-0.0002205040269
-0.000573029084
0.0001990239052
0.0006425492196
-0.0001740285345
-0.0007974812434
0.000164606647
0.0008298105803
-7.805216701e-05
-0.0008789877359
7.545526385e-05
0.0008833727696
0
0
0
0
0
0
0
0
0
0
0
0
0
0
0
0
0
0
0
0
0
-2.277338093e-06
-7.311215392e-08
3.712408835e-07
5.543454109e-06
-5.989143931e-05
-9.763713295e-05
4.081784154e-05
0.0001492574922
-0.0001246783092
-0.0003342162384
9.947737037e-05
0.0003973292077
-0.000120585923
-0.000560824394
0.0001026340016
0.0006020128449
-5.981090072e-05
-0.0006768630858
5.261630344e-05
0.0006853042535
0
0
0
0
0
0
0
0
0
0
0
0
0
0
0
0
0
0
0
0
0
0
0
0
0
-4.530507902e-06
-2.62905437e-06
6.965829727e-07
1.228063764e-05
-3.536006286e-05
-8.620227037e-05
2.031636187e-05
0.0001201222704
-4.936080278e-05
-0.0002242632645
3.422872129e-05
0.0002544351743
-2.894494843e-05
-0.0003153218503
2.144312942e-05
0.0003236309982
0
0
0
0
0
0
0
0
0
0
0
0
0
0
0
0
0
0
0
0
0
0
0
0
0
0
0
0
0
-1.068456452e-07
0
0
4.601374703e-07
-4.414824944e-06
-1.264363526e-05
6.905268476e-07
1.960887137e-05
-4.477793641e-06
-3.820195628e-05
1.490101689e-06
4.145129017e-05
0
0
0
0
0
0
0
0
0
0
0
0
0
0
0
0
0
0
0
0
0
0
0
0
0
0
0
0
0
0
0
0
0
0
0
0
0
0
0
0
0
0
0
0
0
0
0
0
0
0
0
0
0
0
0
0
0
0
0
0
0
0
0
0
0
0
0
0
0
0
0
0
0
0
0
0
0
0
0
0
0
0
0
0
0
0
0
0
0
0
0
0
0
0
0
0
0
0
0
0
0
0
0
0
0
0
0
0
0
0
0
0
0
0
0
0
0
0
0
0
0
0
0
0
0
0
0
0
0
0
0
0
0
0
0
0
0
0
0
0
0
0
0
0
0
0
0
0
0
0
0
0
0
0
0
0
0
0
0
0
0
0
0
0
0
0
0
0
0
0
0
0
0
0
0
0
0
0
0
0
0
0
0
0
0
0
0
0
0
0
0
0
0
0
0
0
0
0
0
0
0
0
0
0
0
0
0
0
0
0
0
0
0
0
0
0
0
0
0
0
0
0
0
0
0
0
0
0
0
0
0
0
0
0
0
0
0
0
0
0
0
0
0
0
0
0
0
0
0
0
0
0
0
0
0
0
0
0
0
0
0
0
0
0
0
0
0
0
0
0
0
0
0
0
0
0
0
0
0
0
0
0
0
0
0
0
0
0
0
0
0
0
0
0
0
0
0
0
0
0
0
0
0
0
0
0
0
0
0
0
0
0
0
0
0
0
0
0
0
0
0
0
0
0
0
0
0
0
0
0
0
0
0
0
0
0
0
0
0
0
0
0
0
0
0
0
0
0
0
0
0
0
0
0
0
0
0
0
0
0
0
0
0
0
0
0
0
0
0
0
0
0
0
0
0
0
0
0
0
0
0
0
0
0
0
0
0
0
0
0
0
0
0
0
0
0
0
0
0
0
0
0
0
0
0
0
0
0
0
0
0
0
0
0
0
0
0
0
0
0
0
0
0
0
0
0
0
0
0
0
0
0
0
0
0
0
0
0
0
0
0
0
0
0
0
0
0
0
0
0
0
0
0
0
0
0
0
0
0
0
0
0
0
0
0
0
0
0
0
0
0
0
0
0
0
0
0
0
0
0
0
0
0
0
0
0
0
0
0
0
0
0
0
0
0
0
0
0
0
0
0
0
0
0
0
0
0
0
0
0
0
0
0
0
0
0
0
0
0
0
0
0
0
0
0
0
0
0
0
0
0
0
0
0
0
0
0
0
0
0
0
0
0
0
0
0
0
0
0
0
0
0
0
0
0
0
0
0
0
0
0
0
0
0
0
0
0
0
0
0
0
0
0
0
0
0
0
0
0
0
0
0
0
0
0
0
0
0
0
0
0
0
0
0
0
0
0
0
0
0
0
0
0
0
0
0
0
0
0
0
0
0
0
0
0
0
0
0
0
0
0
0
0
0
0
0
0
0
0
0
0
0
0
0
0
0
0
0
0
0
0
0
0
0
0
0
0
0
0
0
0
0
0
0
0
0
0
0
0
0
0
0
0
0
0
0
0
0
0
0
0
0
0
0
0
0
0
0
0
0
0
0
0
0
0
0
0
0
0
0
0
0
0
-0.0001629867324
0.0001629880214
-2.265803394e-05
-0.0001848068969
0.0001848068969
-2.194244644e-05
-0.0006442297751
-0.000178490053
0.0003194592359
0.0003248153392
4.987722887e-05
0.0001617761861
-4.981791165e-05
-0.0003248222356
-0.0007076250465
-0.0001765989966
0.0003400881484
0.0003680996652
4.845211094e-05
0.0001832927683
-4.845211094e-05
-0.0003680996652
0.0001658482733
-0.0003300227397
4.987518421e-05
2.265446062e-05
-0.0001737736926
0.0001737583209
-2.263908892e-05
5.949104409e-06
8.685796375e-05
-5.846664908e-06
-8.696040325e-05
-5.911559151e-06
8.173591259e-05
-8.174501388e-05
5.920660442e-06
-0.0004110757402
0.0004110757402
-4.236323587e-05
8.161901175e-05
-5.904281358e-06
-8.162628954e-05
5.500174698e-06
8.159727414e-05
-5.478437095e-06
0.0001863186297
1.178509151e-05
-0.0001855111959
-6.67352566e-06
-5.91899964e-06
8.721134872e-05
-8.724310405e-05
5.980859736e-06
-0.0001750579435
2.268886949e-05
0.0001750235346
-5.137206078e-06
5.186626017e-06
8.716192879e-05
9.749726454e-06
0.0001862654418
-5.5204847e-06
-4.17605386e-06
5.533531065e-06
8.170255623e-05
-5.053396704e-06
8.677415438e-05
-8.381228778e-05
1.277456086e-06
-6.080958579e-06
8.461696368e-05
-8.463432977e-05
6.098324659e-06
-1.669825434e-05
-0.000169651081
1.671983175e-05
0.0001696295036
1.672271454e-05
-0.0001737456786
-1.66484416e-05
8.665177219e-05
8.701963345e-05
-1.671164622e-05
-0.0001641155419
1.67431593e-05
0.0001640840288
-0.0001682968426
0.000168292187
-1.669359875e-05
8.414098691e-05
-6.035942665e-06
-8.418600282e-05
-5.99976563e-06
7.942189856e-05
-7.942167286e-05
5.999539934e-06
-1.670949633e-05
-0.0001591551714
1.671963137e-05
0.0001591450364
-0.0001629833156
0.0001629857475
-1.671407819e-05
-0.0001576811724
0.0001577045602
-1.673288421e-05
7.906678753e-05
-5.995345801e-06
-7.907120737e-05
5.649728037e-06
7.906217799e-05
-5.645118488e-06
5.66724958e-06
7.940437701e-05
-0.0001749977136
1.677427543e-05
8.730017732e-05
8.764597544e-05
2.341183633e-05
-0.0001933223069
-1.934370188e-05
9.110177555e-05
9.81523969e-05
9.865354702e-05
9.3018942e-06
-7.046951788e-06
-0.0001009084894
2.647860063e-05
-7.464111538e-06
7.963905793e-05
3.880507238e-06
-3.916540619e-06
-8.951300612e-05
-2.803647426e-06
8.726177792e-05
-8.742665306e-05
2.968522566e-06
5.791142332e-06
8.406504384e-05
-5.715199257e-06
-1.729034367e-05
3.644887154e-06
-7.016683127e-05
8.692503712e-05
-2.583881339e-06
-8.714480321e-05
8.575225262e-05
-0.0001066101452
3.567548895e-06
5.836520648e-06
8.457158537e-05
1.800483955e-06
2.786368677e-06
-2.558879335e-06
-0.0008159404376
0.0008166568645
-0.0001772258362
0.0001029913811
-0.000816591658
0.0004055159179
-5.453927019e-05
-4.845211096e-05
-0.0003734722984
4.845211093e-05
4.236323587e-05
-0.0003895877027
0.0003895877027
-4.236323588e-05
0.0003895877027
2.41030963e-05
-2.41030963e-05
-0.0003895877027
0.0001866528921
-0.0001863252291
1.145742847e-05
8.633714365e-05
-5.887109528e-06
-8.635255859e-05
5.902524464e-06
-7.08617373e-06
-8.633252879e-05
7.094900266e-06
8.632380225e-05
7.085605091e-06
-8.701143581e-05
8.700471655e-05
-7.078885828e-06
9.764376821e-06
0.0001866382418
1.801657027e-05
0.0003895877027
-1.801657027e-05
5.592461987e-06
-7.749904825e-05
7.748650666e-05
-5.579920402e-06
-5.629705514e-06
-8.077634676e-05
5.540722902e-06
8.086532937e-05
0.0001152072549
-9.444774867e-05
-1.145761206e-05
-0.0001629514415
1.588070111e-05
8.887578404e-05
8.160679267e-05
-0.0001848112474
1.603172267e-05
0.0001846425831
-1.586305836e-05
-8.729628119e-05
7.09770272e-06
8.728418356e-05
7.070436348e-06
-8.847703962e-05
8.850447985e-05
-7.097876585e-06
8.838960669e-05
6.166206733e-06
-6.096485601e-06
-8.845932782e-05
3.032391912e-06
5.263243198e-06
-5.272280285e-06
8.839864378e-05
-1.535231765e-05
8.747069174e-05
-3.506837044e-07
-7.176769039e-05
0.000184801692
5.038482381e-06
-4.87960173e-06
-0.0001849605727
-8.753338471e-05
3.659375049e-06
0.0001416858556
5.616989287e-06
-8.326462055e-05
8.322298588e-05
-5.57535462e-06
1.385542083e-05
-8.613854774e-08
7.256786137e-05
-7.092993037e-06
-8.463522822e-05
7.078520587e-06
8.464970067e-05
-8.564715437e-05
8.566250704e-05
-7.101526397e-06
8.583708323e-05
-6.016242176e-06
-8.570795059e-05
8.357965925e-05
-5.962932526e-06
-8.359855497e-05
5.981828246e-06
-7.084467625e-06
-8.358534998e-05
7.067242768e-06
8.360257484e-05
-8.423480438e-05
8.420761819e-05
-7.065806844e-06
-7.776943657e-05
5.60216972e-06
7.775972884e-05
-8.043539078e-05
8.046369062e-05
-5.658005359e-06
8.867438409e-05
-8.882899376e-05
6.320816399e-06
-8.875947027e-05
7.029810733e-06
8.880009589e-05
6.033267588e-06
-9.803548298e-05
9.862108471e-05
-6.618869314e-06
8.604239082e-05
-8.743594598e-06
1.77142841e-07
-7.747593906e-05
8.878362909e-05
-0.0001095228473
5.386900604e-06
5.484985551e-06
8.845264174e-05
1.63078172e-07
-1.555926501e-05
8.723322327e-05
-7.183703644e-05
3.601159356e-06
8.803248582e-05
-4.162953431e-06
3.695450107e-06
8.831348815e-05
-3.595837763e-06
-8.841310049e-05
5.646859563e-06
8.354978898e-05
1.360629418e-05
-0.0001179591753
-2.488230585e-06
8.646599965e-05
-8.646577572e-05
2.488006652e-06
8.611978366e-05
-1.402245684e-05
-7.193424865e-05
8.622684649e-05
-2.126075402e-06
-8.658900167e-05
0.0001055365265
-5.844022406e-06
-7.078103109e-06
-8.175528033e-05
7.078888119e-06
8.175449532e-05
-8.329189427e-05
8.329772769e-05
-7.090301049e-06
-5.931014344e-06
-8.329653873e-05
-5.977884395e-06
-8.073702627e-05
5.93856391e-06
-7.067632723e-06
-8.074493488e-05
7.070314305e-06
8.07422533e-05
-8.162299247e-05
8.162838696e-05
-7.083497591e-06
-4.069690837e-06
4.588482887e-06
8.107848209e-05
-8.142800531e-05
1.987389033e-07
7.715957557e-05
-5.487204272e-06
-8.141923813e-05
5.290715757e-06
-8.75372597e-05
8.743316996e-05
8.211727263e-05
5.527927279e-06
-8.211166884e-05
-4.77585498e-06
4.822737587e-06
8.207039002e-05
8.151518413e-05
-4.396399139e-06
-8.671353725e-05
8.605653968e-05
-7.081656499e-06
-7.941400557e-05
7.077057744e-06
7.941860432e-05
-8.040523256e-05
8.041658859e-05
-7.078988753e-06
-5.996896184e-06
-8.041637899e-05
-5.976937143e-06
-7.777111577e-05
5.978616351e-06
-7.074211329e-06
-7.77673256e-05
7.074228669e-06
7.776730826e-05
-7.908057411e-05
7.907642699e-05
-7.077509376e-06
-5.278350814e-06
5.314371653e-06
7.902615715e-05
-7.866641377e-05
7.863896127e-05
-5.250898318e-06
-7.868733526e-05
-5.624196999e-06
7.974474606e-05
5.674056808e-06
-7.975155329e-05
-5.345543006e-06
5.378823739e-06
7.971146533e-05
7.937320566e-05
-9.21331333e-05
9.157778226e-05
-6.491600748e-06
6.011458505e-06
-6.389049405e-06
-9.17555424e-05
4.719971743e-06
-9.961700267e-05
9.367804285e-05
1.358348117e-05
-0.000107261524
-5.230359882e-06
8.934403061e-05
-8.836675478e-05
3.669789052e-06
3.772822241e-06
8.861196621e-05
2.635585704e-06
8.634966706e-05
-2.942861952e-06
-4.859512906e-06
5.011333535e-06
8.391322321e-05
-8.38631621e-05
-4.795299537e-06
8.379894873e-05
-5.67613474e-06
-8.390222661e-05
-3.582205321e-06
-7.36156846e-05
1.292131707e-05
-0.0001195314622
8.431257616e-05
-1.140711144e-06
-7.025054795e-05
2.414460601e-06
8.546566445e-05
8.501665187e-05
5.846375554e-06
-8.502650678e-05
-5.055486702e-06
5.873314329e-06
8.419882425e-05
8.45274322e-05
1.97652583e-06
-1.65515692e-06
4.342663824e-06
-7.731114081e-05
7.731221801e-05
4.40980526e-06
-7.74665133e-05
7.739937187e-05
-9.946675118e-05
-1.1932128e-05
0.0001113988792
8.116594272e-05
-8.111242409e-05
1.325006295e-05
6.811461867e-05
-5.351358865e-06
-9.035360234e-05
5.957583695e-06
9.042928623e-05
7.316545581e-06
-9.12033993e-05
9.140105056e-05
-7.514196836e-06
9.520599405e-05
8.185321184e-06
-1.053745979e-05
-9.285385545e-05
-8.811954575e-05
8.804769249e-05
-6.024632347e-06
6.392550733e-06
-6.349654257e-06
-8.816244222e-05
6.443912784e-06
-8.851068987e-05
8.806612797e-05
-1.469303867e-05
8.678465719e-05
-7.244230223e-05
0.0001097700668
-0.0001244631055
7.429064535e-06
0.0001005599868
-1.278305733e-05
1.517038946e-06
9.285065946e-05
-1.140314475e-07
-9.425366696e-05
8.082409029e-05
-9.544012918e-05
5.872444292e-06
-4.830723209e-06
4.818304454e-06
8.323540463e-05
-8.269603156e-05
8.268804594e-05
-8.27434589e-05
-8.660398453e-05
8.212144684e-05
4.521449122e-06
-4.51827249e-06
7.863578464e-05
4.536042603e-06
7.901156367e-05
4.47214009e-06
-7.774270031e-05
7.768036548e-05
-7.815821428e-05
7.811208188e-05
-5.38754838e-06
8.049988014e-05
-8.009587419e-05
8.008714955e-05
-8.007982274e-05
5.449803854e-06
-4.596034392e-06
7.923338009e-05
7.401755599e-05
4.564054413e-06
7.934519385e-05
7.967948535e-05
6.458249906e-06
-8.884333088e-05
8.974578105e-05
-8.967658055e-05
8.95749967e-05
-8.391433748e-05
-4.466845858e-06
8.855832618e-05
-1.235985989e-05
-1.407674805e-06
-7.014680278e-05
3.842243906e-06
1.510050547e-05
-0.0001246233528
8.602220839e-05
-7.232937772e-05
8.694226313e-05
8.982962237e-05
8.858264384e-05
5.628157976e-06
-3.640768411e-06
8.832689685e-05
3.896515404e-06
-3.802022881e-06
8.739447775e-05
8.373861631e-05
-8.376789149e-05
-4.807505418e-06
8.375082219e-05
8.356058801e-05
-7.114802188e-05
5.118967015e-07
-1.601438763e-05
8.596513097e-05
-7.046264004e-05
-1.356002923e-05
8.524441302e-05
-7.117248709e-05
-4.893148444e-06
8.721090922e-05
-0.0001081536481
8.724611204e-05
-0.000122176105
0.0001075222907
-0.0001210823199
-8.516033018e-05
8.544871538e-05
-1.651506315e-05
-6.978597818e-05
4.418225859e-06
-1.299417889e-05
0.0001185307054
-8.530406135e-05
7.818319679e-05
-8.53017082e-05
-7.575499365e-05
0.0001230937575
-8.865167445e-05
0.0003052848087
0.0002227671919
-0.000219610968
-0.0002410978939
0.0003708344052
-0.0002561762177
0.0005449309493
0.0003019060727
-0.0003007566379
-0.0004931787268
0.0005874230983
-0.0002908239062
0.0002067817979
-0.0002073519272
-0.0006381272018
-9.545363062e-05
0.0001492892331
-0.0001023138427
0.0003510699579
0.0002371360262
-0.0002354679966
-0.0002797218137
-0.0002449649092
0.0002256739223
0.0004226813644
-0.0002705222621
0.0006099886619
0.0003055157085
-0.0003062826001
-0.0005549514723
-0.0005119644297
0.0003016827354
0.0006543602287
-0.0002930543225
0.0002020531422
-0.0002034439471
-0.0007037665103
-0.0006601972701
0.0002061977445
0.000180665771
-0.0006894183358
0.0003408101823
0.0003466219841
7.406104648e-05
0.0003465284892
-7.405394576e-05
-0.0003465355899
-7.403263593e-05
0.0003300347945
-0.0003300422984
7.404013989e-05
2.265394397e-05
-0.0001683361095
0.0001683189667
-2.263680117e-05
1.819220121e-05
-1.818132613e-05
-0.0001683077176
-1.818881749e-05
-0.0001641085138
1.818178939e-05
-9.286452949e-05
0.0001523512719
-8.792860188e-05
0.0003834857648
0.0001997284633
-0.0002137778813
-0.0003009096676
-0.000307956114
0.0002326686892
0.0004667833826
-0.0002486596433
0.0006858308394
0.0002825462515
-0.0002919861687
-0.0006211664733
-0.0006028345152
0.0003031700947
0.0007387772644
-0.0002834281279
0.0002107505746
-0.0002087238805
-0.0008040385387
-0.0007502849069
0.0002031714299
0.0007738027721
0.0001760557391
-0.00077381096
0.0001516845487
0.0003895877027
-7.888406641e-05
-7.28004823e-05
0.0003842150694
-7.28004823e-05
0.0003734722984
-0.0003734722984
7.280048228e-05
4.236323588e-05
-0.0003786677231
0.0001886629061
0.000190004817
1.737734263e-05
0.000190004817
-1.737734262e-05
-0.000190004817
-1.737879283e-05
0.0001859792874
-0.0001859778372
1.737734262e-05
-4.43131479e-05
8.925920617e-05
-4.439927167e-05
0.0002938823359
0.0001217985544
-0.0001434373629
-0.000216778696
-0.0002875879539
0.0001830078338
0.0003755414046
-0.0001761050673
0.0006140448882
0.0002148795802
-0.0002361914866
-0.0005388012976
-0.0006133116718
0.0002701652465
0.0006815676616
-0.0002392341911
0.0008242526555
0.0001935746092
-0.0002026168735
-0.0007872176325
-0.0008135182565
0.0002108568779
0.0008513568943
-0.0001802434072
0.0008875241685
0.0001028981381
-0.0001044247787
-0.000881264921
-0.00083826938
0.0001029913811
0.0008900933765
-7.914953635e-05
-2.097192229e-06
1.60423198e-05
-6.623010341e-06
0.0001367498879
4.035782022e-05
-5.837611529e-05
-8.499657082e-05
-0.0001853791501
9.987675599e-05
0.0001970111466
-8.143948253e-05
0.0004015818925
0.0001134967821
-0.0001396700691
-0.000332214406
-0.0004970990874
0.000191220697
0.0004686666911
-0.0001502943419
0.0006367870596
0.0001286098592
-0.0001481464849
-0.000587738333
-0.0007555622885
0.0001812369033
0.0006777077286
-0.0001373589113
0.0007500190171
7.769213666e-05
-8.641989539e-05
-0.0007342265326
-0.0008693461905
9.928369737e-05
0.0007578196074
-6.616875167e-05
0
0
0
1.327541942e-05
9.611592067e-07
-5.053854505e-06
-2.519695409e-06
-5.517715671e-05
2.510851668e-05
3.396204746e-05
-1.266963087e-05
0.000139008675
2.732436972e-05
-4.44695104e-05
-9.873734447e-05
-0.0002701561638
8.831483794e-05
0.0001818047566
-5.400010459e-05
0.0003059831383
4.933432151e-05
-6.766253658e-05
-0.0002670521251
-0.0005122564393
0.0001081190066
0.0003405235113
-6.626342546e-05
0.0004082895574
3.639140964e-05
-4.680779408e-05
-0.0003923492402
-0.0006601966079
6.790241592e-05
0.0004170964913
-3.686340296e-05
0
0
0
0
0
0
0
0
0
0
0
2.689369146e-06
0
-7.48397385e-07
-1.779108727e-07
-5.570297504e-05
1.412507176e-05
8.136793379e-06
-2.546627836e-06
4.208591478e-05
3.230370774e-06
-9.83346837e-06
-2.903283539e-05
-0.0001908515429
3.32349498e-05
5.52625296e-05
-1.138270726e-05
8.582124636e-05
5.214796695e-06
-1.074068786e-05
-7.792252546e-05
-0.0003007217444
2.664960115e-05
9.071104146e-05
-8.937714642e-06
0
0
0
0
0
0
0
0
0
0
0
0
0
0
0
0
0
0
0
0
0
0
0
-6.775941953e-06
2.421483408e-07
0
0
0
0
0
0
-3.3129865e-05
1.615058121e-06
0
0
0
0
0
0
0
0
0
0
0
0
0
0
0
0
0
0
0
0
0
0
0
0
0
0
0
0
0
0
0
0
0
0
0
0
0
0
0
0
0
0
0
0
0
0
0
0
0
0
0
0
0
0
0
0
0
0
0
0
0
0
0
0
0
0
0
0
0
0
0
0
0
0
0
0
0
0
0
0
0
0
0
0
0
0
0
0
0
0
0
0
0
0
0
0
0
0
0
0
0
0
0
0
0
0
0
0
0
0
0
0
0
0
0
0
0
0
0
0
0
0
0
0
0
0
0
0
0
0
0
0
0
0
0
0
0
0
0
0
0
0
0
0
0
0
0
0
0
0
0
0
0
0
0
0
0
0
0
0
0
0
0
0
0
0
0
0
0
0
0
0
0
0
0
0
0
0
0
0
0
0
0
0
0
0
0
0
0
0
0
0
0
0
0
0
0
0
0
0
0
0
0
0
0
0
0
0
0
0
0
0
0
0
0
0
0
0
0
0
0
0
0
0
0
0
0
0
0
0
0
0
0
0
0
0
0
0
0
0
0
0
0
0
0
0
0
0
0
0
0
0
0
0
0
0
0
0
0
0
0
0
0
0
0
0
0
0
0
0
0
0
0
0
0
0
0
0
0
0
0
0
0
0
0
0
0
0
0
0
0
0
0
0
0
0
0
0
0
0
0
0
0
0
0
0
0
0
0
0
0
0
0
0
0
0
0
0
0
0
0
0
0
0
0
0
0
0
0
0
0
0
0
0
0
0
0
0
0
0
0
0
0
0
0
0
0
0
0
0
0
0
0
0
0
0
0
0
0
0
0
0
0
0
0
0
0
0
0
0
0
0
0
0
0
0
0
0
0
0
0
0
0
0
0
0
0
0
0
0
0
0
0
0
0
0
0
0
0
0
0
0
0
0
0
0
0
0
0
0
0
0
0
0
0
0
0
0
0
0
0
0
0
0
0
0
0
0
0
0
0
0
0
0
0
0
0
0
0
0
0
0
0
0
0
0
0
0
0
0
0
0
0
0
0
0
0
0
0
0
0
0
0
0
0
0
0
0
0
0
0
0
0
0
0
0
0
0
0
0
0
0
0
0
0
0
0
0
0
0
0
0
0
0
0
0
0
0
0
0
0
0
0
0
0
0
0
0
0
0
0
0
0
0
0
0
0
0
0
0
0
0
0
0
0
0
0
0
0
0
0
0
0
0
0
0
0
0
0
0
0
0
0
0
0
0
0
0
0
0
0
0
0
0
0
0
0
0
0
0
0
0
0
0
0
0
0
0
0
0
0
0
0
0
0
0
0
0
0
0
0
0
0
0
0
0
0
0
0
0
0
0
0
-1.817794772e-05
-0.0001629941854
-1.82017403e-05
-0.0001591349595
1.818152842e-05
-2.268020117e-05
-0.0001591098571
2.26643247e-05
0.0001591257336
-1.738156037e-05
-0.0001848084799
-1.812672978e-05
-0.0001622133899
1.738867815e-05
-2.296100616e-05
-0.0001609581041
2.194244644e-05
0.0001619766639
3.512187583e-06
-3.516627471e-06
0.0003248244117
-7.404895985e-05
-0.0003248080878
0.0003085920706
-0.000308592256
7.402371326e-05
-0.0006225491188
0.0003085909058
0.0003139473262
0.0001548749303
-0.0003086031521
4.98368594e-05
6.798325277e-05
0.0003085903887
6.797521208e-05
0.0003248239937
-6.797479415e-05
0.0003680996652
-7.280048229e-05
-0.0003680996652
0.0003541549256
-0.0003541741443
7.408026518e-05
-0.0007152842309
0.0003547626655
0.0003645883397
-4.991976653e-05
0.0001767997911
-0.0003542224751
5.228450711e-05
-6.799718679e-05
6.793687409e-05
0.0003542152383
6.671332305e-05
0.0003680996652
-6.671332305e-05
6.79805815e-05
0.0003300294251
0.0003465224718
-6.799116934e-05
0.0001726316617
-4.979986207e-05
-0.0003465252587
1.818960918e-05
-1.817806809e-05
-0.0001737572197
-0.0001696512125
1.81923327e-05
-0.0001696491993
2.265383165e-05
0.0001696493116
-8.667979116e-05
-5.880410997e-06
6.264676185e-06
-6.281712535e-06
-8.666275481e-05
6.296114825e-06
-8.699184189e-05
6.341028715e-06
-6.34002686e-06
-8.174601574e-05
8.210900405e-05
-8.209518214e-05
6.327206806e-06
5.91799565e-06
0.0004110757402
2.41030963e-05
-2.410309631e-05
-0.0004110757402
0.0003949603359
-0.0003949603359
2.41030963e-05
-0.0003949603359
4.236323587e-05
0.0003949603359
1.801657027e-05
0.0003949603359
1.801657026e-05
0.0004110757402
-1.801657028e-05
-0.0001861481934
3.682951733e-06
-0.0001900047782
-3.682199559e-06
-8.140835919e-05
-5.915160305e-06
6.331266842e-06
-6.333377935e-06
-8.140624809e-05
-8.163504956e-05
-7.75123753e-05
7.750611651e-05
-7.067952535e-06
-5.985293359e-06
-7.749069203e-05
-0.0001576744944
0.0001576796373
-2.268534402e-05
-1.8194046e-05
-0.0001576888667
9.488537782e-05
-9.359702868e-05
6.896972049e-06
-9.167964482e-05
7.121525328e-06
9.187466507e-05
-0.0001849920149
1.3154955e-05
-6.948243605e-06
-6.725892453e-06
6.324269178e-06
-8.72712584e-05
8.758103231e-05
-8.760641739e-05
-0.0001916455108
0.0001920694799
-2.338497531e-05
-1.824382699e-05
-0.0001932052097
-0.0001750102851
1.820218069e-05
0.0001854492662
7.745004685e-06
-3.810955717e-06
-3.117873383e-06
9.257349316e-05
-9.402188168e-05
2.965427461e-06
5.784179605e-06
9.653026275e-05
6.395977535e-06
-6.387532889e-06
-8.464277441e-05
8.501835162e-05
-8.500476283e-05
6.382388736e-06
6.090169505e-06
0.0001708979903
1.679033677e-05
-0.0001709684953
-1.526604273e-05
7.450567488e-06
8.520473774e-05
7.861573442e-06
-1.525761326e-05
8.498584594e-05
7.447421209e-06
-7.450795364e-06
-8.700806165e-05
-8.632316539e-05
7.441204093e-06
-0.0001726943939
8.629074993e-05
8.654553913e-05
0.0001659269207
1.671000385e-05
-0.0001658937652
-1.537771638e-05
1.526126395e-05
8.275147883e-05
-1.517560427e-05
8.212663636e-05
-1.515902529e-05
8.395879462e-05
-0.0001672857721
8.38026608e-05
-0.000167269367
-8.39353629e-05
-6.002806376e-06
6.376074874e-06
-6.374427976e-06
-8.39370098e-05
-8.419746084e-05
6.345246647e-06
-6.3623604e-06
-7.940455911e-05
7.975186444e-05
-7.976420945e-05
6.357591663e-06
5.999851082e-06
0.0001604899042
1.671374652e-05
-0.0001604840194
-1.524108852e-05
1.52477326e-05
8.007802759e-05
-1.526343204e-05
7.97533743e-05
-1.522140296e-05
8.140855376e-05
-0.000161802486
8.10838808e-05
-0.0001618028177
0.0001548504349
1.67169543e-05
-0.0001548702034
1.52119635e-05
7.731294824e-05
-1.531106459e-05
7.867161867e-05
-0.0001560902439
7.822381716e-05
-0.0001561061738
-7.870291659e-05
-5.979764462e-06
6.34758442e-06
-6.367514517e-06
-7.86829865e-05
-7.908598335e-05
1.687673324e-05
-0.0001767216363
8.81568299e-05
8.846234854e-05
7.449930032e-06
-7.455575841e-06
-8.847139381e-05
-8.731569429e-05
7.466834306e-06
6.871661952e-06
-7.171391879e-06
-9.773575306e-05
-8.872986137e-05
7.420321134e-06
-0.0001805373571
8.872406951e-05
8.934631896e-05
-8.778194405e-05
-3.746489521e-06
3.667659377e-06
-3.520488009e-06
-8.792911542e-05
-8.657656226e-05
7.312155132e-07
3.029563061e-06
-3.06173837e-06
8.802337895e-05
3.333080958e-06
3.31137784e-06
8.768052367e-05
-8.700647816e-05
-2.353975085e-06
8.677657191e-05
2.995632352e-06
-2.755998475e-06
1.731054441e-06
2.257289942e-06
-0.0001516845487
0.000816591658
0.0001519304642
-0.000795293305
0.000795293305
-0.0007957254312
-4.845211093e-05
-0.0003949603359
4.845211094e-05
0.0001273369742
-6.671332304e-05
0.0003949603359
0.0004003329691
-6.062365113e-05
0.0001273369742
6.671332304e-05
0.0003734722984
0.0003895877027
-6.671332305e-05
-4.845211094e-05
-0.0003895877027
-3.627805807e-05
0.0003895877027
3.627805806e-05
-0.0003842150695
0.0003842150694
-1.890071546e-05
-0.0003842150695
-0.0003842150694
-1.12907656e-05
0.0003842149776
-1.28122388e-05
3.019089883e-05
-1.585568561e-05
-1.43352132e-05
3.019089883e-05
1.585700301e-05
0.0001861540071
0.000190004817
-1.585568562e-05
0.0001900043575
-1.129030611e-05
-0.000190004817
6.300204044e-06
-8.634844383e-05
-6.304318803e-06
8.658187106e-05
-8.656337955e-05
8.657116371e-05
7.076068315e-06
-8.655233176e-05
-6.691908599e-06
6.699692759e-06
-6.716550177e-06
-6.684187583e-06
6.697062239e-06
-8.664724963e-05
-8.665006715e-05
9.769055471e-06
0.000190004188
-9.768886022e-06
5.203949526e-06
-5.204118979e-06
-0.0001900046088
-0.0001863159188
5.20620781e-06
-1.192957039e-05
1.192957039e-05
-0.0003842149388
-6.725712775e-06
-8.247476022e-06
-5.184987367e-06
5.204980722e-06
-7.732256561e-05
-7.732106712e-05
1.342658512e-06
-9.107043543e-05
6.841908442e-05
-7.645761026e-05
9.381184357e-06
4.57330268e-05
1.122844557e-05
0.0001817877206
1.604673817e-05
-0.0001819537576
1.489078329e-05
9.049427869e-05
-7.405246451e-06
-7.395494276e-06
-9.008418381e-05
6.602243429e-06
-1.46852982e-05
1.43358665e-05
-0.0001834822487
9.200808894e-05
-0.0001832985689
8.763123831e-05
7.088265885e-06
-8.762180148e-05
-6.709987392e-06
6.734808318e-06
-6.747067582e-06
6.740857564e-06
-8.817470149e-05
-8.818431219e-05
-3.460386586e-06
-0.0001837700754
-4.564637421e-06
0.0001834551111
6.078490874e-06
-2.114131476e-06
-9.293725029e-05
-2.22369136e-06
6.567184409e-06
2.956831509e-06
8.050284448e-05
9.192505503e-05
-1.188527039e-06
-5.081378283e-06
1.990669109e-05
0.0001498586085
-9.161051423e-05
-7.763804446e-05
5.9986356e-06
-4.45632063e-05
6.72322584e-05
-2.86676877e-05
7.774921935e-05
-5.816710258e-05
8.49877259e-05
7.076640619e-06
-6.748889627e-06
6.7318527e-06
-6.741963364e-06
-6.719038557e-06
8.566499542e-05
-8.517985196e-05
8.519266611e-05
-8.522778087e-05
6.347273971e-06
6.360129993e-06
-8.361037667e-05
-6.348308293e-06
8.378886962e-05
-8.38031676e-05
8.381227727e-05
7.057626302e-06
-6.709092067e-06
6.718201733e-06
-6.716893897e-06
-6.731806015e-06
-8.395061408e-05
7.818710335e-05
-7.820913063e-05
-5.222009251e-06
8.951310392e-05
6.899924355e-06
-8.938321754e-05
-6.697622576e-06
6.534145942e-06
-6.124654819e-06
5.128736858e-06
-9.134605128e-05
-9.106499624e-05
-3.676297322e-06
8.83698467e-05
3.338936436e-06
-8.824986174e-05
8.847007982e-05
-8.830721771e-05
8.802275779e-05
3.495943066e-06
3.452689284e-06
3.196863154e-06
8.640599565e-05
8.654002721e-05
8.210917526e-05
7.096349216e-06
-6.721763903e-06
6.735757022e-06
-6.713284327e-06
-6.726074411e-06
8.33069082e-05
-8.2757527e-05
8.276720961e-05
-8.275647759e-05
6.337938823e-06
6.346886866e-06
-8.074545568e-05
-6.338457455e-06
8.108902049e-05
-8.107551156e-05
8.107212804e-05
7.082067068e-06
-6.722455298e-06
6.719071783e-06
-6.72565768e-06
-6.719946926e-06
-8.140712324e-05
7.975251343e-05
7.077918611e-06
-6.717920296e-06
6.706224273e-06
-6.703875082e-06
-6.713510287e-06
8.040444119e-05
-8.007695745e-05
8.006967143e-05
-8.007686785e-05
6.350395249e-06
6.359577936e-06
-7.77673094e-05
-6.363384308e-06
7.821027875e-05
-7.821821532e-05
7.820633825e-05
7.091707582e-06
-6.722478128e-06
6.710601054e-06
-6.722479273e-06
-6.713431437e-06
-7.868581688e-05
3.568622243e-06
-8.848268774e-05
8.864876316e-05
-8.860062893e-05
8.710932631e-05
3.605759065e-06
-3.468214907e-06
1.976912287e-06
-3.269020153e-06
3.04212496e-06
-8.922122329e-05
7.955433997e-05
7.072240118e-06
-8.06689964e-05
-4.487587653e-06
7.584317362e-06
-8.17111441e-06
9.179193619e-05
7.780228775e-06
-9.005232198e-05
8.946552493e-05
-8.959365364e-05
0.0001247892207
9.253055645e-06
8.191136394e-06
9.460232444e-07
9.684836026e-05
2.765603328e-06
-0.0001403229219
9.670573886e-05
-9.349648484e-05
1.947547453e-05
7.390697886e-05
-1.064593348e-06
4.273847372e-06
1.530099958e-06
-1.384866592e-05
5.765743986e-05
8.300535868e-05
0
0
0
0
0
0
1.118626762e-05
1.360561824e-05
5.194610193e-05
-5.147038943e-05
-3.877986195e-05
0
0
0
0
0
0
0
0
2.01875e-05
2.114959615e-05
6.41857607e-05
-6.239080119e-05
-5.21637844e-05
-4.20511024e-05
5.664854562e-05
0.0001399259155
9.900213323e-05
-8.843159176e-05
-0.0001385230004
0.0001434570329
0.0001995813988
-0.0001308838612
0.0001837101581
0.0004021587485
-0.0003333715612
0.0002669433761
-0.0002867811653
0.0002921363477
0.0004685673284
-0.000284865317
0.0004505932019
0.0006324582258
-0.0005840281709
0.0002929266532
-0.00027056491
0.0002702961479
0.0006653780134
-0.0002704644393
0.0006408643727
0.0001658794719
2.26704215e-05
-2.116421022e-05
2.11617804e-05
0.0001658819017
-2.115194708e-05
0.0001641193728
0
0
0
0
0
0
0
0
1.934211404e-05
1.584638646e-05
4.473169525e-05
-5.169456622e-05
-4.675314296e-05
-5.747922602e-05
6.170077662e-05
0.0001644019267
9.560001111e-05
-0.00010403514
-0.0001455531951
0.000138852946
0.000234417747
-0.0001494246471
0.000233237737
0.0004706262036
-0.0003909663768
0.0002596265793
-0.0002916709688
0.0002846333162
0.0005465422026
-0.000295603641
0.0005363211229
0.0007209340602
-0.0006743487346
0.0002878446247
-0.0002676506847
0.000266925114
0.0007534470999
-0.0002678070633
0.0007347479028
0
0
0
0
0
0
0
0
3.710015664e-06
1.071783084e-06
1.372133712e-05
-2.094948169e-05
-1.455478936e-05
-3.971431049e-05
3.696921014e-05
0.0001260368846
5.620642056e-05
-7.157225618e-05
-0.0001046056187
8.990589695e-05
0.0001927032531
-0.0001179982793
0.0002099394459
0.000435190286
-0.0003507410661
0.0001978648196
-0.000244748842
0.0002255093314
0.0005184251044
-0.0002611331036
0.0005368044337
0.0007287752672
-0.0006679168302
0.0002548805171
-0.0002552289686
0.0002461425031
0.0007779945107
-0.0002613663543
0.0007824028814
0.0008538058084
-0.0008397483998
0.0001832302093
-0.0001547967379